* GENERATED BY CHARMM-GUI (HTTP://WWW.CHARMM-GUI.ORG) V3.7 ON FEB, 18. 2025. JOB
* INPUT GENERATION
*  DATE:     2/18/25     12:10:28      CREATED BY USER: charmm-gui
*
     81404  EXT
         1         1  CHL1      C3              3.2764772146       -0.8381972927       17.4316527246  MEMB      1               0.0000000000
         2         1  CHL1      H3              4.3788766260       -0.7687670989       17.6165622362  MEMB      1               0.0000000000
         3         1  CHL1      O3              2.5750886565       -0.9940447098       18.6512412741  MEMB      1               0.0000000000
         4         1  CHL1      H3'             3.2831403040       -0.9989463466       19.3084252103  MEMB      1               0.0000000000
         5         1  CHL1      C4              2.8138884808        0.4648119114       16.7619063983  MEMB      1               0.0000000000
         6         1  CHL1      H4A             1.7075056506        0.5095924192       16.7104561242  MEMB      1               0.0000000000
         7         1  CHL1      H4B             3.1045712692        1.3310953881       17.4066688239  MEMB      1               0.0000000000
         8         1  CHL1      C5              3.3991510196        0.5416043536       15.3736178481  MEMB      1               0.0000000000
         9         1  CHL1      C6              4.2026881125        1.5315721776       15.0257680211  MEMB      1               0.0000000000
        10         1  CHL1      H6              4.3894992180        2.2365247844       15.8288071548  MEMB      1               0.0000000000
        11         1  CHL1      C7              4.8191299512        1.7028198926       13.6618489636  MEMB      1               0.0000000000
        12         1  CHL1      H7A             4.8763364605        2.7594125083       13.3233872178  MEMB      1               0.0000000000
        13         1  CHL1      H7B             5.8558933711        1.2943187550       13.7071110083  MEMB      1               0.0000000000
        14         1  CHL1      C8              3.9913154053        0.9212229352       12.6045496576  MEMB      1               0.0000000000
        15         1  CHL1      H8              2.9859102988        1.3869591583       12.5019355046  MEMB      1               0.0000000000
        16         1  CHL1      C14             4.6926342204        0.9412655007       11.2480859622  MEMB      1               0.0000000000
        17         1  CHL1      H14             5.6734023873        0.4459794178       11.4624311162  MEMB      1               0.0000000000
        18         1  CHL1      C15             5.0402837051        2.3088154055       10.5846902938  MEMB      1               0.0000000000
        19         1  CHL1      H15A            4.2124134530        3.0301633411       10.7298065508  MEMB      1               0.0000000000
        20         1  CHL1      H15B            5.9817926876        2.7556218657       10.9663045669  MEMB      1               0.0000000000
        21         1  CHL1      C16             5.1763521161        1.9912263558        9.0895047460  MEMB      1               0.0000000000
        22         1  CHL1      H16A            4.3512857484        2.4675567700        8.5199398901  MEMB      1               0.0000000000
        23         1  CHL1      H16B            6.1306180103        2.3606572573        8.6617991081  MEMB      1               0.0000000000
        24         1  CHL1      C17             4.9902978324        0.4478306516        8.9946103486  MEMB      1               0.0000000000
        25         1  CHL1      H17             5.9898807765        0.0069019101        9.2273593655  MEMB      1               0.0000000000
        26         1  CHL1      C13             4.0549060943        0.0756816610       10.1560827001  MEMB      1               0.0000000000
        27         1  CHL1      C18             2.6233572209        0.5404051128        9.7731907627  MEMB      1               0.0000000000
        28         1  CHL1      H18A            1.8394390544        0.0583087703       10.3868987338  MEMB      1               0.0000000000
        29         1  CHL1      H18B            2.5380679748        1.6356199329        9.8843820862  MEMB      1               0.0000000000
        30         1  CHL1      H18C            2.3751616685        0.2727245115        8.7265417051  MEMB      1               0.0000000000
        31         1  CHL1      C12             4.0480593170       -1.3802225502       10.6573802318  MEMB      1               0.0000000000
        32         1  CHL1      H12A            3.4780288215       -2.0171290280        9.9602753198  MEMB      1               0.0000000000
        33         1  CHL1      H12B            5.0882995455       -1.7678561074       10.6798972684  MEMB      1               0.0000000000
        34         1  CHL1      C11             3.3436112134       -1.5115325133       12.0247902295  MEMB      1               0.0000000000
        35         1  CHL1      H11A            2.2554308694       -1.3577921025       11.8781957856  MEMB      1               0.0000000000
        36         1  CHL1      H11B            3.4786221448       -2.5493881510       12.3927516482  MEMB      1               0.0000000000
        37         1  CHL1      C9              3.8359986707       -0.5181379369       13.1047640257  MEMB      1               0.0000000000
        38         1  CHL1      H9              4.8853727083       -0.8399037287       13.3272378636  MEMB      1               0.0000000000
        39         1  CHL1      C10             3.0897892475       -0.6293287414       14.4620560343  MEMB      1               0.0000000000
        40         1  CHL1      C19             1.5419047269       -0.6655075503       14.2883620748  MEMB      1               0.0000000000
        41         1  CHL1      H19A            0.9929854543       -0.7792499839       15.2461286228  MEMB      1               0.0000000000
        42         1  CHL1      H19B            1.1817141560        0.2869470386       13.8463122710  MEMB      1               0.0000000000
        43         1  CHL1      H19C            1.2140849492       -1.5198123956       13.6685575915  MEMB      1               0.0000000000
        44         1  CHL1      C1              3.6420355278       -1.8863217702       15.1825991199  MEMB      1               0.0000000000
        45         1  CHL1      H1A             3.4011820084       -2.7838477829       14.5858381558  MEMB      1               0.0000000000
        46         1  CHL1      H1B             4.7569756892       -1.8230428445       15.2418810441  MEMB      1               0.0000000000
        47         1  CHL1      C2              3.0457189874       -2.0894532728       16.5759428186  MEMB      1               0.0000000000
        48         1  CHL1      H2A             3.5070976768       -2.9787988627       17.0580447733  MEMB      1               0.0000000000
        49         1  CHL1      H2B             1.9653192203       -2.3108475523       16.4562554061  MEMB      1               0.0000000000
        50         1  CHL1      C20             4.6449326363        0.0013301383        7.5915853118  MEMB      1               0.0000000000
        51         1  CHL1      H20             3.7568188432        0.5525032431        7.1951103404  MEMB      1               0.0000000000
        52         1  CHL1      C21             4.3831539531       -1.5217833477        7.5171211076  MEMB      1               0.0000000000
        53         1  CHL1      H21A            4.2820344295       -1.9131724962        6.4878409116  MEMB      1               0.0000000000
        54         1  CHL1      H21B            3.4185563829       -1.7543224632        8.0041917044  MEMB      1               0.0000000000
        55         1  CHL1      H21C            5.2102512370       -2.0777786890        8.0038680572  MEMB      1               0.0000000000
        56         1  CHL1      C22             5.8070552802        0.3889327229        6.7212453790  MEMB      1               0.0000000000
        57         1  CHL1      H22A            5.8959705444        1.5026595492        6.6108168656  MEMB      1               0.0000000000
        58         1  CHL1      H22B            6.7734901125        0.0045794295        7.1031272471  MEMB      1               0.0000000000
        59         1  CHL1      C23             5.5888884055       -0.1503759538        5.3727613198  MEMB      1               0.0000000000
        60         1  CHL1      H23A            5.8120535438       -1.2401807313        5.2401675061  MEMB      1               0.0000000000
        61         1  CHL1      H23B            4.5504601286        0.0587155793        5.0521756364  MEMB      1               0.0000000000
        62         1  CHL1      C24             6.5126341183        0.6578366862        4.6102871148  MEMB      1               0.0000000000
        63         1  CHL1      H24A            6.4209500120        1.7580520554        4.5562438635  MEMB      1               0.0000000000
        64         1  CHL1      H24B            7.5330905295        0.4295784282        4.9973343526  MEMB      1               0.0000000000
        65         1  CHL1      C25             6.1797576050        0.3557715213        3.2531076164  MEMB      1               0.0000000000
        66         1  CHL1      H25             6.5208637019       -0.7421385753        3.2383614429  MEMB      1               0.0000000000
        67         1  CHL1      C26             4.7374250887        0.1134821160        2.7622634748  MEMB      1               0.0000000000
        68         1  CHL1      H26A            4.3911632453        1.1518558691        2.8007267155  MEMB      1               0.0000000000
        69         1  CHL1      H26B            4.5472617155       -0.2681453627        1.7333133176  MEMB      1               0.0000000000
        70         1  CHL1      H26C            4.2391662016       -0.7250591870        3.2780985689  MEMB      1               0.0000000000
        71         1  CHL1      C27             6.9803420483        1.5658946023        2.5668389227  MEMB      1               0.0000000000
        72         1  CHL1      H27A            7.5067952667        1.4036679346        1.5812805775  MEMB      1               0.0000000000
        73         1  CHL1      H27B            6.8888520605        2.1327508664        1.6500655008  MEMB      1               0.0000000000
        74         1  CHL1      H27C            7.9503801881        1.2577212861        2.7963905602  MEMB      1               0.0000000000
        75         2  SAPC      N              -5.0013150008       -6.0227281764       19.5515737456  MEMB      2               0.0000000000
        76         2  SAPC      C12            -4.5834587740       -5.4323313821       20.8824065287  MEMB      2               0.0000000000
        77         2  SAPC      H12A           -4.4818029300       -6.2378331086       21.6056473823  MEMB      2               0.0000000000
        78         2  SAPC      H12B           -5.3655366531       -4.7800380866       21.2846718982  MEMB      2               0.0000000000
        79         2  SAPC      C13            -5.2594616359       -5.0158311996       18.4670873264  MEMB      2               0.0000000000
        80         2  SAPC      H13A           -6.1157965869       -4.3912301369       18.7188764807  MEMB      2               0.0000000000
        81         2  SAPC      H13B           -4.4125317487       -4.3448233986       18.3556685293  MEMB      2               0.0000000000
        82         2  SAPC      H13C           -5.4531041328       -5.5436730738       17.5476747953  MEMB      2               0.0000000000
        83         2  SAPC      C14            -3.9831999870       -7.0274070164       19.1079961364  MEMB      2               0.0000000000
        84         2  SAPC      H14A           -3.0587071698       -6.5120151884       18.8983927865  MEMB      2               0.0000000000
        85         2  SAPC      H14B           -3.7479277137       -7.7376213398       19.8911527642  MEMB      2               0.0000000000
        86         2  SAPC      H14C           -4.2818961284       -7.5567827987       18.2216625714  MEMB      2               0.0000000000
        87         2  SAPC      C15            -6.3052840784       -6.6248807657       19.7749529911  MEMB      2               0.0000000000
        88         2  SAPC      H15A           -6.2999647377       -7.5554459142       20.3395438702  MEMB      2               0.0000000000
        89         2  SAPC      H15B           -6.9509272935       -5.9889672555       20.3947674034  MEMB      2               0.0000000000
        90         2  SAPC      H15C           -6.8543543541       -6.7904359468       18.8655550778  MEMB      2               0.0000000000
        91         2  SAPC      C11            -3.2831586635       -4.6360237054       20.8925253657  MEMB      2               0.0000000000
        92         2  SAPC      H11A           -2.4490289681       -5.2978016584       20.5877901776  MEMB      2               0.0000000000
        93         2  SAPC      H11B           -3.1023249247       -4.3057438321       21.9419200846  MEMB      2               0.0000000000
        94         2  SAPC      P              -2.9150516649       -2.0945977505       20.3751939092  MEMB      2               0.0000000000
        95         2  SAPC      O13            -3.9532535267       -1.4356346319       21.1755915702  MEMB      2               0.0000000000
        96         2  SAPC      O14            -1.5203572278       -2.1257051999       20.8878164815  MEMB      2               0.0000000000
        97         2  SAPC      O12            -3.3909514804       -3.5602728617       19.9799378218  MEMB      2               0.0000000000
        98         2  SAPC      O11            -2.8878443480       -1.4369085720       18.9623104268  MEMB      2               0.0000000000
        99         2  SAPC      C1             -2.4445354041       -2.1886430752       17.8532367370  MEMB      2               0.0000000000
       100         2  SAPC      HA             -1.4140863506       -2.5655633356       18.0344545511  MEMB      2               0.0000000000
       101         2  SAPC      HB             -3.1311052006       -3.0432763250       17.6348483207  MEMB      2               0.0000000000
       102         2  SAPC      C2             -2.4777529922       -1.2896474004       16.6197813948  MEMB      2               0.0000000000
       103         2  SAPC      HS             -1.9168518910       -0.3463728034       16.8527240655  MEMB      2               0.0000000000
       104         2  SAPC      O21            -3.8821308989       -1.0271983576       16.3669939042  MEMB      2               0.0000000000
       105         2  SAPC      C21            -4.2103748153       -0.5961618324       15.1636045544  MEMB      2               0.0000000000
       106         2  SAPC      O22            -3.4798408987       -0.5030630940       14.1959345529  MEMB      2               0.0000000000
       107         2  SAPC      C22            -5.5836888398        0.0872158340       15.2553863501  MEMB      2               0.0000000000
       108         2  SAPC      H2R            -5.6857649804        0.7450234664       16.0627195300  MEMB      2               0.0000000000
       109         2  SAPC      H2S            -5.8447521507        0.8006830374       14.4631166923  MEMB      2               0.0000000000
       110         2  SAPC      C3             -1.7566843487       -2.0475579629       15.4958985481  MEMB      2               0.0000000000
       111         2  SAPC      HX             -0.7847208946       -2.3873389700       15.9096863933  MEMB      2               0.0000000000
       112         2  SAPC      HY             -1.5046311835       -1.4229914308       14.6098789094  MEMB      2               0.0000000000
       113         2  SAPC      O31            -2.6388879674       -3.1283629444       15.1516062754  MEMB      2               0.0000000000
       114         2  SAPC      C31            -2.1450569251       -3.9108391139       14.2559116459  MEMB      2               0.0000000000
       115         2  SAPC      O32            -1.0133552777       -3.8884749476       13.8036385361  MEMB      2               0.0000000000
       116         2  SAPC      C32            -3.1719330272       -4.9240600819       13.9067599752  MEMB      2               0.0000000000
       117         2  SAPC      H2X            -3.8144535069       -4.5213037927       13.1463014145  MEMB      2               0.0000000000
       118         2  SAPC      H2Y            -3.7786454067       -5.3103019142       14.7459454449  MEMB      2               0.0000000000
       119         2  SAPC      C23            -6.6057151245       -0.8064804749       15.8912991236  MEMB      2               0.0000000000
       120         2  SAPC      H3R            -7.5274477857       -0.1719108848       15.8410604205  MEMB      2               0.0000000000
       121         2  SAPC      H3S            -6.3427899747       -0.9399061309       16.9704541625  MEMB      2               0.0000000000
       122         2  SAPC      C24            -6.5541632164       -2.1558294674       15.2256606147  MEMB      2               0.0000000000
       123         2  SAPC      H4R            -7.3709226956       -2.7900657403       15.6196772075  MEMB      2               0.0000000000
       124         2  SAPC      H4S            -5.5781966993       -2.6008465672       15.1572054456  MEMB      2               0.0000000000
       125         2  SAPC      C25            -6.5288122503       -1.7975506826       13.8435459410  MEMB      2               0.0000000000
       126         2  SAPC      H5R            -7.3638876808       -1.1947743003       13.8971640917  MEMB      2               0.0000000000
       127         2  SAPC      C26            -6.2482345428       -2.3268309453       12.6692784863  MEMB      2               0.0000000000
       128         2  SAPC      H6R            -6.6414817839       -1.8231934535       11.7630478932  MEMB      2               0.0000000000
       129         2  SAPC      C27            -5.8224827932       -3.6103095135       12.2369461484  MEMB      2               0.0000000000
       130         2  SAPC      H7R            -6.5280901424       -4.3718289095       12.6702274657  MEMB      2               0.0000000000
       131         2  SAPC      H7S            -4.9578880440       -3.3214863393       12.7777569262  MEMB      2               0.0000000000
       132         2  SAPC      C28            -5.6768490643       -3.6137045779       10.7206874906  MEMB      2               0.0000000000
       133         2  SAPC      H8R            -6.4156297825       -4.2344631684       10.2020171022  MEMB      2               0.0000000000
       134         2  SAPC      C29            -5.1033326462       -2.6489932523        9.9894423038  MEMB      2               0.0000000000
       135         2  SAPC      H9R            -5.0909134300       -2.7563481604        8.9006309547  MEMB      2               0.0000000000
       136         2  SAPC      C210           -4.5012300139       -1.3891306666       10.5686230035  MEMB      2               0.0000000000
       137         2  SAPC      H10R           -5.0424750482       -0.8618483109       11.3843984889  MEMB      2               0.0000000000
       138         2  SAPC      H10S           -4.5041067384       -0.6051780742        9.8175142636  MEMB      2               0.0000000000
       139         2  SAPC      C211           -3.1477061050       -1.7174058079       11.0677256699  MEMB      2               0.0000000000
       140         2  SAPC      H11R           -3.0478209150       -1.8184847297       12.1577228213  MEMB      2               0.0000000000
       141         2  SAPC      C212           -2.0973885972       -1.8626760237       10.2603566648  MEMB      2               0.0000000000
       142         2  SAPC      H12R           -1.1223936514       -2.0512515800       10.7085890640  MEMB      2               0.0000000000
       143         2  SAPC      C213           -2.1141960317       -1.7164102663        8.7650511411  MEMB      2               0.0000000000
       144         2  SAPC      H13R           -3.0071532438       -2.2027743296        8.2975675007  MEMB      2               0.0000000000
       145         2  SAPC      H13S           -1.2295663599       -2.2075746045        8.3332066657  MEMB      2               0.0000000000
       146         2  SAPC      C214           -1.9537543393       -0.2804468062        8.3967139157  MEMB      2               0.0000000000
       147         2  SAPC      H14R           -1.3282681381        0.3589120480        9.0353507826  MEMB      2               0.0000000000
       148         2  SAPC      C215           -2.5610697813        0.2785472131        7.3740128442  MEMB      2               0.0000000000
       149         2  SAPC      H15R           -2.5674688850        1.3862361721        7.3966941251  MEMB      2               0.0000000000
       150         2  SAPC      C216           -3.5200801285       -0.4148448914        6.4201027941  MEMB      2               0.0000000000
       151         2  SAPC      H16R           -4.5099150545       -0.0328153635        6.6025227262  MEMB      2               0.0000000000
       152         2  SAPC      H16S           -3.8624429714       -1.4367005193        6.6368472745  MEMB      2               0.0000000000
       153         2  SAPC      C217           -3.2479959271       -0.0969794085        4.9463141725  MEMB      2               0.0000000000
       154         2  SAPC      H17R           -2.8233725162        0.9281994171        4.7936697142  MEMB      2               0.0000000000
       155         2  SAPC      H17S           -4.2044199613       -0.1565372947        4.3808909885  MEMB      2               0.0000000000
       156         2  SAPC      C218           -2.2261812033       -1.0269386209        4.4120667699  MEMB      2               0.0000000000
       157         2  SAPC      H18R           -2.5436042940       -2.0510162050        4.6956386999  MEMB      2               0.0000000000
       158         2  SAPC      H18S           -1.3066019598       -0.7736672854        4.9968530112  MEMB      2               0.0000000000
       159         2  SAPC      C219           -2.0147658811       -0.8546437613        2.9060814053  MEMB      2               0.0000000000
       160         2  SAPC      H19R           -1.1819894700       -1.5438746684        2.6578733960  MEMB      2               0.0000000000
       161         2  SAPC      H19S           -1.6510077772        0.1758621114        2.6912889028  MEMB      2               0.0000000000
       162         2  SAPC      C220           -3.1976032006       -1.0991829313        1.9477400588  MEMB      2               0.0000000000
       163         2  SAPC      H20R           -3.5672988494       -0.1270668234        1.5473329976  MEMB      2               0.0000000000
       164         2  SAPC      H20S           -4.0477250371       -1.6605947321        2.3885261160  MEMB      2               0.0000000000
       165         2  SAPC      H20T           -2.8206157784       -1.6905283149        1.0879662795  MEMB      2               0.0000000000
       166         2  SAPC      C33            -2.5003513525       -6.0455178499       13.1999592043  MEMB      2               0.0000000000
       167         2  SAPC      H3X            -1.8583102624       -6.6812778755       13.8265389629  MEMB      2               0.0000000000
       168         2  SAPC      H3Y            -1.9984032353       -5.7361125966       12.2404903029  MEMB      2               0.0000000000
       169         2  SAPC      C34            -3.5966381775       -6.8793311654       12.7801394825  MEMB      2               0.0000000000
       170         2  SAPC      H4X            -4.4486716438       -6.9846564323       13.5123820970  MEMB      2               0.0000000000
       171         2  SAPC      H4Y            -3.1441764629       -7.8435694068       12.7208508239  MEMB      2               0.0000000000
       172         2  SAPC      C35            -3.8715882436       -6.4086866829       11.3805293562  MEMB      2               0.0000000000
       173         2  SAPC      H5X            -3.2859678223       -6.6706210266       10.4994116655  MEMB      2               0.0000000000
       174         2  SAPC      H5Y            -4.3520209017       -5.4098684442       11.3333609153  MEMB      2               0.0000000000
       175         2  SAPC      C36            -4.8866847941       -7.1942630159       10.9552843755  MEMB      2               0.0000000000
       176         2  SAPC      H6X            -5.4490815078       -6.7705744221       11.8304587894  MEMB      2               0.0000000000
       177         2  SAPC      H6Y            -5.1428560726       -8.1454873246       11.0736245823  MEMB      2               0.0000000000
       178         2  SAPC      C37            -5.1396908075       -7.4169688813        9.4578168101  MEMB      2               0.0000000000
       179         2  SAPC      H7X            -5.9826315796       -8.0888384830        9.3771271908  MEMB      2               0.0000000000
       180         2  SAPC      H7Y            -4.6230096395       -8.2048395751        8.9180947191  MEMB      2               0.0000000000
       181         2  SAPC      C38            -5.8047959507       -6.3516076949        8.6784349433  MEMB      2               0.0000000000
       182         2  SAPC      H8X            -5.3337928770       -5.4082968149        8.7139090782  MEMB      2               0.0000000000
       183         2  SAPC      H8Y            -6.4968425705       -5.8040615419        9.2399817060  MEMB      2               0.0000000000
       184         2  SAPC      C39            -6.2568719422       -6.8155308450        7.3207532122  MEMB      2               0.0000000000
       185         2  SAPC      H9X            -6.8032930307       -6.1454226227        6.6246400235  MEMB      2               0.0000000000
       186         2  SAPC      H9Y            -7.1101256651       -7.4515590356        7.0975821463  MEMB      2               0.0000000000
       187         2  SAPC      C310           -4.9647535049       -7.0328743046        6.8474767227  MEMB      2               0.0000000000
       188         2  SAPC      H10X           -5.1512759189       -6.8242831667        5.8418420304  MEMB      2               0.0000000000
       189         2  SAPC      H10Y           -4.6251346987       -8.0796710204        6.9730655288  MEMB      2               0.0000000000
       190         2  SAPC      C311           -4.2380192215       -5.8200063823        6.4827151859  MEMB      2               0.0000000000
       191         2  SAPC      H11X           -3.8925656535       -5.6363769412        7.4946440173  MEMB      2               0.0000000000
       192         2  SAPC      H11Y           -4.9389843910       -5.0210159384        6.0705057935  MEMB      2               0.0000000000
       193         2  SAPC      C312           -3.1258736898       -6.1685784962        5.5042770697  MEMB      2               0.0000000000
       194         2  SAPC      H12X           -2.6933961387       -7.1737171036        5.7561172322  MEMB      2               0.0000000000
       195         2  SAPC      H12Y           -2.4918683023       -5.2915708688        5.5247018952  MEMB      2               0.0000000000
       196         2  SAPC      C313           -3.4399770447       -6.2475341241        4.0392573542  MEMB      2               0.0000000000
       197         2  SAPC      H13X           -4.2349372547       -5.5014784984        3.7394015458  MEMB      2               0.0000000000
       198         2  SAPC      H13Y           -3.6633705317       -7.3222658867        4.0459296566  MEMB      2               0.0000000000
       199         2  SAPC      C314           -2.4324870510       -6.3342471991        2.9730964996  MEMB      2               0.0000000000
       200         2  SAPC      H14X           -2.6645649759       -6.9106899880        2.0606824410  MEMB      2               0.0000000000
       201         2  SAPC      H14Y           -1.6248238785       -6.9569193042        3.3780102356  MEMB      2               0.0000000000
       202         2  SAPC      C315           -2.3611620624       -4.8967733812        2.5757637324  MEMB      2               0.0000000000
       203         2  SAPC      H15X           -2.1103383250       -4.3769835889        3.5242000677  MEMB      2               0.0000000000
       204         2  SAPC      H15Y           -3.3485592064       -4.4769213464        2.2430083296  MEMB      2               0.0000000000
       205         2  SAPC      C316           -1.2953793741       -4.7541748696        1.5460038536  MEMB      2               0.0000000000
       206         2  SAPC      H16X           -0.3983148325       -5.2170390413        2.0290245604  MEMB      2               0.0000000000
       207         2  SAPC      H16Y           -1.1280680445       -3.6755507436        1.3798316442  MEMB      2               0.0000000000
       208         2  SAPC      C317           -1.5690594723       -5.4836279496        0.2269508961  MEMB      2               0.0000000000
       209         2  SAPC      H17X           -1.8998702817       -6.5319086772        0.3548986793  MEMB      2               0.0000000000
       210         2  SAPC      H17Y           -0.5635635197       -5.5274661095       -0.2304142270  MEMB      2               0.0000000000
       211         2  SAPC      C318           -2.5385738485       -4.8253788703       -0.7501189250  MEMB      2               0.0000000000
       212         2  SAPC      H18X           -3.4562132743       -4.4432743275       -0.2584020915  MEMB      2               0.0000000000
       213         2  SAPC      H18Y           -2.8604519631       -5.5727456685       -1.5126032599  MEMB      2               0.0000000000
       214         2  SAPC      H18Z           -1.9993622096       -3.9911202951       -1.2470214412  MEMB      2               0.0000000000
       215         3  SLPC      N              -4.0341962109        7.6442321311       16.4845192590  MEMB      3               0.0000000000
       216         3  SLPC      C13            -4.9381433660        6.5367811533       16.0044704099  MEMB      3               0.0000000000
       217         3  SLPC      H13A           -5.9538040905        6.6381959896       16.3491524080  MEMB      3               0.0000000000
       218         3  SLPC      H13B           -4.9316156141        6.4205300465       14.9233539377  MEMB      3               0.0000000000
       219         3  SLPC      H13C           -4.5702718552        5.5650758333       16.3621926398  MEMB      3               0.0000000000
       220         3  SLPC      C14            -4.0266514956        7.6706764662       17.9769848331  MEMB      3               0.0000000000
       221         3  SLPC      H14A           -4.9166392904        8.1433655482       18.3697080777  MEMB      3               0.0000000000
       222         3  SLPC      H14B           -3.9700979056        6.6551907672       18.3766440526  MEMB      3               0.0000000000
       223         3  SLPC      H14C           -3.1494723563        8.1923614602       18.3163397955  MEMB      3               0.0000000000
       224         3  SLPC      C15            -4.5514768184        8.9752081422       16.0288155866  MEMB      3               0.0000000000
       225         3  SLPC      H15A           -3.8578443929        9.7806340384       16.2204281797  MEMB      3               0.0000000000
       226         3  SLPC      H15B           -4.7759408278        8.9356582675       14.9708442153  MEMB      3               0.0000000000
       227         3  SLPC      H15C           -5.4683337660        9.2181341147       16.5641418387  MEMB      3               0.0000000000
       228         3  SLPC      C12            -2.6378183328        7.3489881407       15.9361514211  MEMB      3               0.0000000000
       229         3  SLPC      H12A           -2.0594157351        8.2531817729       15.8975254689  MEMB      3               0.0000000000
       230         3  SLPC      H12B           -2.7633431321        6.9814201587       14.9214451557  MEMB      3               0.0000000000
       231         3  SLPC      C11            -1.7416588555        6.2982750564       16.6451995002  MEMB      3               0.0000000000
       232         3  SLPC      H11A           -1.2222553895        6.7409092371       17.5262435014  MEMB      3               0.0000000000
       233         3  SLPC      H11B           -0.9534298747        5.9957418226       15.9050564143  MEMB      3               0.0000000000
       234         3  SLPC      P              -1.7525409000        3.9094873291       17.6512614667  MEMB      3               0.0000000000
       235         3  SLPC      O13            -0.9737456479        3.3620967364       16.5140341607  MEMB      3               0.0000000000
       236         3  SLPC      O14            -1.0879520292        4.2874937152       18.9072873600  MEMB      3               0.0000000000
       237         3  SLPC      O12            -2.5163106149        5.1821753359       17.0576045105  MEMB      3               0.0000000000
       238         3  SLPC      O11            -2.9903404458        3.0000943869       18.0071272587  MEMB      3               0.0000000000
       239         3  SLPC      C1             -4.3503532580        3.4647657261       18.0189010922  MEMB      3               0.0000000000
       240         3  SLPC      HA             -4.8241473186        3.0459118900       18.9417015565  MEMB      3               0.0000000000
       241         3  SLPC      HB             -4.4490976912        4.5551333757       18.0319642750  MEMB      3               0.0000000000
       242         3  SLPC      C2             -5.1539168161        2.9547166921       16.7872686503  MEMB      3               0.0000000000
       243         3  SLPC      HS             -5.1665963485        1.9046255711       17.1727870842  MEMB      3               0.0000000000
       244         3  SLPC      O21            -4.5581351404        3.2756960103       15.4814784596  MEMB      3               0.0000000000
       245         3  SLPC      C21            -3.6621260166        2.3338868623       15.1587142220  MEMB      3               0.0000000000
       246         3  SLPC      O22            -3.2732049388        1.5428755556       15.9781809711  MEMB      3               0.0000000000
       247         3  SLPC      C22            -3.1191287326        2.3315932814       13.7015453102  MEMB      3               0.0000000000
       248         3  SLPC      H2R            -2.0285528300        2.3414759874       13.8971128947  MEMB      3               0.0000000000
       249         3  SLPC      H2S            -3.2551960788        1.4183481042       13.0729264419  MEMB      3               0.0000000000
       250         3  SLPC      C3             -6.6266933626        3.3564381893       16.5561574901  MEMB      3               0.0000000000
       251         3  SLPC      HX             -6.5663731459        4.4474173069       16.4330738274  MEMB      3               0.0000000000
       252         3  SLPC      HY             -7.2582039057        3.1130544019       17.4280086621  MEMB      3               0.0000000000
       253         3  SLPC      O31            -7.2193971467        2.7553675884       15.3758264669  MEMB      3               0.0000000000
       254         3  SLPC      C31            -7.2005937747        3.4606567784       14.2448436577  MEMB      3               0.0000000000
       255         3  SLPC      O32            -6.6875012236        4.5361899035       14.0526355451  MEMB      3               0.0000000000
       256         3  SLPC      C32            -8.0452017504        2.7872742137       13.1946919366  MEMB      3               0.0000000000
       257         3  SLPC      H2X            -9.0023840494        3.3183167435       13.2022945411  MEMB      3               0.0000000000
       258         3  SLPC      H2Y            -8.1018168255        1.8068752153       13.6159206419  MEMB      3               0.0000000000
       259         3  SLPC      C23            -3.7384098514        3.5268890796       12.9983864165  MEMB      3               0.0000000000
       260         3  SLPC      H3R            -3.7415362537        4.3627242494       13.7283368248  MEMB      3               0.0000000000
       261         3  SLPC      H3S            -4.7986042128        3.2603980511       12.8028341237  MEMB      3               0.0000000000
       262         3  SLPC      C24            -3.0307624468        4.0839472025       11.7686595730  MEMB      3               0.0000000000
       263         3  SLPC      H4R            -3.2594312980        3.4350543678       10.9015599525  MEMB      3               0.0000000000
       264         3  SLPC      H4S            -1.9255232201        4.0811735249       11.9147715192  MEMB      3               0.0000000000
       265         3  SLPC      C25            -3.4079716658        5.5605904449       11.5368450968  MEMB      3               0.0000000000
       266         3  SLPC      H5R            -2.6789164465        5.9876699207       10.8155136816  MEMB      3               0.0000000000
       267         3  SLPC      H5S            -3.2745079570        6.1089744329       12.4990315527  MEMB      3               0.0000000000
       268         3  SLPC      C26            -4.8271981949        5.8189977810       10.9954252684  MEMB      3               0.0000000000
       269         3  SLPC      H6R            -4.9458551432        6.9250141279       10.9602613557  MEMB      3               0.0000000000
       270         3  SLPC      H6S            -5.5796645731        5.4501973540       11.7262553729  MEMB      3               0.0000000000
       271         3  SLPC      C27            -5.0233920802        5.2229948432        9.5797070409  MEMB      3               0.0000000000
       272         3  SLPC      H7R            -5.0631539722        4.1176567257        9.6472071588  MEMB      3               0.0000000000
       273         3  SLPC      H7S            -4.1268552570        5.4812767170        8.9728551002  MEMB      3               0.0000000000
       274         3  SLPC      C28            -6.2793204916        5.6488552458        8.7969518706  MEMB      3               0.0000000000
       275         3  SLPC      H8R            -7.1538746338        5.4597207880        9.4472638466  MEMB      3               0.0000000000
       276         3  SLPC      H8S            -6.4051293246        5.0047446058        7.8912828915  MEMB      3               0.0000000000
       277         3  SLPC      C29            -6.2211826406        7.1060999039        8.4472201096  MEMB      3               0.0000000000
       278         3  SLPC      H9R            -6.4388404697        7.7847558857        9.2788426364  MEMB      3               0.0000000000
       279         3  SLPC      C210           -5.9409379295        7.6583759049        7.2642685149  MEMB      3               0.0000000000
       280         3  SLPC      H10R           -5.9477098829        8.7545847899        7.2081966215  MEMB      3               0.0000000000
       281         3  SLPC      C211           -5.6114049379        6.9837525229        5.9698203179  MEMB      3               0.0000000000
       282         3  SLPC      H11R           -5.2006766023        5.9767725089        6.1756855211  MEMB      3               0.0000000000
       283         3  SLPC      H11S           -4.7974226948        7.5852327421        5.5089148783  MEMB      3               0.0000000000
       284         3  SLPC      C212           -6.7953452115        6.8554485732        5.0418996127  MEMB      3               0.0000000000
       285         3  SLPC      H12R           -7.5675858933        6.1266731049        5.3371806197  MEMB      3               0.0000000000
       286         3  SLPC      C213           -7.0477494782        7.6076013297        3.9607353993  MEMB      3               0.0000000000
       287         3  SLPC      H13R           -7.9924662257        7.4295084368        3.4330706908  MEMB      3               0.0000000000
       288         3  SLPC      C214           -6.2317644124        8.7485315202        3.4123461528  MEMB      3               0.0000000000
       289         3  SLPC      H14R           -5.8905874266        9.4292781746        4.2121209195  MEMB      3               0.0000000000
       290         3  SLPC      H14S           -6.8686749641        9.3328082991        2.6994631519  MEMB      3               0.0000000000
       291         3  SLPC      C215           -4.9356745605        8.3638542623        2.7407190522  MEMB      3               0.0000000000
       292         3  SLPC      H15R           -4.2119063484        7.8213181408        3.3786765311  MEMB      3               0.0000000000
       293         3  SLPC      H15S           -4.4543039232        9.2803797695        2.2976238691  MEMB      3               0.0000000000
       294         3  SLPC      C216           -5.2242643064        7.5076968076        1.5817844007  MEMB      3               0.0000000000
       295         3  SLPC      H16R           -5.9758340713        8.1553384891        1.0856975946  MEMB      3               0.0000000000
       296         3  SLPC      H16S           -5.7342203342        6.5259729467        1.7380301528  MEMB      3               0.0000000000
       297         3  SLPC      C217           -3.8797672126        7.3790879285        0.8887482889  MEMB      3               0.0000000000
       298         3  SLPC      H17R           -3.4307191414        6.4582407993        1.3418159283  MEMB      3               0.0000000000
       299         3  SLPC      H17S           -3.2604402539        8.2928700572        0.9271078280  MEMB      3               0.0000000000
       300         3  SLPC      C218           -3.6708161869        7.1507307262       -0.5280752090  MEMB      3               0.0000000000
       301         3  SLPC      H18R           -3.7496909514        6.0914522625       -0.8420997991  MEMB      3               0.0000000000
       302         3  SLPC      H18S           -3.7167807993        7.5343306235       -1.5493506080  MEMB      3               0.0000000000
       303         3  SLPC      H18T           -4.1956847175        7.9980461947       -1.0175025681  MEMB      3               0.0000000000
       304         3  SLPC      C33            -7.3939509585        2.6648839104       11.8190827106  MEMB      3               0.0000000000
       305         3  SLPC      H3X            -6.4112503359        2.2095313978       12.0551930317  MEMB      3               0.0000000000
       306         3  SLPC      H3Y            -7.3216498262        3.6938792626       11.4080183472  MEMB      3               0.0000000000
       307         3  SLPC      C34            -7.9281371279        1.6872131009       10.7617593728  MEMB      3               0.0000000000
       308         3  SLPC      H4X            -8.6465522342        2.0865162755       10.0920626761  MEMB      3               0.0000000000
       309         3  SLPC      H4Y            -8.3708405061        0.7559728007       11.1489452974  MEMB      3               0.0000000000
       310         3  SLPC      C35            -7.3326387385        1.8393006122        9.3988669637  MEMB      3               0.0000000000
       311         3  SLPC      H5X            -7.3217991860        2.9294867001        9.1025041103  MEMB      3               0.0000000000
       312         3  SLPC      H5Y            -7.8697739552        1.2435803039        8.6007000980  MEMB      3               0.0000000000
       313         3  SLPC      C36            -5.9925852436        1.4105248703        9.6563679396  MEMB      3               0.0000000000
       314         3  SLPC      H6X            -6.1053374770        0.4669456310       10.2386800933  MEMB      3               0.0000000000
       315         3  SLPC      H6Y            -5.4666419493        2.1595611089       10.2804688646  MEMB      3               0.0000000000
       316         3  SLPC      C37            -5.3446566657        1.2165417559        8.3508440488  MEMB      3               0.0000000000
       317         3  SLPC      H7X            -5.8034592881        0.2834823290        7.9445305934  MEMB      3               0.0000000000
       318         3  SLPC      H7Y            -4.3148327128        1.0598926163        8.6839295934  MEMB      3               0.0000000000
       319         3  SLPC      C38            -5.4712914035        2.3548349370        7.3310144772  MEMB      3               0.0000000000
       320         3  SLPC      H8X            -4.9845741708        3.2785888829        7.7022172619  MEMB      3               0.0000000000
       321         3  SLPC      H8Y            -6.5444153887        2.4801381438        7.0913456276  MEMB      3               0.0000000000
       322         3  SLPC      C39            -4.8185789553        2.1439884522        5.9882151222  MEMB      3               0.0000000000
       323         3  SLPC      H9X            -5.2523389089        1.3320442019        5.3993506214  MEMB      3               0.0000000000
       324         3  SLPC      H9Y            -3.7676947333        1.9364721935        6.1454445107  MEMB      3               0.0000000000
       325         3  SLPC      C310           -4.6059719575        3.3290415468        5.1490151236  MEMB      3               0.0000000000
       326         3  SLPC      H10X           -3.6249001967        3.7587782549        5.4814422103  MEMB      3               0.0000000000
       327         3  SLPC      H10Y           -5.4565703679        3.9802408849        5.3943347650  MEMB      3               0.0000000000
       328         3  SLPC      C311           -4.4869161223        2.9628779822        3.6915576609  MEMB      3               0.0000000000
       329         3  SLPC      H11X           -5.4533116282        2.7922032664        3.2023235648  MEMB      3               0.0000000000
       330         3  SLPC      H11Y           -3.9284576372        2.0117104062        3.5203756003  MEMB      3               0.0000000000
       331         3  SLPC      C312           -3.9109080419        4.1551065274        2.9851419600  MEMB      3               0.0000000000
       332         3  SLPC      H12X           -3.1232274651        4.6523047395        3.5861909064  MEMB      3               0.0000000000
       333         3  SLPC      H12Y           -4.7109381470        4.9052026725        2.8099051383  MEMB      3               0.0000000000
       334         3  SLPC      C313           -3.4187124919        3.6835433261        1.6673645602  MEMB      3               0.0000000000
       335         3  SLPC      H13X           -2.6478351747        2.8926448499        1.8414932923  MEMB      3               0.0000000000
       336         3  SLPC      H13Y           -2.8977016473        4.5282458698        1.1859856798  MEMB      3               0.0000000000
       337         3  SLPC      C314           -4.6094587248        3.2382781522        0.7931383949  MEMB      3               0.0000000000
       338         3  SLPC      H14X           -5.4602807044        3.9505259160        0.8545641336  MEMB      3               0.0000000000
       339         3  SLPC      H14Y           -4.9301382254        2.2003057734        1.0351315992  MEMB      3               0.0000000000
       340         3  SLPC      C315           -4.2541553012        3.3659133400       -0.6382825036  MEMB      3               0.0000000000
       341         3  SLPC      H15X           -3.8782252532        4.3499764022       -0.8738817863  MEMB      3               0.0000000000
       342         3  SLPC      H15Y           -4.9736536360        3.0799715992       -1.4417199395  MEMB      3               0.0000000000
       343         3  SLPC      C316           -2.8718127038        2.9918768356       -0.8500045331  MEMB      3               0.0000000000
       344         3  SLPC      H16X           -2.8558021605        1.9989213545       -0.3505878849  MEMB      3               0.0000000000
       345         3  SLPC      H16Y           -2.0836240562        2.8827920255       -0.1056144977  MEMB      3               0.0000000000
       346         3  SLPC      C317           -2.6120250840        3.4121907504       -2.4003672728  MEMB      3               0.0000000000
       347         3  SLPC      H17X           -3.5442307361        3.2344582393       -2.9102178855  MEMB      3               0.0000000000
       348         3  SLPC      H17Y           -1.6375336053        2.9897937515       -2.8593661658  MEMB      3               0.0000000000
       349         3  SLPC      C318           -1.8907620730        4.4134732630       -3.1408606198  MEMB      3               0.0000000000
       350         3  SLPC      H18X           -2.7134125867        5.0455417003       -3.4025342981  MEMB      3               0.0000000000
       351         3  SLPC      H18Y           -1.0732509129        4.3036191267       -3.9430576785  MEMB      3               0.0000000000
       352         3  SLPC      H18Z           -1.5584164605        4.4554286942       -2.0981490009  MEMB      3               0.0000000000
       353         4  SAPS      N               3.0890476908        7.6521584986       20.7051293127  MEMB      4               0.0000000000
       354         4  SAPS      HN1             2.9665415711        8.1686156979       19.8165367272  MEMB      4               0.0000000000
       355         4  SAPS      HN2             2.1549591126        7.4516097416       21.1307501089  MEMB      4               0.0000000000
       356         4  SAPS      HN3             3.7161313884        8.1510888954       21.3612519593  MEMB      4               0.0000000000
       357         4  SAPS      C12             3.6574978088        6.3085599362       20.3187397744  MEMB      4               0.0000000000
       358         4  SAPS      H12A            3.7085976233        5.7636238653       21.2434722531  MEMB      4               0.0000000000
       359         4  SAPS      C13             2.6591343093        5.5112283433       19.4432713199  MEMB      4               0.0000000000
       360         4  SAPS      O13A            1.4729538418        5.9482113574       19.4599990865  MEMB      4               0.0000000000
       361         4  SAPS      O13B            2.9639725083        4.3196174187       19.1840517942  MEMB      4               0.0000000000
       362         4  SAPS      C11             5.0987095893        6.3981824740       19.6981574535  MEMB      4               0.0000000000
       363         4  SAPS      H11A            5.0944487773        7.0018164950       18.7558278066  MEMB      4               0.0000000000
       364         4  SAPS      H11B            5.4549284622        5.3910085900       19.3801720831  MEMB      4               0.0000000000
       365         4  SAPS      P               6.9777869204        8.0901106823       20.3599152608  MEMB      4               0.0000000000
       366         4  SAPS      O13             6.0937753947        9.2788962926       20.3381443048  MEMB      4               0.0000000000
       367         4  SAPS      O14             8.1154897823        8.0176255329       21.3068678191  MEMB      4               0.0000000000
       368         4  SAPS      O12             6.0111218610        6.8798930715       20.6944612111  MEMB      4               0.0000000000
       369         4  SAPS      O11             7.3411846294        7.7368843110       18.8585010189  MEMB      4               0.0000000000
       370         4  SAPS      C1              8.6019426019        7.2700037792       18.4415104581  MEMB      4               0.0000000000
       371         4  SAPS      HA              9.3470042588        7.8970664553       18.9468963929  MEMB      4               0.0000000000
       372         4  SAPS      HB              8.7384839176        6.1907074667       18.6862767514  MEMB      4               0.0000000000
       373         4  SAPS      C2              8.8315163821        7.4494350491       16.9287785786  MEMB      4               0.0000000000
       374         4  SAPS      HS              9.8982973217        7.6512554123       16.7255213925  MEMB      4               0.0000000000
       375         4  SAPS      O21             8.0084489925        8.5232949425       16.4462196164  MEMB      4               0.0000000000
       376         4  SAPS      C21             8.1906904992        8.8010937295       15.1905475981  MEMB      4               0.0000000000
       377         4  SAPS      O22             9.0872781378        8.3777503172       14.4760840581  MEMB      4               0.0000000000
       378         4  SAPS      C22             7.0735695333        9.6770880490       14.6974508534  MEMB      4               0.0000000000
       379         4  SAPS      H2R             6.3647749100        9.0330843193       14.1334359374  MEMB      4               0.0000000000
       380         4  SAPS      H2S             6.5214099730       10.1777589164       15.5208291923  MEMB      4               0.0000000000
       381         4  SAPS      C3              8.5293960601        6.1240531708       16.2072305933  MEMB      4               0.0000000000
       382         4  SAPS      HX              9.1053415694        5.3459440091       16.7363729579  MEMB      4               0.0000000000
       383         4  SAPS      HY              8.9005590009        6.1698952283       15.1597818707  MEMB      4               0.0000000000
       384         4  SAPS      O31             7.1290755668        5.8579972372       16.2966163201  MEMB      4               0.0000000000
       385         4  SAPS      C31             6.6989629712        4.8432553778       15.6024064975  MEMB      4               0.0000000000
       386         4  SAPS      O32             7.3926175863        4.0546201999       14.9803036877  MEMB      4               0.0000000000
       387         4  SAPS      C32             5.1930961106        4.9203024784       15.6124425287  MEMB      4               0.0000000000
       388         4  SAPS      H2X             4.8121205957        5.4385145494       16.5126254048  MEMB      4               0.0000000000
       389         4  SAPS      H2Y             4.7697247833        3.9325543540       15.6301919404  MEMB      4               0.0000000000
       390         4  SAPS      C23             7.7109897165       10.6491617309       13.7184528542  MEMB      4               0.0000000000
       391         4  SAPS      H3R             8.4157792948       10.1450879196       13.0152231790  MEMB      4               0.0000000000
       392         4  SAPS      H3S             8.2800390159       11.4339510901       14.2884211983  MEMB      4               0.0000000000
       393         4  SAPS      C24             6.6480667698       11.2165689313       12.8325754274  MEMB      4               0.0000000000
       394         4  SAPS      H4R             5.9361174323       11.6551386536       13.5758538752  MEMB      4               0.0000000000
       395         4  SAPS      H4S             6.0328289495       10.5868615032       12.1840165651  MEMB      4               0.0000000000
       396         4  SAPS      C25             7.4151383387       12.0820716022       11.8950216144  MEMB      4               0.0000000000
       397         4  SAPS      H5R             7.1908314205       13.0369294360       11.9241992494  MEMB      4               0.0000000000
       398         4  SAPS      C26             8.0647994318       11.9955431800       10.7814699142  MEMB      4               0.0000000000
       399         4  SAPS      H6R             8.3626205892       12.9418161261       10.2709817662  MEMB      4               0.0000000000
       400         4  SAPS      C27             8.1520204398       10.6950994078       10.1384351938  MEMB      4               0.0000000000
       401         4  SAPS      H7R             7.5756729191       10.8025759194        9.2078115082  MEMB      4               0.0000000000
       402         4  SAPS      H7S             7.6656002342        9.9268849394       10.7797492598  MEMB      4               0.0000000000
       403         4  SAPS      C28             9.5837619726       10.3537616066        9.9233668777  MEMB      4               0.0000000000
       404         4  SAPS      H8R             9.9835769527        9.6623306024       10.6821351272  MEMB      4               0.0000000000
       405         4  SAPS      C29            10.3845099418       10.8844552788        8.9821456672  MEMB      4               0.0000000000
       406         4  SAPS      H9R            11.3895100876       10.4587318615        8.8903849889  MEMB      4               0.0000000000
       407         4  SAPS      C210           10.0079607213       11.9339664983        7.9522205010  MEMB      4               0.0000000000
       408         4  SAPS      H10R           10.5931346126       12.8609762269        8.1512850672  MEMB      4               0.0000000000
       409         4  SAPS      H10S            8.9425486108       12.2478225691        8.0346024368  MEMB      4               0.0000000000
       410         4  SAPS      C211           10.2843124558       11.5227186107        6.5334641813  MEMB      4               0.0000000000
       411         4  SAPS      H11R           11.2606094675       11.8529715348        6.1472851484  MEMB      4               0.0000000000
       412         4  SAPS      C212            9.4704536766       10.8577419580        5.6916598666  MEMB      4               0.0000000000
       413         4  SAPS      H12R            9.8432422643       10.7091000860        4.6699268377  MEMB      4               0.0000000000
       414         4  SAPS      C213            8.0649178881       10.3364599895        5.9186714049  MEMB      4               0.0000000000
       415         4  SAPS      H13R            7.9070577179        9.9450276385        6.9489259562  MEMB      4               0.0000000000
       416         4  SAPS      H13S            7.8843789340        9.4689502907        5.2455796397  MEMB      4               0.0000000000
       417         4  SAPS      C214            7.0311556658       11.3876926502        5.6453567157  MEMB      4               0.0000000000
       418         4  SAPS      H14R            6.6940406710       11.9517032224        6.5316217967  MEMB      4               0.0000000000
       419         4  SAPS      C215            6.4643471842       11.6354412314        4.4541068226  MEMB      4               0.0000000000
       420         4  SAPS      H15R            5.7555155793       12.4745469581        4.4164027732  MEMB      4               0.0000000000
       421         4  SAPS      C216            6.7151437367       10.9419992747        3.1257935693  MEMB      4               0.0000000000
       422         4  SAPS      H16R            5.7583566500       10.7938811577        2.5785947763  MEMB      4               0.0000000000
       423         4  SAPS      H16S            7.2784112372        9.9918271630        3.1873007084  MEMB      4               0.0000000000
       424         4  SAPS      C217            7.5824761110       11.7652005649        2.2211380820  MEMB      4               0.0000000000
       425         4  SAPS      H17R            8.5701204483       11.9576100855        2.6849023856  MEMB      4               0.0000000000
       426         4  SAPS      H17S            7.0380185679       12.6893824436        2.1250910385  MEMB      4               0.0000000000
       427         4  SAPS      C218            7.8101109499       11.2897880298        0.7983557191  MEMB      4               0.0000000000
       428         4  SAPS      H18R            7.9762244236       10.2123738869        0.7243515769  MEMB      4               0.0000000000
       429         4  SAPS      H18S            8.4747684855       11.9207738343        0.2718209471  MEMB      4               0.0000000000
       430         4  SAPS      C219            6.9825551820       11.8777611505       -0.2608586827  MEMB      4               0.0000000000
       431         4  SAPS      H19R            6.6303086945       12.9058558689       -0.1494081456  MEMB      4               0.0000000000
       432         4  SAPS      H19S            6.3011293498       11.2454446579        0.3742684498  MEMB      4               0.0000000000
       433         4  SAPS      C220            7.0383918356       11.6080471033       -1.8067476705  MEMB      4               0.0000000000
       434         4  SAPS      H20R            7.1683504796       10.5219519857       -2.0738508149  MEMB      4               0.0000000000
       435         4  SAPS      H20S            7.6127955085       12.0576955881       -2.5667640268  MEMB      4               0.0000000000
       436         4  SAPS      H20T            6.1292064366       12.0371640838       -2.2450819561  MEMB      4               0.0000000000
       437         4  SAPS      C33             4.7629971369        5.6655816203       14.3532630436  MEMB      4               0.0000000000
       438         4  SAPS      H3X             5.1114425183        5.1219909061       13.4443226231  MEMB      4               0.0000000000
       439         4  SAPS      H3Y             5.2951910840        6.6431958946       14.3963206778  MEMB      4               0.0000000000
       440         4  SAPS      C34             3.2683417838        5.9781492244       14.2852026075  MEMB      4               0.0000000000
       441         4  SAPS      H4X             2.9269282124        6.3991836862       15.2589269821  MEMB      4               0.0000000000
       442         4  SAPS      H4Y             2.6687677088        5.0545387859       14.1079763045  MEMB      4               0.0000000000
       443         4  SAPS      C35             2.9895459735        6.9970366320       13.1786435369  MEMB      4               0.0000000000
       444         4  SAPS      H5X             3.4568940520        7.9773873478       13.4175137145  MEMB      4               0.0000000000
       445         4  SAPS      H5Y             1.8928372729        7.1685293687       13.0949804242  MEMB      4               0.0000000000
       446         4  SAPS      C36             3.4688695893        6.5195293575       11.8074116850  MEMB      4               0.0000000000
       447         4  SAPS      H6X             3.2915174712        5.4213973461       11.7571149891  MEMB      4               0.0000000000
       448         4  SAPS      H6Y             4.5580330267        6.7092842681       11.6561016472  MEMB      4               0.0000000000
       449         4  SAPS      C37             2.6727800298        7.2409884558       10.7224182035  MEMB      4               0.0000000000
       450         4  SAPS      H7X             2.7954266271        8.3296415966       10.9330014466  MEMB      4               0.0000000000
       451         4  SAPS      H7Y             1.5929075632        6.9983071056       10.8289476829  MEMB      4               0.0000000000
       452         4  SAPS      C38             3.1506824553        6.9408746752        9.2989189681  MEMB      4               0.0000000000
       453         4  SAPS      H8X             4.1899687767        7.3340714093        9.2267042893  MEMB      4               0.0000000000
       454         4  SAPS      H8Y             2.5293974705        7.5043354784        8.5689787409  MEMB      4               0.0000000000
       455         4  SAPS      C39             3.1290119632        5.4557265048        8.9038981002  MEMB      4               0.0000000000
       456         4  SAPS      H9X             2.0970852858        5.1053956063        8.6850265983  MEMB      4               0.0000000000
       457         4  SAPS      H9Y             3.5212275409        4.8348690854        9.7396412766  MEMB      4               0.0000000000
       458         4  SAPS      C310            4.0398523220        5.1407852408        7.7116014505  MEMB      4               0.0000000000
       459         4  SAPS      H10X            3.8402904560        4.0894903247        7.4124980203  MEMB      4               0.0000000000
       460         4  SAPS      H10Y            5.0764771719        5.2065943925        8.1159857632  MEMB      4               0.0000000000
       461         4  SAPS      C311            3.8569893796        6.0129758321        6.4578383890  MEMB      4               0.0000000000
       462         4  SAPS      H11X            4.0469671820        7.0844863681        6.6811896497  MEMB      4               0.0000000000
       463         4  SAPS      H11Y            2.8040286114        5.9455106115        6.1044376885  MEMB      4               0.0000000000
       464         4  SAPS      C312            4.7615779343        5.5861523891        5.2910491533  MEMB      4               0.0000000000
       465         4  SAPS      H12X            4.4396945765        6.1421589145        4.3827501028  MEMB      4               0.0000000000
       466         4  SAPS      H12Y            4.6382802074        4.4989039141        5.0751531252  MEMB      4               0.0000000000
       467         4  SAPS      C313            6.2509997503        5.8272929631        5.5565516333  MEMB      4               0.0000000000
       468         4  SAPS      H13X            6.5633429269        5.1020300184        6.3444544947  MEMB      4               0.0000000000
       469         4  SAPS      H13Y            6.4441717592        6.8445209435        5.9597560692  MEMB      4               0.0000000000
       470         4  SAPS      C314            7.0919566902        5.5799373049        4.2955855674  MEMB      4               0.0000000000
       471         4  SAPS      H14X            6.8400837985        4.5579285353        3.9305290954  MEMB      4               0.0000000000
       472         4  SAPS      H14Y            8.1691714404        5.6270584399        4.5631209914  MEMB      4               0.0000000000
       473         4  SAPS      C315            6.9164533675        6.5965926328        3.1621025730  MEMB      4               0.0000000000
       474         4  SAPS      H15X            7.3381262160        7.5731156249        3.4892258793  MEMB      4               0.0000000000
       475         4  SAPS      H15Y            5.8444312216        6.7514692345        2.9073582864  MEMB      4               0.0000000000
       476         4  SAPS      C316            7.6821063427        6.2147265294        1.8938865450  MEMB      4               0.0000000000
       477         4  SAPS      H16X            7.7108788230        5.1111186865        1.7502853846  MEMB      4               0.0000000000
       478         4  SAPS      H16Y            8.7358797677        6.5509776858        2.0147695395  MEMB      4               0.0000000000
       479         4  SAPS      C317            7.0233740962        6.8698856098        0.6827210487  MEMB      4               0.0000000000
       480         4  SAPS      H17X            7.0154923331        7.9736485226        0.8136632407  MEMB      4               0.0000000000
       481         4  SAPS      H17Y            5.9502331999        6.5746303495        0.7173687644  MEMB      4               0.0000000000
       482         4  SAPS      C318            7.7021236930        6.4922102580       -0.6416434162  MEMB      4               0.0000000000
       483         4  SAPS      H18X            7.2838840007        7.0285844199       -1.5199901746  MEMB      4               0.0000000000
       484         4  SAPS      H18Y            7.6133013365        5.4012543600       -0.8293950189  MEMB      4               0.0000000000
       485         4  SAPS      H18Z            8.7798179186        6.7422844452       -0.5975509207  MEMB      4               0.0000000000
       486         5  SAPS      N              -9.4233518673        2.6221340124       21.2138735919  MEMB      5               0.0000000000
       487         5  SAPS      HN1            -9.9658178439        2.6486814634       20.3209851834  MEMB      5               0.0000000000
       488         5  SAPS      HN2           -10.0056614776        2.2535572783       21.9841528854  MEMB      5               0.0000000000
       489         5  SAPS      HN3            -9.0767129781        3.5613008484       21.4755378891  MEMB      5               0.0000000000
       490         5  SAPS      C12            -8.2774812652        1.6818850936       20.9826572842  MEMB      5               0.0000000000
       491         5  SAPS      H12A           -7.6491058560        2.0932164645       20.2105105610  MEMB      5               0.0000000000
       492         5  SAPS      C13            -7.3861658163        1.3796153773       22.2078069392  MEMB      5               0.0000000000
       493         5  SAPS      O13A           -7.8415222218        1.6716065928       23.3359100535  MEMB      5               0.0000000000
       494         5  SAPS      O13B           -6.5376538522        0.4723903143       22.0514538716  MEMB      5               0.0000000000
       495         5  SAPS      C11            -8.8450812158        0.3012048976       20.5548633265  MEMB      5               0.0000000000
       496         5  SAPS      H11A           -9.4159169051       -0.1100276666       21.3964134668  MEMB      5               0.0000000000
       497         5  SAPS      H11B           -7.9814404969       -0.3992109314       20.4041877018  MEMB      5               0.0000000000
       498         5  SAPS      P              -9.1082387996       -0.0061722710       18.0384647686  MEMB      5               0.0000000000
       499         5  SAPS      O13            -8.0378147704        0.9783763763       17.8117222765  MEMB      5               0.0000000000
       500         5  SAPS      O14            -8.8064571041       -1.4576361945       17.9695846483  MEMB      5               0.0000000000
       501         5  SAPS      O12            -9.7362367384        0.3664586500       19.4384322981  MEMB      5               0.0000000000
       502         5  SAPS      O11           -10.2497023839        0.2777166058       17.0150713024  MEMB      5               0.0000000000
       503         5  SAPS      C1            -10.9989896793        1.4673445393       17.2054563079  MEMB      5               0.0000000000
       504         5  SAPS      HA            -11.6913382278        1.3560621924       18.0605822143  MEMB      5               0.0000000000
       505         5  SAPS      HB            -10.3416361566        2.3769449977       17.2851889594  MEMB      5               0.0000000000
       506         5  SAPS      C2            -11.8654425754        1.7860951726       16.0047854325  MEMB      5               0.0000000000
       507         5  SAPS      HS            -12.5946369809        2.5391490226       16.3658011855  MEMB      5               0.0000000000
       508         5  SAPS      O21           -12.5126053457        0.6244033441       15.4342903487  MEMB      5               0.0000000000
       509         5  SAPS      C21           -13.6708384016        0.6384700910       14.7810382199  MEMB      5               0.0000000000
       510         5  SAPS      O22           -14.4132937996        1.5510875863       14.5372831069  MEMB      5               0.0000000000
       511         5  SAPS      C22           -14.0650815314       -0.6912153347       14.2662311097  MEMB      5               0.0000000000
       512         5  SAPS      H2R           -14.3275086918       -1.3182876560       15.1338834932  MEMB      5               0.0000000000
       513         5  SAPS      H2S           -14.9641813619       -0.4288664706       13.6653469317  MEMB      5               0.0000000000
       514         5  SAPS      C3            -10.9084466014        2.4340332055       15.0094399829  MEMB      5               0.0000000000
       515         5  SAPS      HX            -10.4418722306        3.3953573720       15.2807352158  MEMB      5               0.0000000000
       516         5  SAPS      HY            -11.4679285688        2.6796507629       14.1659727279  MEMB      5               0.0000000000
       517         5  SAPS      O31            -9.9401468175        1.5074980862       14.6531460065  MEMB      5               0.0000000000
       518         5  SAPS      C31           -10.2532049841        0.6089528361       13.7741379293  MEMB      5               0.0000000000
       519         5  SAPS      O32           -11.0953617752        0.5896556757       12.9263034655  MEMB      5               0.0000000000
       520         5  SAPS      C32            -9.3298759529       -0.3984183413       13.8089563146  MEMB      5               0.0000000000
       521         5  SAPS      H2X            -9.1264504751       -0.7161424241       14.8434965127  MEMB      5               0.0000000000
       522         5  SAPS      H2Y            -8.4206203249        0.0894734346       13.3848292061  MEMB      5               0.0000000000
       523         5  SAPS      C23           -13.0546816584       -1.3019086173       13.3190533173  MEMB      5               0.0000000000
       524         5  SAPS      H3R           -12.1039954948       -1.4052037375       13.8735526245  MEMB      5               0.0000000000
       525         5  SAPS      H3S           -12.9049344141       -0.6212054721       12.4454054183  MEMB      5               0.0000000000
       526         5  SAPS      C24           -13.4774730106       -2.6667669056       12.8497081687  MEMB      5               0.0000000000
       527         5  SAPS      H4R           -13.7899540672       -3.2685458545       13.7215143871  MEMB      5               0.0000000000
       528         5  SAPS      H4S           -12.6088635150       -3.1906709323       12.3973238683  MEMB      5               0.0000000000
       529         5  SAPS      C25           -14.6632481824       -2.6044539786       11.9529594528  MEMB      5               0.0000000000
       530         5  SAPS      H5R           -15.5795416529       -2.3135493083       12.4413434944  MEMB      5               0.0000000000
       531         5  SAPS      C26           -14.7037380220       -2.7913075767       10.6394932666  MEMB      5               0.0000000000
       532         5  SAPS      H6R           -15.5913810887       -2.9729591905       10.0669985151  MEMB      5               0.0000000000
       533         5  SAPS      C27           -13.6967013170       -3.0894024673        9.7121861291  MEMB      5               0.0000000000
       534         5  SAPS      H7R           -13.8323574350       -4.1478307682        9.3985241039  MEMB      5               0.0000000000
       535         5  SAPS      H7S           -12.8757779954       -3.0930064085       10.4366663150  MEMB      5               0.0000000000
       536         5  SAPS      C28           -13.3815085626       -2.1403907062        8.5635603616  MEMB      5               0.0000000000
       537         5  SAPS      H8R           -12.8297661278       -1.2469071983        8.8593695948  MEMB      5               0.0000000000
       538         5  SAPS      C29           -13.5230567530       -2.3418322760        7.2501582137  MEMB      5               0.0000000000
       539         5  SAPS      H9R           -13.3226561559       -1.5230495506        6.5601909439  MEMB      5               0.0000000000
       540         5  SAPS      C210          -14.0583122483       -3.5717232049        6.5690822622  MEMB      5               0.0000000000
       541         5  SAPS      H10R          -14.5498010925       -4.2834635004        7.2657771122  MEMB      5               0.0000000000
       542         5  SAPS      H10S          -13.1228222294       -3.9258324149        6.1872878026  MEMB      5               0.0000000000
       543         5  SAPS      C211          -14.8867955136       -3.6540257871        5.3559048698  MEMB      5               0.0000000000
       544         5  SAPS      H11R          -15.9328622163       -3.9352868109        5.3942027752  MEMB      5               0.0000000000
       545         5  SAPS      C212          -14.3928308377       -3.2642153996        4.2313895418  MEMB      5               0.0000000000
       546         5  SAPS      H12R          -15.0773685644       -3.2393684853        3.3521012448  MEMB      5               0.0000000000
       547         5  SAPS      C213          -12.9372527299       -2.6798847299        4.1019621462  MEMB      5               0.0000000000
       548         5  SAPS      H13R          -12.5191048212       -2.0530584882        4.8860349962  MEMB      5               0.0000000000
       549         5  SAPS      H13S          -12.6022499326       -2.3328333207        3.1473346785  MEMB      5               0.0000000000
       550         5  SAPS      C214          -12.0224456040       -3.6953848601        3.9458167802  MEMB      5               0.0000000000
       551         5  SAPS      H14R          -12.6045342466       -4.4204740745        4.4451268825  MEMB      5               0.0000000000
       552         5  SAPS      C215          -10.7540971369       -3.8783783655        3.5960487406  MEMB      5               0.0000000000
       553         5  SAPS      H15R          -10.3438562654       -4.8839447621        3.4481186438  MEMB      5               0.0000000000
       554         5  SAPS      C216           -9.8456212585       -2.8121222735        3.2320139715  MEMB      5               0.0000000000
       555         5  SAPS      H16R           -9.1986071608       -2.8571812367        4.1112341683  MEMB      5               0.0000000000
       556         5  SAPS      H16S          -10.3996089688       -1.8541639908        3.2043830826  MEMB      5               0.0000000000
       557         5  SAPS      C217           -8.7161140964       -2.9207383979        2.2068107194  MEMB      5               0.0000000000
       558         5  SAPS      H17R           -8.0917696112       -3.7794936897        2.2047530180  MEMB      5               0.0000000000
       559         5  SAPS      H17S           -8.1678110711       -1.9586073442        2.2473493593  MEMB      5               0.0000000000
       560         5  SAPS      C218           -9.0614717356       -2.8229818258        0.8407382287  MEMB      5               0.0000000000
       561         5  SAPS      H18R           -9.4288009520       -1.8325762353        0.7162483647  MEMB      5               0.0000000000
       562         5  SAPS      H18S          -10.0941746629       -2.3058425243        1.0617752249  MEMB      5               0.0000000000
       563         5  SAPS      C219           -8.8587483180       -3.9391377468       -0.8363207433  MEMB      5               0.0000000000
       564         5  SAPS      H19R           -9.0592884882       -4.8418683162       -1.2109837285  MEMB      5               0.0000000000
       565         5  SAPS      H19S           -7.8726358442       -3.6123545042       -0.9103267063  MEMB      5               0.0000000000
       566         5  SAPS      C220          -10.2823610881       -4.1015924659       -2.3095798448  MEMB      5               0.0000000000
       567         5  SAPS      H20R           -9.9815792589       -4.3307704086       -3.2689615732  MEMB      5               0.0000000000
       568         5  SAPS      H20S          -10.5703583614       -3.0796943555       -2.7423319117  MEMB      5               0.0000000000
       569         5  SAPS      H20T          -11.2412811787       -3.5373040049       -2.2039269668  MEMB      5               0.0000000000
       570         5  SAPS      C33            -9.8897679188       -1.4767243465       12.8836880584  MEMB      5               0.0000000000
       571         5  SAPS      H3X           -10.1304341308       -1.1329429927       11.8451623218  MEMB      5               0.0000000000
       572         5  SAPS      H3Y           -10.4889137305       -2.2490308016       13.3956155397  MEMB      5               0.0000000000
       573         5  SAPS      C34            -8.8081648518       -2.2358588140       12.4174454301  MEMB      5               0.0000000000
       574         5  SAPS      H4X            -8.5247335919       -2.9960852999       13.2253028717  MEMB      5               0.0000000000
       575         5  SAPS      H4Y            -8.2392879362       -1.2841759525       12.1632372585  MEMB      5               0.0000000000
       576         5  SAPS      C35            -8.6598372591       -3.0065121406       11.1819686795  MEMB      5               0.0000000000
       577         5  SAPS      H5X            -9.5261818482       -3.3992760787       11.6598729843  MEMB      5               0.0000000000
       578         5  SAPS      H5Y            -7.9808033693       -3.8617940221       11.2730063258  MEMB      5               0.0000000000
       579         5  SAPS      C36            -8.4518784943       -2.1964284532        9.8995199313  MEMB      5               0.0000000000
       580         5  SAPS      H6X            -7.3847320638       -2.0621755009        9.7492132584  MEMB      5               0.0000000000
       581         5  SAPS      H6Y            -8.9234597991       -1.2407294654       10.0893032848  MEMB      5               0.0000000000
       582         5  SAPS      C37            -8.7313075984       -2.6770239636        8.4851717189  MEMB      5               0.0000000000
       583         5  SAPS      H7X            -9.5577067387       -3.2678044462        8.5850899106  MEMB      5               0.0000000000
       584         5  SAPS      H7Y            -7.9941525757       -3.3452025828        8.0059702066  MEMB      5               0.0000000000
       585         5  SAPS      C38            -9.2861672326       -1.8248287216        7.4371541331  MEMB      5               0.0000000000
       586         5  SAPS      H8X            -9.7818641497       -0.9625578115        7.9226581646  MEMB      5               0.0000000000
       587         5  SAPS      H8Y           -10.0151667071       -2.4373181777        6.8480370255  MEMB      5               0.0000000000
       588         5  SAPS      C39            -8.1269321573       -1.6376066348        6.5141436070  MEMB      5               0.0000000000
       589         5  SAPS      H9X            -7.8951812147       -2.6130064674        6.0166397818  MEMB      5               0.0000000000
       590         5  SAPS      H9Y            -7.2400700663       -1.3859565680        7.1459200494  MEMB      5               0.0000000000
       591         5  SAPS      C310           -8.5294219999       -0.5265251054        5.5954162127  MEMB      5               0.0000000000
       592         5  SAPS      H10X           -8.9524601536        0.2557195384        6.2718320489  MEMB      5               0.0000000000
       593         5  SAPS      H10Y           -9.3169964445       -0.8002912507        4.8690564186  MEMB      5               0.0000000000
       594         5  SAPS      C311           -7.3557295210        0.0822858552        4.8978753908  MEMB      5               0.0000000000
       595         5  SAPS      H11X           -7.0635002064       -0.4560049913        3.9682609242  MEMB      5               0.0000000000
       596         5  SAPS      H11Y           -6.5125846447       -0.0170009862        5.6001879462  MEMB      5               0.0000000000
       597         5  SAPS      C312           -7.6385876024        1.5431184149        4.5696768251  MEMB      5               0.0000000000
       598         5  SAPS      H12X           -6.7491868481        1.8603401729        4.0282527076  MEMB      5               0.0000000000
       599         5  SAPS      H12Y           -7.8935764508        2.2018218055        5.4121022447  MEMB      5               0.0000000000
       600         5  SAPS      C313           -8.7122334841        1.6755075248        3.5736053028  MEMB      5               0.0000000000
       601         5  SAPS      H13X           -9.7217417906        1.4537376326        3.9750829160  MEMB      5               0.0000000000
       602         5  SAPS      H13Y           -8.3514824262        0.8518811043        2.9317516916  MEMB      5               0.0000000000
       603         5  SAPS      C314           -8.7957545704        2.9741951459        2.8349301458  MEMB      5               0.0000000000
       604         5  SAPS      H14X           -7.8324301763        3.1828874432        2.2792094009  MEMB      5               0.0000000000
       605         5  SAPS      H14Y           -9.0731093261        3.7967690644        3.5085444479  MEMB      5               0.0000000000
       606         5  SAPS      C315           -9.8169261652        3.0617887629        1.7259980349  MEMB      5               0.0000000000
       607         5  SAPS      H15X           -9.4154920406        2.5797842356        0.8390936410  MEMB      5               0.0000000000
       608         5  SAPS      H15Y           -9.4500853021        4.0118057800        1.4980442961  MEMB      5               0.0000000000
       609         5  SAPS      C316          -11.3891922644        3.2729899209        1.8140901424  MEMB      5               0.0000000000
       610         5  SAPS      H16X          -11.7916341764        4.0631550660        2.4254704121  MEMB      5               0.0000000000
       611         5  SAPS      H16Y          -11.4146597132        2.5512122904        2.6580871620  MEMB      5               0.0000000000
       612         5  SAPS      C317          -12.3191056647        3.1780657365        0.3916503470  MEMB      5               0.0000000000
       613         5  SAPS      H17X          -12.4306235228        2.2590750458       -0.2484364222  MEMB      5               0.0000000000
       614         5  SAPS      H17Y          -11.7717175418        2.8603134064       -0.5027330492  MEMB      5               0.0000000000
       615         5  SAPS      C318          -13.8278264505        3.2340837014        0.3973870474  MEMB      5               0.0000000000
       616         5  SAPS      H18X          -14.1880844171        2.8153514523       -0.5895913026  MEMB      5               0.0000000000
       617         5  SAPS      H18Y          -13.9105080861        4.3004568373        0.5999171938  MEMB      5               0.0000000000
       618         5  SAPS      H18Z          -14.3418865212        2.6555350881        1.1963589157  MEMB      5               0.0000000000
       619         6  CHL1      C3              1.1607448079       -9.5405802298       17.2980616223  MEMB      6               0.0000000000
       620         6  CHL1      H3              0.7408993504       -8.5362547455       17.0462613868  MEMB      6               0.0000000000
       621         6  CHL1      O3              1.1416855288       -9.7223803774       18.7016575272  MEMB      6               0.0000000000
       622         6  CHL1      H3'             0.2554244510      -10.0093895208       18.9134230338  MEMB      6               0.0000000000
       623         6  CHL1      C4              0.3279294949      -10.6345897225       16.6249582832  MEMB      6               0.0000000000
       624         6  CHL1      H4A             0.6687005496      -11.6581795627       16.8840853177  MEMB      6               0.0000000000
       625         6  CHL1      H4B            -0.7183949684      -10.5538503662       17.0055715465  MEMB      6               0.0000000000
       626         6  CHL1      C5              0.4102273095      -10.4161201094       15.1349648674  MEMB      6               0.0000000000
       627         6  CHL1      C6             -0.6897739482      -10.2404155090       14.4614458928  MEMB      6               0.0000000000
       628         6  CHL1      H6             -1.5821693046      -10.3938348275       15.0546417086  MEMB      6               0.0000000000
       629         6  CHL1      C7             -0.8007373491       -9.9289267404       12.9913804720  MEMB      6               0.0000000000
       630         6  CHL1      H7A            -1.5710687066      -10.4811292356       12.4630664348  MEMB      6               0.0000000000
       631         6  CHL1      H7B            -1.0877144468       -8.8641583192       12.8752911171  MEMB      6               0.0000000000
       632         6  CHL1      C8              0.4559670006      -10.1616633754       12.2052225899  MEMB      6               0.0000000000
       633         6  CHL1      H8              0.8783044467      -11.1580765769       12.0753213190  MEMB      6               0.0000000000
       634         6  CHL1      C14             0.3357532950       -9.6035770484       10.8007010933  MEMB      6               0.0000000000
       635         6  CHL1      H14             0.1995109665       -8.5020799129       10.9138149821  MEMB      6               0.0000000000
       636         6  CHL1      C15            -0.7921715112      -10.1386451680        9.9333009435  MEMB      6               0.0000000000
       637         6  CHL1      H15A           -0.8029385363      -11.2483828914       10.0353407918  MEMB      6               0.0000000000
       638         6  CHL1      H15B           -1.7790380490       -9.7674177319       10.2380242189  MEMB      6               0.0000000000
       639         6  CHL1      C16            -0.3490213666       -9.7347400541        8.5178321766  MEMB      6               0.0000000000
       640         6  CHL1      H16A           -0.4295722804      -10.6465701744        7.8861558805  MEMB      6               0.0000000000
       641         6  CHL1      H16B           -0.9298257467       -8.9000788883        8.0883026057  MEMB      6               0.0000000000
       642         6  CHL1      C17             1.1351175299       -9.2698933690        8.6065052856  MEMB      6               0.0000000000
       643         6  CHL1      H17             1.1629686823       -8.1713944335        8.7681733588  MEMB      6               0.0000000000
       644         6  CHL1      C13             1.5612395689       -9.8156517247        9.9502501924  MEMB      6               0.0000000000
       645         6  CHL1      C18             1.7181781687      -11.3525344080        9.6346943291  MEMB      6               0.0000000000
       646         6  CHL1      H18A            1.9406823767      -11.9184237269       10.5434280022  MEMB      6               0.0000000000
       647         6  CHL1      H18B            0.9064898123      -11.8649924787        9.1007932251  MEMB      6               0.0000000000
       648         6  CHL1      H18C            2.5963580882      -11.5062973511        8.9921294036  MEMB      6               0.0000000000
       649         6  CHL1      C12             2.6215408268       -9.0263799537       10.7802380082  MEMB      6               0.0000000000
       650         6  CHL1      H12A            3.5992096343       -9.0489611813       10.2785501219  MEMB      6               0.0000000000
       651         6  CHL1      H12B            2.4860122299       -7.9404518595       10.8866902578  MEMB      6               0.0000000000
       652         6  CHL1      C11             2.6652637921       -9.6751098253       12.1888020883  MEMB      6               0.0000000000
       653         6  CHL1      H11A            2.8491486770      -10.7680726925       12.2033297931  MEMB      6               0.0000000000
       654         6  CHL1      H11B            3.2720810676       -9.1755203466       12.8915346623  MEMB      6               0.0000000000
       655         6  CHL1      C9              1.4925686395       -9.5672850657       13.0378337998  MEMB      6               0.0000000000
       656         6  CHL1      H9              1.2568196900       -8.4899305236       13.1161540781  MEMB      6               0.0000000000
       657         6  CHL1      C10             1.7331654043      -10.1925844993       14.4710126625  MEMB      6               0.0000000000
       658         6  CHL1      C19             2.4073940381      -11.5978301607       14.4771540586  MEMB      6               0.0000000000
       659         6  CHL1      H19A            2.4980309622      -12.0771582636       15.4712701298  MEMB      6               0.0000000000
       660         6  CHL1      H19B            1.9098695496      -12.2998458711       13.8113028544  MEMB      6               0.0000000000
       661         6  CHL1      H19C            3.4225583423      -11.5106311238       14.0864373104  MEMB      6               0.0000000000
       662         6  CHL1      C1              2.6012066305       -9.2141730855       15.3011600850  MEMB      6               0.0000000000
       663         6  CHL1      H1A             3.6355098160       -9.1991365496       14.9003488618  MEMB      6               0.0000000000
       664         6  CHL1      H1B             2.2249657541       -8.1790260377       15.1482442354  MEMB      6               0.0000000000
       665         6  CHL1      C2              2.5979614720       -9.5557183965       16.7967046355  MEMB      6               0.0000000000
       666         6  CHL1      H2A             3.1923396871       -8.8373433873       17.4002434989  MEMB      6               0.0000000000
       667         6  CHL1      H2B             3.0015484191      -10.5781225064       16.9515203467  MEMB      6               0.0000000000
       668         6  CHL1      C20             1.9377455839       -9.6230636318        7.3319674279  MEMB      6               0.0000000000
       669         6  CHL1      H20             2.0685573102      -10.7287322105        7.2192231353  MEMB      6               0.0000000000
       670         6  CHL1      C21             3.2993736958       -8.9539647938        7.3943437134  MEMB      6               0.0000000000
       671         6  CHL1      H21A            3.8974013910       -9.1247230067        6.4763863918  MEMB      6               0.0000000000
       672         6  CHL1      H21B            3.8499208895       -9.3537241433        8.2107546689  MEMB      6               0.0000000000
       673         6  CHL1      H21C            3.2412160917       -7.9000023287        7.6995329790  MEMB      6               0.0000000000
       674         6  CHL1      C22             1.2665673406       -9.1520368860        6.0382043183  MEMB      6               0.0000000000
       675         6  CHL1      H22A            0.2084385765       -9.4729431327        6.0774077124  MEMB      6               0.0000000000
       676         6  CHL1      H22B            1.3100111303       -8.0442264053        5.9430857149  MEMB      6               0.0000000000
       677         6  CHL1      C23             1.8004011888       -9.7962564997        4.7558294879  MEMB      6               0.0000000000
       678         6  CHL1      H23A            2.8928232360       -9.6419000534        4.6155003687  MEMB      6               0.0000000000
       679         6  CHL1      H23B            1.6276258434      -10.8922939247        4.8445462700  MEMB      6               0.0000000000
       680         6  CHL1      C24             1.0383196567       -9.1897912789        3.5695142915  MEMB      6               0.0000000000
       681         6  CHL1      H24A           -0.0484259679       -9.4092122190        3.6552786497  MEMB      6               0.0000000000
       682         6  CHL1      H24B            1.1417303938       -8.0818981092        3.6323477258  MEMB      6               0.0000000000
       683         6  CHL1      C25             1.5428031049       -9.6573512269        2.1992834915  MEMB      6               0.0000000000
       684         6  CHL1      H25             2.6492341480       -9.5099540558        2.1730311126  MEMB      6               0.0000000000
       685         6  CHL1      C26             1.2291319571      -11.1293107163        1.9526665679  MEMB      6               0.0000000000
       686         6  CHL1      H26A            1.8849508887      -11.7977546589        2.5478532253  MEMB      6               0.0000000000
       687         6  CHL1      H26B            0.1670099509      -11.3290481514        2.2095016682  MEMB      6               0.0000000000
       688         6  CHL1      H26C            1.3634253168      -11.3323178728        0.8694089141  MEMB      6               0.0000000000
       689         6  CHL1      C27             0.9147208163       -8.8476642462        1.0576028882  MEMB      6               0.0000000000
       690         6  CHL1      H27A           -0.1368303676       -9.1644541800        0.8736320444  MEMB      6               0.0000000000
       691         6  CHL1      H27B            0.9204430928       -7.7694036785        1.3023713385  MEMB      6               0.0000000000
       692         6  CHL1      H27C            1.5075358529       -8.9918316135        0.1286089713  MEMB      6               0.0000000000
       693         7  SLPC      N              10.9608290820        2.7702431894       16.1891157714  MEMB      7               0.0000000000
       694         7  SLPC      C13            11.5631461188        2.7519484369       17.5517634018  MEMB      7               0.0000000000
       695         7  SLPC      H13A           12.6206031017        2.5517161745       17.4976396771  MEMB      7               0.0000000000
       696         7  SLPC      H13B           11.3932893275        3.6687027227       18.0984768591  MEMB      7               0.0000000000
       697         7  SLPC      H13C           11.1274539935        1.9131540931       18.0998247092  MEMB      7               0.0000000000
       698         7  SLPC      C14            11.3812210777        4.0105652179       15.4760001260  MEMB      7               0.0000000000
       699         7  SLPC      H14A           12.4560833285        4.0787574914       15.3742257348  MEMB      7               0.0000000000
       700         7  SLPC      H14B           10.9210776468        4.0956940505       14.4990892539  MEMB      7               0.0000000000
       701         7  SLPC      H14C           11.0713984922        4.8714781076       16.0650793046  MEMB      7               0.0000000000
       702         7  SLPC      C15             9.4819758086        2.8145603363       16.3703914434  MEMB      7               0.0000000000
       703         7  SLPC      H15A            8.9232409607        2.7648428392       15.4339218013  MEMB      7               0.0000000000
       704         7  SLPC      H15B            9.1473251451        2.0199348511       17.0304999295  MEMB      7               0.0000000000
       705         7  SLPC      H15C            9.1970664427        3.7613089586       16.8153573269  MEMB      7               0.0000000000
       706         7  SLPC      C12            11.3871381881        1.5098085201       15.4631406778  MEMB      7               0.0000000000
       707         7  SLPC      H12A           12.3912345745        1.6437471110       15.0934978051  MEMB      7               0.0000000000
       708         7  SLPC      H12B           10.7094497781        1.3496315875       14.6334960040  MEMB      7               0.0000000000
       709         7  SLPC      C11            11.4316580227        0.1964295603       16.2788208242  MEMB      7               0.0000000000
       710         7  SLPC      H11A           12.3694033584        0.1524758018       16.8783895846  MEMB      7               0.0000000000
       711         7  SLPC      H11B           11.4286377139       -0.6327862796       15.5496368098  MEMB      7               0.0000000000
       712         7  SLPC      P               9.9705018214       -1.0557993893       18.1005426483  MEMB      7               0.0000000000
       713         7  SLPC      O13            10.7080126041       -0.8256639754       19.3682775736  MEMB      7               0.0000000000
       714         7  SLPC      O14             8.5033298449       -1.1602528903       18.1130135183  MEMB      7               0.0000000000
       715         7  SLPC      O12            10.2993842670        0.1099781675       17.1110897317  MEMB      7               0.0000000000
       716         7  SLPC      O11            10.5661992203       -2.3015903120       17.4004353064  MEMB      7               0.0000000000
       717         7  SLPC      C1             10.2444186062       -3.6036471115       17.8794707659  MEMB      7               0.0000000000
       718         7  SLPC      HA             10.8827309370       -3.9015419971       18.7309856813  MEMB      7               0.0000000000
       719         7  SLPC      HB              9.1658470708       -3.7619407942       18.1407473730  MEMB      7               0.0000000000
       720         7  SLPC      C2             10.4617533641       -4.5371157589       16.7357037467  MEMB      7               0.0000000000
       721         7  SLPC      HS             10.9455680861       -5.4955743513       17.0504885053  MEMB      7               0.0000000000
       722         7  SLPC      O21            11.3878261227       -4.0668428252       15.7895709272  MEMB      7               0.0000000000
       723         7  SLPC      C21            12.5092358162       -3.8270842196       16.3003574706  MEMB      7               0.0000000000
       724         7  SLPC      O22            12.9246408864       -4.0332751179       17.4296678133  MEMB      7               0.0000000000
       725         7  SLPC      C22            13.3355756331       -3.3786187278       15.2001063404  MEMB      7               0.0000000000
       726         7  SLPC      H2R            13.9090480164       -2.6213846898       15.7842872528  MEMB      7               0.0000000000
       727         7  SLPC      H2S            13.8313879603       -4.3332145746       14.8844527305  MEMB      7               0.0000000000
       728         7  SLPC      C3              8.9998492298       -4.7011775897       16.1379977342  MEMB      7               0.0000000000
       729         7  SLPC      HX              8.3206404066       -5.2167600795       16.8078415355  MEMB      7               0.0000000000
       730         7  SLPC      HY              8.7654071643       -5.4849599364       15.4798353720  MEMB      7               0.0000000000
       731         7  SLPC      O31             8.4377060837       -3.6797469486       15.3631619483  MEMB      7               0.0000000000
       732         7  SLPC      C31             8.9492473673       -3.3429563388       14.2089660421  MEMB      7               0.0000000000
       733         7  SLPC      O32            10.0237117832       -3.5707967830       13.7300746559  MEMB      7               0.0000000000
       734         7  SLPC      C32             8.0834935342       -2.3411321835       13.5771820531  MEMB      7               0.0000000000
       735         7  SLPC      H2X             7.7528261396       -1.7685637904       14.4683225375  MEMB      7               0.0000000000
       736         7  SLPC      H2Y             7.2324435956       -2.7673740218       13.0097381039  MEMB      7               0.0000000000
       737         7  SLPC      C23            12.8500280692       -2.5192327321       14.0235404563  MEMB      7               0.0000000000
       738         7  SLPC      H3R            12.5693254323       -1.5909469746       14.4956005275  MEMB      7               0.0000000000
       739         7  SLPC      H3S            12.0718397516       -3.1419151790       13.5874705521  MEMB      7               0.0000000000
       740         7  SLPC      C24            13.7303558573       -2.1734303367       12.8256626534  MEMB      7               0.0000000000
       741         7  SLPC      H4R            14.6852300553       -1.6800630574       13.1416013260  MEMB      7               0.0000000000
       742         7  SLPC      H4S            13.3807049771       -1.4685612873       12.0564829701  MEMB      7               0.0000000000
       743         7  SLPC      C25            13.9296296396       -3.5164852445       12.1760051914  MEMB      7               0.0000000000
       744         7  SLPC      H5R            14.2872191748       -4.2993202569       12.8667345362  MEMB      7               0.0000000000
       745         7  SLPC      H5S            14.5073311360       -3.3765059832       11.3024062842  MEMB      7               0.0000000000
       746         7  SLPC      C26            13.0207554460       -4.3852092901       11.4422800349  MEMB      7               0.0000000000
       747         7  SLPC      H6R            12.5982754171       -4.9465526717       12.2163942476  MEMB      7               0.0000000000
       748         7  SLPC      H6S            13.6017853742       -5.1610433140       10.8834822302  MEMB      7               0.0000000000
       749         7  SLPC      C27            12.1895924866       -3.4946250203       10.6284045869  MEMB      7               0.0000000000
       750         7  SLPC      H7R            12.8898741224       -2.7724762734       10.1491898769  MEMB      7               0.0000000000
       751         7  SLPC      H7S            11.5031015392       -2.9291933209       11.3098319841  MEMB      7               0.0000000000
       752         7  SLPC      C28            11.5221294238       -4.3196771897        9.5817409222  MEMB      7               0.0000000000
       753         7  SLPC      H8R            10.9159357762       -5.0935054565       10.0314318327  MEMB      7               0.0000000000
       754         7  SLPC      H8S            12.1599119900       -4.9995162311        9.0078248961  MEMB      7               0.0000000000
       755         7  SLPC      C29            10.7076813130       -3.3614130566        8.8032270625  MEMB      7               0.0000000000
       756         7  SLPC      H9R             9.8410968132       -2.9734687994        9.3821737680  MEMB      7               0.0000000000
       757         7  SLPC      C210           10.7760107581       -3.2056782924        7.4759684518  MEMB      7               0.0000000000
       758         7  SLPC      H10R            9.9647437517       -2.6417683988        6.9790649623  MEMB      7               0.0000000000
       759         7  SLPC      C211           11.6667491357       -3.9385651080        6.5169042378  MEMB      7               0.0000000000
       760         7  SLPC      H11R           12.5988335617       -4.1827467175        7.0293092149  MEMB      7               0.0000000000
       761         7  SLPC      H11S           11.8764864087       -3.1191160553        5.8089864612  MEMB      7               0.0000000000
       762         7  SLPC      C212           11.3331402458       -5.2473845476        5.8122149494  MEMB      7               0.0000000000
       763         7  SLPC      H12R           10.9765613491       -6.1031290180        6.3866063801  MEMB      7               0.0000000000
       764         7  SLPC      C213           11.1480659780       -5.3834565349        4.5187883188  MEMB      7               0.0000000000
       765         7  SLPC      H13R           10.6585043171       -6.2499322774        4.0578816897  MEMB      7               0.0000000000
       766         7  SLPC      C214           11.2517757089       -4.2577431166        3.6475541446  MEMB      7               0.0000000000
       767         7  SLPC      H14R           10.4938680839       -3.5107669831        4.0110740964  MEMB      7               0.0000000000
       768         7  SLPC      H14S           10.9535161257       -4.7296540987        2.6859930943  MEMB      7               0.0000000000
       769         7  SLPC      C215           12.5743346104       -3.5985502126        3.3763984133  MEMB      7               0.0000000000
       770         7  SLPC      H15R           12.9437285467       -3.0031599897        4.2172536647  MEMB      7               0.0000000000
       771         7  SLPC      H15S           12.5521324317       -2.8754624143        2.6004599405  MEMB      7               0.0000000000
       772         7  SLPC      C216           13.5631063960       -4.5830410515        2.8449824040  MEMB      7               0.0000000000
       773         7  SLPC      H16R           13.2994328140       -4.8750842682        1.8015516679  MEMB      7               0.0000000000
       774         7  SLPC      H16S           13.5008830812       -5.4845141126        3.4872211402  MEMB      7               0.0000000000
       775         7  SLPC      C217           14.9386937390       -3.9596333751        2.9270429309  MEMB      7               0.0000000000
       776         7  SLPC      H17R           15.6424725097       -4.7311641674        2.6332710812  MEMB      7               0.0000000000
       777         7  SLPC      H17S           15.1580382300       -3.6800687150        3.9818509095  MEMB      7               0.0000000000
       778         7  SLPC      C218           15.2089250313       -2.7886244083        1.9930097060  MEMB      7               0.0000000000
       779         7  SLPC      H18R           14.8335242970       -3.0133700898        0.9711439251  MEMB      7               0.0000000000
       780         7  SLPC      H18S           16.3109960626       -2.6364424268        1.9537656824  MEMB      7               0.0000000000
       781         7  SLPC      H18T           14.7128455887       -1.8735376486        2.3716489869  MEMB      7               0.0000000000
       782         7  SLPC      C33             9.0624397416       -1.5534175541       12.6912495933  MEMB      7               0.0000000000
       783         7  SLPC      H3X             9.3219142322       -2.1221323361       11.7673489837  MEMB      7               0.0000000000
       784         7  SLPC      H3Y            10.0188336571       -1.3738771614       13.2563313538  MEMB      7               0.0000000000
       785         7  SLPC      C34             8.4936384039       -0.2047332968       12.3102437564  MEMB      7               0.0000000000
       786         7  SLPC      H4X             7.9577796586        0.1877374839       13.2084941651  MEMB      7               0.0000000000
       787         7  SLPC      H4Y             7.7726424079       -0.3326352742       11.4776133866  MEMB      7               0.0000000000
       788         7  SLPC      C35             9.5656673920        0.8115686148       11.9195700038  MEMB      7               0.0000000000
       789         7  SLPC      H5X            10.2740661943        0.9129076559       12.7703769563  MEMB      7               0.0000000000
       790         7  SLPC      H5Y             9.0610229734        1.7915863912       11.7717791135  MEMB      7               0.0000000000
       791         7  SLPC      C36            10.4466326337        0.4053159725       10.7336748843  MEMB      7               0.0000000000
       792         7  SLPC      H6X             9.8656149105        0.0616394459        9.8512040662  MEMB      7               0.0000000000
       793         7  SLPC      H6Y            11.0686792625       -0.4516842575       11.0851261164  MEMB      7               0.0000000000
       794         7  SLPC      C37            11.4259237838        1.5195650967       10.3454674043  MEMB      7               0.0000000000
       795         7  SLPC      H7X            11.9711086267        1.8023810620       11.2786089372  MEMB      7               0.0000000000
       796         7  SLPC      H7Y            10.8993451482        2.4309014114        9.9925492576  MEMB      7               0.0000000000
       797         7  SLPC      C38            12.4377307296        1.0777435221        9.2774756048  MEMB      7               0.0000000000
       798         7  SLPC      H8X            12.8290263833        0.0652933390        9.5193364152  MEMB      7               0.0000000000
       799         7  SLPC      H8Y            13.2830139365        1.8022916441        9.2819718031  MEMB      7               0.0000000000
       800         7  SLPC      C39            11.9248244177        1.0340228275        7.8377083372  MEMB      7               0.0000000000
       801         7  SLPC      H9X            11.1083823662        1.7835243471        7.6968007761  MEMB      7               0.0000000000
       802         7  SLPC      H9Y            11.4715304478        0.0347339708        7.6509145777  MEMB      7               0.0000000000
       803         7  SLPC      C310           13.0873692238        1.2613582803        6.8551344405  MEMB      7               0.0000000000
       804         7  SLPC      H10X           13.9477106393        0.5725294267        6.9498597279  MEMB      7               0.0000000000
       805         7  SLPC      H10Y           13.4495493977        2.3148236680        6.8781925354  MEMB      7               0.0000000000
       806         7  SLPC      C311           12.6871528321        0.9788787601        5.4765465398  MEMB      7               0.0000000000
       807         7  SLPC      H11X           12.4935827715       -0.1010240648        5.2918403946  MEMB      7               0.0000000000
       808         7  SLPC      H11Y           13.5120230288        1.3269174023        4.7855328427  MEMB      7               0.0000000000
       809         7  SLPC      C312           11.4542437397        1.7076614533        5.2042315367  MEMB      7               0.0000000000
       810         7  SLPC      H12X           11.5010476124        2.8139560991        5.4381861349  MEMB      7               0.0000000000
       811         7  SLPC      H12Y           10.4609666102        1.2888322856        5.5036391943  MEMB      7               0.0000000000
       812         7  SLPC      C313           11.6444267030        1.5581401840        3.7923434486  MEMB      7               0.0000000000
       813         7  SLPC      H13X           12.5278297298        2.0213769569        3.3407988572  MEMB      7               0.0000000000
       814         7  SLPC      H13Y           10.9795507394        2.3537105154        3.7627936224  MEMB      7               0.0000000000
       815         7  SLPC      C314           11.4137835385        0.2282597866        3.1746914292  MEMB      7               0.0000000000
       816         7  SLPC      H14X           12.3908375241       -0.2836217391        3.0442161517  MEMB      7               0.0000000000
       817         7  SLPC      H14Y           11.3323665678        0.4898075642        2.1606687883  MEMB      7               0.0000000000
       818         7  SLPC      C315           10.3520510034       -0.7254243624        3.7649734106  MEMB      7               0.0000000000
       819         7  SLPC      H15X           10.4364350911       -0.8956470903        4.8247248310  MEMB      7               0.0000000000
       820         7  SLPC      H15Y           10.7487733722       -1.7009604134        3.5343195944  MEMB      7               0.0000000000
       821         7  SLPC      C316            8.8321520390       -0.7343348508        3.2722480637  MEMB      7               0.0000000000
       822         7  SLPC      H16X            8.8970196403        0.2280732987        3.8028050116  MEMB      7               0.0000000000
       823         7  SLPC      H16Y            8.2756148725       -1.4209926277        3.9081760066  MEMB      7               0.0000000000
       824         7  SLPC      C317            8.1935095857       -0.6920501293        1.6960180681  MEMB      7               0.0000000000
       825         7  SLPC      H17X            8.3052410529       -1.4129666310        1.0007664773  MEMB      7               0.0000000000
       826         7  SLPC      H17Y            8.7524814747        0.1008968537        1.2530526793  MEMB      7               0.0000000000
       827         7  SLPC      C318            6.8051044316       -0.6948329991        0.9285140344  MEMB      7               0.0000000000
       828         7  SLPC      H18X            6.7605114605       -0.5062577790       -0.0824052871  MEMB      7               0.0000000000
       829         7  SLPC      H18Y            6.2522891899        0.2179459966        0.9695404451  MEMB      7               0.0000000000
       830         7  SLPC      H18Z            6.0718625970       -1.3955340281        1.2676385423  MEMB      7               0.0000000000
       831         8  OSM       N              10.1744241768       -6.7288004261       22.1281186454  MEMB      8               0.0000000000
       832         8  OSM       C15            11.6155764792       -6.9364308159       22.4829054875  MEMB      8               0.0000000000
       833         8  OSM       H15A           12.0987518567       -6.0124264488       22.7633281216  MEMB      8               0.0000000000
       834         8  OSM       H15B           12.1868741362       -7.3396391010       21.6478447163  MEMB      8               0.0000000000
       835         8  OSM       H15C           11.7250844929       -7.6129785849       23.3145094819  MEMB      8               0.0000000000
       836         8  OSM       C14             9.5641664757       -5.9024254788       23.2193988235  MEMB      8               0.0000000000
       837         8  OSM       H14A            9.5230740846       -6.4617727754       24.1460763717  MEMB      8               0.0000000000
       838         8  OSM       H14B            8.5656116265       -5.5603178101       22.9579606111  MEMB      8               0.0000000000
       839         8  OSM       H14C           10.1249923091       -4.9868863562       23.3954030415  MEMB      8               0.0000000000
       840         8  OSM       C13            10.0770978793       -5.9683319894       20.8446005213  MEMB      8               0.0000000000
       841         8  OSM       H13A           10.8168488503       -5.1899602519       20.7904206782  MEMB      8               0.0000000000
       842         8  OSM       H13B            9.0834741235       -5.5253877580       20.7353974389  MEMB      8               0.0000000000
       843         8  OSM       H13C           10.1664148824       -6.6599934899       20.0038297058  MEMB      8               0.0000000000
       844         8  OSM       C12             9.4935937699       -8.0937125176       21.9525735268  MEMB      8               0.0000000000
       845         8  OSM       H12A            9.6134331665       -8.6163551770       22.8862258474  MEMB      8               0.0000000000
       846         8  OSM       H12B           10.0119801400       -8.6508614032       21.1733466682  MEMB      8               0.0000000000
       847         8  OSM       C11             8.0041498651       -8.1950731979       21.5286058529  MEMB      8               0.0000000000
       848         8  OSM       H11A            7.3733069065       -7.6835553365       22.2947108731  MEMB      8               0.0000000000
       849         8  OSM       H11B            7.6957255784       -9.2676621678       21.5391583112  MEMB      8               0.0000000000
       850         8  OSM       P               6.4873998207       -6.9715711930       19.8068843595  MEMB      8               0.0000000000
       851         8  OSM       O13             5.3687137859       -7.8407968855       20.2324690166  MEMB      8               0.0000000000
       852         8  OSM       O14             6.5339138137       -5.6088735496       20.3703489524  MEMB      8               0.0000000000
       853         8  OSM       O11             6.6192212965       -6.8834906083       18.2203501691  MEMB      8               0.0000000000
       854         8  OSM       O12             7.8352608129       -7.6942154379       20.1982117947  MEMB      8               0.0000000000
       855         8  OSM       C1S             6.8236297449       -8.0263219706       17.3829802650  MEMB      8               0.0000000000
       856         8  OSM       H1S             5.8442942369       -8.3174267135       16.9335521139  MEMB      8               0.0000000000
       857         8  OSM       H1T             7.2376872838       -8.8969207038       17.9300570605  MEMB      8               0.0000000000
       858         8  OSM       NF              7.6714014208       -8.7909176914       15.2194224704  MEMB      8               0.0000000000
       859         8  OSM       HNF             8.4118017661       -9.4341859856       15.1107867992  MEMB      8               0.0000000000
       860         8  OSM       C2S             7.8344169176       -7.7812852908       16.2162076120  MEMB      8               0.0000000000
       861         8  OSM       H2S             7.5036845532       -6.8281788447       15.7422119064  MEMB      8               0.0000000000
       862         8  OSM       C3S             9.3288895085       -7.7729470587       16.6882253565  MEMB      8               0.0000000000
       863         8  OSM       H3S             9.6078442260       -8.7575647954       17.0757009192  MEMB      8               0.0000000000
       864         8  OSM       O3              9.5618022796       -6.9371661016       17.8264422927  MEMB      8               0.0000000000
       865         8  OSM       HO3             8.7197352758       -6.4887303002       18.0063284539  MEMB      8               0.0000000000
       866         8  OSM       C4S            10.1284027261       -7.5970364645       15.3268949392  MEMB      8               0.0000000000
       867         8  OSM       H4S            10.4522188549       -8.5275479482       14.8976760036  MEMB      8               0.0000000000
       868         8  OSM       C5S            10.4424961097       -6.5806987560       14.5092620081  MEMB      8               0.0000000000
       869         8  OSM       H5S            10.2973064443       -5.5578431431       14.6896622020  MEMB      8               0.0000000000
       870         8  OSM       C6S            11.0765734805       -6.1935571022       13.3060698495  MEMB      8               0.0000000000
       871         8  OSM       H6S            11.7599607759       -6.9706919150       13.0085197279  MEMB      8               0.0000000000
       872         8  OSM       H6T            11.6578891169       -5.2726881233       13.6367881762  MEMB      8               0.0000000000
       873         8  OSM       C7S             9.9597382741       -5.7400397741       12.2966735002  MEMB      8               0.0000000000
       874         8  OSM       H7S            10.4913959982       -5.0177363634       11.7235686401  MEMB      8               0.0000000000
       875         8  OSM       H7T             9.1494528258       -5.0051230022       12.4444838354  MEMB      8               0.0000000000
       876         8  OSM       C8S             8.9154447694       -6.7047326642       11.8124607291  MEMB      8               0.0000000000
       877         8  OSM       H8S             8.2761051352       -6.9332031727       12.7127586964  MEMB      8               0.0000000000
       878         8  OSM       H8T             9.4756588112       -7.5752084291       11.4500085200  MEMB      8               0.0000000000
       879         8  OSM       C9S             7.9281292134       -6.1781701290       10.7399617554  MEMB      8               0.0000000000
       880         8  OSM       H9S             7.2010095243       -5.4303494265       11.1444186299  MEMB      8               0.0000000000
       881         8  OSM       H9T             7.4261820803       -7.1032912379       10.4111342762  MEMB      8               0.0000000000
       882         8  OSM       C10S            8.4831878420       -5.5500021015        9.4697741078  MEMB      8               0.0000000000
       883         8  OSM       H10S            9.1587106163       -6.2652897416        8.9464388578  MEMB      8               0.0000000000
       884         8  OSM       H10T            9.0768181231       -4.7373431843        9.8814037277  MEMB      8               0.0000000000
       885         8  OSM       C11S            7.3928544631       -4.9017029320        8.5733199302  MEMB      8               0.0000000000
       886         8  OSM       H11S            6.7723477353       -4.1909700428        9.1581014415  MEMB      8               0.0000000000
       887         8  OSM       H11T            6.7813775744       -5.7078857514        8.1498666132  MEMB      8               0.0000000000
       888         8  OSM       C12S            7.8978412180       -4.0387276505        7.4356788439  MEMB      8               0.0000000000
       889         8  OSM       H12S            8.4633208893       -3.3129627361        8.0096147001  MEMB      8               0.0000000000
       890         8  OSM       H12T            7.2682199724       -3.3405705212        6.8643231614  MEMB      8               0.0000000000
       891         8  OSM       C13S            8.5496080743       -4.8884116029        6.3832859102  MEMB      8               0.0000000000
       892         8  OSM       H13S            9.1716041735       -5.6710585890        6.8812001553  MEMB      8               0.0000000000
       893         8  OSM       H13T            9.1125448046       -4.1933637707        5.7175313580  MEMB      8               0.0000000000
       894         8  OSM       C14S            7.5399887829       -5.5907806571        5.5230397435  MEMB      8               0.0000000000
       895         8  OSM       H14S            6.9594851465       -4.8282488187        4.9668090565  MEMB      8               0.0000000000
       896         8  OSM       H14T            6.8913110732       -6.1293840499        6.2313890288  MEMB      8               0.0000000000
       897         8  OSM       C15S            8.1324012899       -6.6089526152        4.5701704772  MEMB      8               0.0000000000
       898         8  OSM       H15S            8.7077471817       -7.3636952295        5.1590440527  MEMB      8               0.0000000000
       899         8  OSM       H15T            8.8042121816       -6.0977776442        3.8623539904  MEMB      8               0.0000000000
       900         8  OSM       C16S            7.0694653207       -7.2994660994        3.7205996427  MEMB      8               0.0000000000
       901         8  OSM       H16S            6.3223434049       -7.7150795431        4.4232586157  MEMB      8               0.0000000000
       902         8  OSM       H16T            7.5649890456       -8.1265784756        3.1694967902  MEMB      8               0.0000000000
       903         8  OSM       C17S            6.2364595473       -6.4332685350        2.7642470085  MEMB      8               0.0000000000
       904         8  OSM       H17S            5.3445332612       -6.0268178657        3.2668342233  MEMB      8               0.0000000000
       905         8  OSM       H17T            6.0198641597       -7.0079936313        1.8305859883  MEMB      8               0.0000000000
       906         8  OSM       C18S            6.8785531257       -5.2577244413        2.2263146219  MEMB      8               0.0000000000
       907         8  OSM       H18S            6.2848234141       -4.5349562384        1.6204816254  MEMB      8               0.0000000000
       908         8  OSM       H18T            7.6186366273       -5.7247515879        1.5263993438  MEMB      8               0.0000000000
       909         8  OSM       H18U            7.3889948567       -4.6354176524        3.0030960920  MEMB      8               0.0000000000
       910         8  OSM       C1F             6.5970504006       -8.8479118890       14.4776505827  MEMB      8               0.0000000000
       911         8  OSM       OF              5.8618754669       -7.8728100256       14.3843397386  MEMB      8               0.0000000000
       912         8  OSM       C2F             6.3660682930      -10.1445288875       13.7856901840  MEMB      8               0.0000000000
       913         8  OSM       H2F             5.7777148095      -10.8201830103       14.4590318805  MEMB      8               0.0000000000
       914         8  OSM       H2G             7.3127829144      -10.6248008492       13.4751659464  MEMB      8               0.0000000000
       915         8  OSM       C3F             5.6550907700       -9.9150927359       12.4617479064  MEMB      8               0.0000000000
       916         8  OSM       H3F             6.1316963977       -9.2502671596       11.7352559588  MEMB      8               0.0000000000
       917         8  OSM       H3G             4.9602773178       -9.1489676798       12.7363630974  MEMB      8               0.0000000000
       918         8  OSM       C4F             5.2289828652      -11.2930247297       11.9053720299  MEMB      8               0.0000000000
       919         8  OSM       H4F             4.5853171108      -11.8153732116       12.6404598535  MEMB      8               0.0000000000
       920         8  OSM       H4G             6.0986053582      -11.9254467551       11.7118197762  MEMB      8               0.0000000000
       921         8  OSM       C5F             4.5679076435      -11.4485981211       10.5593458088  MEMB      8               0.0000000000
       922         8  OSM       H5F             3.7027262110      -10.9279553521       10.5947150216  MEMB      8               0.0000000000
       923         8  OSM       H5G             4.0940629563      -12.4191155432       10.3461576376  MEMB      8               0.0000000000
       924         8  OSM       C6F             5.1555023033      -10.8158161035        9.3598048778  MEMB      8               0.0000000000
       925         8  OSM       H6F             5.3865998687       -9.7226712363        9.4647382526  MEMB      8               0.0000000000
       926         8  OSM       H6G             4.4277621370      -11.0277456651        8.5355779506  MEMB      8               0.0000000000
       927         8  OSM       C7F             6.2607946025      -11.6597523851        8.9439722972  MEMB      8               0.0000000000
       928         8  OSM       H7F             5.8634269104      -12.6978980977        9.0675571625  MEMB      8               0.0000000000
       929         8  OSM       H7G             7.0273120313      -11.4346018457        9.7109957296  MEMB      8               0.0000000000
       930         8  OSM       C8F             6.5751503570      -11.4050722013        7.4786508935  MEMB      8               0.0000000000
       931         8  OSM       H8F             5.7380804715      -11.7423478855        6.8295186678  MEMB      8               0.0000000000
       932         8  OSM       H8G             7.4276358297      -12.0807758596        7.2695763434  MEMB      8               0.0000000000
       933         8  OSM       C9F             6.8339587732       -9.9388709779        7.2231791247  MEMB      8               0.0000000000
       934         8  OSM       H9F             5.9659284170       -9.2950444465        7.0331025813  MEMB      8               0.0000000000
       935         8  OSM       C10F            8.0388291261       -9.3877035378        7.1535581628  MEMB      8               0.0000000000
       936         8  OSM       H10F            8.1887330391       -8.3217388976        6.9728427446  MEMB      8               0.0000000000
       937         8  OSM       C11F            9.2986807307      -10.1248243367        7.3065614473  MEMB      8               0.0000000000
       938         8  OSM       H11F            9.1714834349      -11.1738626392        7.6361067214  MEMB      8               0.0000000000
       939         8  OSM       H11G           10.0211925474       -9.5938602833        7.9622146584  MEMB      8               0.0000000000
       940         8  OSM       C12F            9.7926923440      -10.1820457000        5.8982945683  MEMB      8               0.0000000000
       941         8  OSM       H12F           10.7773124387      -10.6227414472        6.0096969114  MEMB      8               0.0000000000
       942         8  OSM       H12G           10.0238692300       -9.1816552057        5.4730329147  MEMB      8               0.0000000000
       943         8  OSM       C13F            8.9826444412      -11.0793638023        4.9476730449  MEMB      8               0.0000000000
       944         8  OSM       H13F            8.0087371130      -10.6361554191        4.6885140708  MEMB      8               0.0000000000
       945         8  OSM       H13G            9.0047545144      -12.1561187394        5.2302035255  MEMB      8               0.0000000000
       946         8  OSM       C14F            9.6326645670      -10.9584024788        3.6393215320  MEMB      8               0.0000000000
       947         8  OSM       H14F           10.5913497977      -11.3657429323        3.9713898713  MEMB      8               0.0000000000
       948         8  OSM       H14G            9.6192957342       -9.8480114880        3.5062278858  MEMB      8               0.0000000000
       949         8  OSM       C15F            9.2546057381      -11.7088330175        2.3572932554  MEMB      8               0.0000000000
       950         8  OSM       H15F            8.2771040297      -11.2900639169        2.0560159714  MEMB      8               0.0000000000
       951         8  OSM       H15G            9.1397408628      -12.7112257504        2.7998614895  MEMB      8               0.0000000000
       952         8  OSM       C16F           10.1515471214      -11.6766082672        1.0463107260  MEMB      8               0.0000000000
       953         8  OSM       H16F            9.7917968551      -12.3546546412        0.2402637894  MEMB      8               0.0000000000
       954         8  OSM       H16G           11.1771367298      -12.0950213078        1.0748602209  MEMB      8               0.0000000000
       955         8  OSM       C17F           10.2861078527      -10.1878498382        0.5554450002  MEMB      8               0.0000000000
       956         8  OSM       H17F           11.2083351414       -9.9214883298       -0.0798209130  MEMB      8               0.0000000000
       957         8  OSM       H17G           10.2693846211       -9.4028161035        1.3130511884  MEMB      8               0.0000000000
       958         8  OSM       C18F            9.0610880198       -9.4713872854        0.3714339686  MEMB      8               0.0000000000
       959         8  OSM       H18F            9.1690599683       -8.5225806439       -0.2066192943  MEMB      8               0.0000000000
       960         8  OSM       H18G            8.0494769782       -9.8801627720        0.2671413776  MEMB      8               0.0000000000
       961         8  OSM       H18H            9.4645193131      -10.2792600275       -0.2729736972  MEMB      8               0.0000000000
       962         9  SAPE      N             -11.0661638866       -4.3433042372       19.3782712991  MEMB      9               0.0000000000
       963         9  SAPE      HN1           -10.0340579738       -4.4250573291       19.4420605055  MEMB      9               0.0000000000
       964         9  SAPE      HN2           -11.3688023262       -3.4848665875       18.8642401241  MEMB      9               0.0000000000
       965         9  SAPE      HN3           -11.3890653454       -4.2838417053       20.3672118359  MEMB      9               0.0000000000
       966         9  SAPE      C12           -11.5287916861       -5.6182046633       18.7376164001  MEMB      9               0.0000000000
       967         9  SAPE      H12A          -10.7635998447       -5.9265825076       17.9894910214  MEMB      9               0.0000000000
       968         9  SAPE      H12B          -12.4781897294       -5.3978772850       18.2059010066  MEMB      9               0.0000000000
       969         9  SAPE      C11           -11.7490781719       -6.6946081339       19.8187555218  MEMB      9               0.0000000000
       970         9  SAPE      H11A          -12.1393966623       -7.6381783373       19.3668569304  MEMB      9               0.0000000000
       971         9  SAPE      H11B          -12.5556102905       -6.3450871347       20.4884612337  MEMB      9               0.0000000000
       972         9  SAPE      P              -9.6952032464       -8.1641540035       20.5512312825  MEMB      9               0.0000000000
       973         9  SAPE      O13            -8.3382207274       -7.7521800336       20.9138243799  MEMB      9               0.0000000000
       974         9  SAPE      O14           -10.1744949803       -9.3699683099       21.2564893623  MEMB      9               0.0000000000
       975         9  SAPE      O12           -10.6061589165       -6.8883192664       20.6460424405  MEMB      9               0.0000000000
       976         9  SAPE      O11            -9.7702047671       -8.3359870068       19.0307148137  MEMB      9               0.0000000000
       977         9  SAPE      C1             -8.9817529915       -9.3274019546       18.4705064417  MEMB      9               0.0000000000
       978         9  SAPE      HA             -7.9255746381       -9.0253335105       18.2856096446  MEMB      9               0.0000000000
       979         9  SAPE      HB             -8.9522305972      -10.3124955615       18.9896784610  MEMB      9               0.0000000000
       980         9  SAPE      C2             -9.5821285774       -9.6775761854       17.2000196449  MEMB      9               0.0000000000
       981         9  SAPE      HS             -9.3504851543      -10.5485142642       16.9174495453  MEMB      9               0.0000000000
       982         9  SAPE      O21            -9.4456005986       -8.5389401139       16.2991866187  MEMB      9               0.0000000000
       983         9  SAPE      C21            -8.1775880844       -8.1336718305       15.9663697743  MEMB      9               0.0000000000
       984         9  SAPE      O22            -7.0876062627       -8.5468459289       16.2552009791  MEMB      9               0.0000000000
       985         9  SAPE      C22            -8.1473886643       -7.0645145021       14.9844762583  MEMB      9               0.0000000000
       986         9  SAPE      H2R            -8.5626108356       -6.2824093606       15.6382854898  MEMB      9               0.0000000000
       987         9  SAPE      H2S            -7.0583451580       -6.8550073566       14.7994117869  MEMB      9               0.0000000000
       988         9  SAPE      C3            -10.9948637736      -10.2892431780       17.2089044451  MEMB      9               0.0000000000
       989         9  SAPE      HX            -11.0060390022      -11.1740518280       17.9128012923  MEMB      9               0.0000000000
       990         9  SAPE      HY            -11.1357620333      -10.8977313062       16.2272139992  MEMB      9               0.0000000000
       991         9  SAPE      O31           -11.8109924563       -9.2070742218       17.6539424333  MEMB      9               0.0000000000
       992         9  SAPE      C31           -12.6373412881       -8.9173282760       16.7115420615  MEMB      9               0.0000000000
       993         9  SAPE      O32           -12.9639689873       -9.6429925261       15.9023350395  MEMB      9               0.0000000000
       994         9  SAPE      C32           -13.4050409841       -7.6846768683       16.5796661372  MEMB      9               0.0000000000
       995         9  SAPE      H2X           -12.7263467763       -7.0859538374       17.1596083711  MEMB      9               0.0000000000
       996         9  SAPE      H2Y           -14.3398566312       -8.0567190911       17.0481418924  MEMB      9               0.0000000000
       997         9  SAPE      C23            -8.9748421143       -7.3723069904       13.7155507507  MEMB      9               0.0000000000
       998         9  SAPE      H3R            -9.1235955150       -6.3349526818       13.3060592542  MEMB      9               0.0000000000
       999         9  SAPE      H3S            -9.9708219119       -7.7987260699       13.9258576059  MEMB      9               0.0000000000
      1000         9  SAPE      C24            -8.4628642223       -8.3594039378       12.6603491444  MEMB      9               0.0000000000
      1001         9  SAPE      H4R            -9.1546296578       -8.5009831938       11.8210090825  MEMB      9               0.0000000000
      1002         9  SAPE      H4S            -7.9071172284       -9.2813664938       12.8470719404  MEMB      9               0.0000000000
      1003         9  SAPE      C25            -7.5208863604       -7.5425675424       12.1785696130  MEMB      9               0.0000000000
      1004         9  SAPE      H5R            -6.6496744275       -7.6010805710       12.8696417423  MEMB      9               0.0000000000
      1005         9  SAPE      C26            -7.5277458806       -7.1937045162       10.9130557815  MEMB      9               0.0000000000
      1006         9  SAPE      H6R            -6.8796571684       -6.3435685412       10.8275313631  MEMB      9               0.0000000000
      1007         9  SAPE      C27            -8.3528475035       -7.4587280835        9.6322000724  MEMB      9               0.0000000000
      1008         9  SAPE      H7R            -9.1571409881       -8.1155552847        9.8813745247  MEMB      9               0.0000000000
      1009         9  SAPE      H7S            -7.8186153583       -8.0881877775        8.9769877609  MEMB      9               0.0000000000
      1010         9  SAPE      C28            -8.5753648036       -6.3732291275        8.6478306686  MEMB      9               0.0000000000
      1011         9  SAPE      H8R            -7.9501361266       -5.7527541793        7.9688502639  MEMB      9               0.0000000000
      1012         9  SAPE      C29            -9.1538160837       -5.5359012929        9.2353323229  MEMB      9               0.0000000000
      1013         9  SAPE      H9R            -8.5047405678       -4.6862825234        9.1798557811  MEMB      9               0.0000000000
      1014         9  SAPE      C210           -9.6971291631       -5.5142638117       10.5510305177  MEMB      9               0.0000000000
      1015         9  SAPE      H10R           -8.9838167691       -5.3443587289       11.3446900578  MEMB      9               0.0000000000
      1016         9  SAPE      H10S          -10.0464279206       -6.4793109344       10.8617835422  MEMB      9               0.0000000000
      1017         9  SAPE      C211          -10.7719578901       -4.5102174378       10.2631637507  MEMB      9               0.0000000000
      1018         9  SAPE      H11R          -11.0980180976       -3.9274474031       11.1384206609  MEMB      9               0.0000000000
      1019         9  SAPE      C212          -11.4086478283       -4.2350298648        9.1549674351  MEMB      9               0.0000000000
      1020         9  SAPE      H12R          -11.4419383490       -3.1524806813        9.1794288017  MEMB      9               0.0000000000
      1021         9  SAPE      C213          -11.3672775541       -4.7336881772        7.7617584138  MEMB      9               0.0000000000
      1022         9  SAPE      H13R          -10.4864955644       -5.2469262469        7.4170302851  MEMB      9               0.0000000000
      1023         9  SAPE      H13S          -11.3596333513       -3.7974216525        7.1700080401  MEMB      9               0.0000000000
      1024         9  SAPE      C214          -12.4906385584       -5.6609158026        7.5412574562  MEMB      9               0.0000000000
      1025         9  SAPE      H14R          -13.2784577364       -5.5808588415        8.2916389657  MEMB      9               0.0000000000
      1026         9  SAPE      C215          -12.7444738657       -6.3370485446        6.4176722355  MEMB      9               0.0000000000
      1027         9  SAPE      H15R          -13.8177543620       -6.4165396258        6.2334706584  MEMB      9               0.0000000000
      1028         9  SAPE      C216          -11.9221664747       -6.3039976069        5.1699048995  MEMB      9               0.0000000000
      1029         9  SAPE      H16R          -11.2153798799       -7.1198085379        5.2643620994  MEMB      9               0.0000000000
      1030         9  SAPE      H16S          -11.2014465271       -5.4687222243        5.3055110483  MEMB      9               0.0000000000
      1031         9  SAPE      C217          -12.6967714933       -6.3892136876        3.7652837587  MEMB      9               0.0000000000
      1032         9  SAPE      H17R          -12.6697482157       -5.5710311857        2.9363597341  MEMB      9               0.0000000000
      1033         9  SAPE      H17S          -13.7628704176       -6.4968680191        3.8328364939  MEMB      9               0.0000000000
      1034         9  SAPE      C218          -11.9780721617       -7.2362774202        2.9194423526  MEMB      9               0.0000000000
      1035         9  SAPE      H18R          -10.9162505452       -6.8466634351        3.1440098248  MEMB      9               0.0000000000
      1036         9  SAPE      H18S          -12.4932612159       -7.0605715098        1.9105099591  MEMB      9               0.0000000000
      1037         9  SAPE      C219          -11.9623664921       -8.6309625078        2.9934657693  MEMB      9               0.0000000000
      1038         9  SAPE      H19R          -12.9682920025       -8.7948928527        3.4184037293  MEMB      9               0.0000000000
      1039         9  SAPE      H19S          -11.0993963500       -8.7718976090        3.6710719163  MEMB      9               0.0000000000
      1040         9  SAPE      C220          -11.7669253924       -9.2129405750        1.5986134101  MEMB      9               0.0000000000
      1041         9  SAPE      H20R          -12.6037560189       -8.9510213659        0.9097511168  MEMB      9               0.0000000000
      1042         9  SAPE      H20S          -11.7667466021      -10.2960167057        1.7554240501  MEMB      9               0.0000000000
      1043         9  SAPE      H20T          -10.8086651629       -8.8994936744        1.1158020204  MEMB      9               0.0000000000
      1044         9  SAPE      C33           -13.6732810816       -6.9630405850       15.1728154316  MEMB      9               0.0000000000
      1045         9  SAPE      H3X           -12.7102009158       -6.6241499113       14.7374925695  MEMB      9               0.0000000000
      1046         9  SAPE      H3Y           -14.3214586976       -6.1488701039       15.5255647233  MEMB      9               0.0000000000
      1047         9  SAPE      C34           -14.6397800205       -7.2824705811       13.9918846438  MEMB      9               0.0000000000
      1048         9  SAPE      H4X           -15.3944159003       -8.0799185492       14.0009046492  MEMB      9               0.0000000000
      1049         9  SAPE      H4Y           -13.8655094652       -7.5542114717       13.3031391325  MEMB      9               0.0000000000
      1050         9  SAPE      C35           -15.0320062299       -6.3651860758       12.8478817658  MEMB      9               0.0000000000
      1051         9  SAPE      H5X           -15.6871501977       -5.5824811195       13.2208259393  MEMB      9               0.0000000000
      1052         9  SAPE      H5Y           -15.7934272816       -7.0100172165       12.3217943527  MEMB      9               0.0000000000
      1053         9  SAPE      C36           -13.8354632353       -5.8887853590       11.8863693170  MEMB      9               0.0000000000
      1054         9  SAPE      H6X           -13.3967334959       -5.0652784366       12.4653445914  MEMB      9               0.0000000000
      1055         9  SAPE      H6Y           -14.3877837495       -5.4886022047       11.0111997573  MEMB      9               0.0000000000
      1056         9  SAPE      C37           -12.5057124729       -6.7306734466       11.4471810752  MEMB      9               0.0000000000
      1057         9  SAPE      H7X           -11.8714683812       -7.0314382023       12.2598033578  MEMB      9               0.0000000000
      1058         9  SAPE      H7Y           -11.9825488976       -6.1367149170       10.7958842005  MEMB      9               0.0000000000
      1059         9  SAPE      C38           -12.3300673742       -7.4594697105       10.0430850392  MEMB      9               0.0000000000
      1060         9  SAPE      H8X           -13.2591861140       -6.9352104481        9.7951928117  MEMB      9               0.0000000000
      1061         9  SAPE      H8Y           -12.5627732409       -8.4805626518       10.2046879704  MEMB      9               0.0000000000
      1062         9  SAPE      C39           -11.6433293234       -8.7584951594        9.3835895298  MEMB      9               0.0000000000
      1063         9  SAPE      H9X           -10.8341793589       -9.1047700933       10.0641706180  MEMB      9               0.0000000000
      1064         9  SAPE      H9Y           -11.4496263109       -8.0185165475        8.5853005739  MEMB      9               0.0000000000
      1065         9  SAPE      C310          -12.2744580514      -10.0803026961        8.6406824923  MEMB      9               0.0000000000
      1066         9  SAPE      H10X          -12.8291729115       -9.7655308286        7.6998628122  MEMB      9               0.0000000000
      1067         9  SAPE      H10Y          -13.0174834617      -10.7367954899        9.1566887538  MEMB      9               0.0000000000
      1068         9  SAPE      C311          -11.3231017628      -10.8068500401        7.8390232222  MEMB      9               0.0000000000
      1069         9  SAPE      H11X          -11.8131691135      -11.4836723791        7.0873213760  MEMB      9               0.0000000000
      1070         9  SAPE      H11Y          -10.6947403232      -11.3702583177        8.5459459700  MEMB      9               0.0000000000
      1071         9  SAPE      C312          -10.6980284634       -9.6620880784        7.0989780229  MEMB      9               0.0000000000
      1072         9  SAPE      H12X          -10.0105107927       -9.1059138203        7.7812562461  MEMB      9               0.0000000000
      1073         9  SAPE      H12Y          -11.3782333823       -8.8631206010        6.7054385917  MEMB      9               0.0000000000
      1074         9  SAPE      C313          -10.1322844420      -10.2977675708        5.9151717097  MEMB      9               0.0000000000
      1075         9  SAPE      H13X          -10.7800081524      -10.3833293370        5.0336728807  MEMB      9               0.0000000000
      1076         9  SAPE      H13Y           -9.6956540114      -11.2959411138        6.1552290881  MEMB      9               0.0000000000
      1077         9  SAPE      C314           -9.2728355212       -9.3638067847        5.2806361380  MEMB      9               0.0000000000
      1078         9  SAPE      H14X           -8.6052189422       -8.9972286770        6.0157930155  MEMB      9               0.0000000000
      1079         9  SAPE      H14Y           -9.3146103751       -8.2584340791        5.5053765575  MEMB      9               0.0000000000
      1080         9  SAPE      C315           -8.5373233470      -10.1414299552        4.0760232305  MEMB      9               0.0000000000
      1081         9  SAPE      H15X           -8.9505095765      -10.6675268550        3.2785801201  MEMB      9               0.0000000000
      1082         9  SAPE      H15Y           -7.9730711461      -11.0346483030        4.3737915840  MEMB      9               0.0000000000
      1083         9  SAPE      C316           -7.8631697490       -9.0760788638        3.2631101279  MEMB      9               0.0000000000
      1084         9  SAPE      H16X           -7.6129431393       -8.7732011458        4.2625745884  MEMB      9               0.0000000000
      1085         9  SAPE      H16Y           -8.1524145390       -8.3088178239        4.0187070688  MEMB      9               0.0000000000
      1086         9  SAPE      C317           -6.5099009667       -8.9905422761        2.0447484587  MEMB      9               0.0000000000
      1087         9  SAPE      H17X           -7.1319448199       -9.0698679519        1.1785243627  MEMB      9               0.0000000000
      1088         9  SAPE      H17Y           -6.0046920957       -9.8568302171        2.4824317149  MEMB      9               0.0000000000
      1089         9  SAPE      C318           -5.1901950085       -7.8185409461        1.5141253240  MEMB      9               0.0000000000
      1090         9  SAPE      H18X           -4.4263355841       -7.8521909630        0.7626121617  MEMB      9               0.0000000000
      1091         9  SAPE      H18Y           -4.3788193971       -7.5953193657        2.1882502761  MEMB      9               0.0000000000
      1092         9  SAPE      H18Z           -5.2126467700       -6.7145823938        1.8815195320  MEMB      9               0.0000000000
      1093        10  OSM       N              -7.6996517413      -11.1361801659       22.8734269843  MEMB      10              0.0000000000
      1094        10  OSM       C15            -6.5741263333      -12.0648464181       23.1101783187  MEMB      10              0.0000000000
      1095        10  OSM       H15A           -6.8596638629      -12.8538028390       23.7799222695  MEMB      10              0.0000000000
      1096        10  OSM       H15B           -5.7409195280      -11.4992562864       23.5035691232  MEMB      10              0.0000000000
      1097        10  OSM       H15C           -6.2490063536      -12.4930203478       22.1568434956  MEMB      10              0.0000000000
      1098        10  OSM       C14            -8.9115950442      -11.8978237554       22.4415737724  MEMB      10              0.0000000000
      1099        10  OSM       H14A           -9.2524375839      -12.5118202407       23.2650493540  MEMB      10              0.0000000000
      1100        10  OSM       H14B           -8.6613352258      -12.4966698631       21.5802978349  MEMB      10              0.0000000000
      1101        10  OSM       H14C           -9.6737690125      -11.1715463501       22.1428636809  MEMB      10              0.0000000000
      1102        10  OSM       C13            -8.0488750270      -10.3980096214       24.1210700325  MEMB      10              0.0000000000
      1103        10  OSM       H13A           -8.8461331450       -9.6962891543       23.8783334653  MEMB      10              0.0000000000
      1104        10  OSM       H13B           -7.2206366480       -9.8075327503       24.5022116755  MEMB      10              0.0000000000
      1105        10  OSM       H13C           -8.3776908722      -11.0929620568       24.8739908887  MEMB      10              0.0000000000
      1106        10  OSM       C12            -7.2743419938      -10.1020288690       21.8755352335  MEMB      10              0.0000000000
      1107        10  OSM       H12A           -6.3865438826       -9.5969253396       22.2232924159  MEMB      10              0.0000000000
      1108        10  OSM       H12B           -8.0259301455       -9.3220663789       21.8363230097  MEMB      10              0.0000000000
      1109        10  OSM       C11            -6.9474692843      -10.5322474902       20.4572863683  MEMB      10              0.0000000000
      1110        10  OSM       H11A           -6.9048342439       -9.6127869376       19.8318919468  MEMB      10              0.0000000000
      1111        10  OSM       H11B           -7.7498438130      -11.2258074262       20.1168860114  MEMB      10              0.0000000000
      1112        10  OSM       P              -5.4191098990      -12.1830015929       19.3023215637  MEMB      10              0.0000000000
      1113        10  OSM       O13            -3.9562494199      -12.2784512498       19.1319115974  MEMB      10              0.0000000000
      1114        10  OSM       O14            -6.2257411002      -13.4091623685       19.5975663849  MEMB      10              0.0000000000
      1115        10  OSM       O11            -6.0684575518      -11.3851722675       18.0393456183  MEMB      10              0.0000000000
      1116        10  OSM       O12            -5.6810556237      -11.1308129366       20.4259521315  MEMB      10              0.0000000000
      1117        10  OSM       C1S            -6.0522198780      -12.1581794548       16.8361719896  MEMB      10              0.0000000000
      1118        10  OSM       H1S            -6.5049158867      -13.1345162780       17.0969173385  MEMB      10              0.0000000000
      1119        10  OSM       H1T            -5.0815275989      -12.1472473371       16.3979881858  MEMB      10              0.0000000000
      1120        10  OSM       NF             -5.7914847417      -10.5391513728       14.9536804316  MEMB      10              0.0000000000
      1121        10  OSM       HNF            -6.1248205685       -9.6068445581       15.0211846063  MEMB      10              0.0000000000
      1122        10  OSM       C2S            -6.5625347137      -11.6401156312       15.4436236137  MEMB      10              0.0000000000
      1123        10  OSM       H2S            -6.7731154366      -12.3958413034       14.6545184513  MEMB      10              0.0000000000
      1124        10  OSM       C3S            -7.8149482664      -11.3346864252       15.8001611261  MEMB      10              0.0000000000
      1125        10  OSM       H3S            -7.5765962171      -10.5735005233       16.5765961053  MEMB      10              0.0000000000
      1126        10  OSM       O3             -8.5632006825      -12.4017208261       16.4501233277  MEMB      10              0.0000000000
      1127        10  OSM       HO3            -8.1519399407      -12.4157110462       17.3323279331  MEMB      10              0.0000000000
      1128        10  OSM       C4S            -8.5355031373      -10.7798809780       14.5933398814  MEMB      10              0.0000000000
      1129        10  OSM       H4S            -8.6589365668       -9.7190814543       14.4798940408  MEMB      10              0.0000000000
      1130        10  OSM       C5S            -9.4008143299      -11.3821615079       13.8478019910  MEMB      10              0.0000000000
      1131        10  OSM       H5S            -9.6783602007      -12.3669684166       14.2043365158  MEMB      10              0.0000000000
      1132        10  OSM       C6S           -10.0732700072      -10.7958447284       12.6371188408  MEMB      10              0.0000000000
      1133        10  OSM       H6S           -10.2125565248       -9.7374201538       12.5136167006  MEMB      10              0.0000000000
      1134        10  OSM       H6T           -11.0442624424      -11.1509842269       12.4169342331  MEMB      10              0.0000000000
      1135        10  OSM       C7S            -9.3922481925      -11.3714891555       11.4715909687  MEMB      10              0.0000000000
      1136        10  OSM       H7S            -8.2882847568      -11.3114441290       11.5598563442  MEMB      10              0.0000000000
      1137        10  OSM       H7T            -9.8408382328      -11.0887930391       10.4919387792  MEMB      10              0.0000000000
      1138        10  OSM       C8S            -9.6084527250      -12.7927375198       11.4880528376  MEMB      10              0.0000000000
      1139        10  OSM       H8S           -10.5932564485      -13.1447157555       11.8121693916  MEMB      10              0.0000000000
      1140        10  OSM       H8T            -8.9363677935      -13.1652031446       12.3207143500  MEMB      10              0.0000000000
      1141        10  OSM       C9S            -9.2930777778      -13.2493052892       10.0614684607  MEMB      10              0.0000000000
      1142        10  OSM       H9S            -9.9054603085      -13.2677350871        9.1666205389  MEMB      10              0.0000000000
      1143        10  OSM       H9T            -9.9188357934      -14.1338080949       10.1329897309  MEMB      10              0.0000000000
      1144        10  OSM       C10S           -7.7742352923      -13.4126239749        9.8149422063  MEMB      10              0.0000000000
      1145        10  OSM       H10S           -7.1554189191      -13.8168338642       10.6452797426  MEMB      10              0.0000000000
      1146        10  OSM       H10T           -7.3219070960      -12.4457099625        9.8502246229  MEMB      10              0.0000000000
      1147        10  OSM       C11S           -7.4651502035      -14.0978116170        8.4925969820  MEMB      10              0.0000000000
      1148        10  OSM       H11S           -8.1308110590      -13.8077471666        7.6942298994  MEMB      10              0.0000000000
      1149        10  OSM       H11T           -7.3602585088      -15.2174102395        8.4557699515  MEMB      10              0.0000000000
      1150        10  OSM       C12S           -6.1188708927      -13.8445022733        8.1819691143  MEMB      10              0.0000000000
      1151        10  OSM       H12S           -5.6806220781      -14.5959323247        8.8106996685  MEMB      10              0.0000000000
      1152        10  OSM       H12T           -5.7517468172      -12.8896685513        8.4475164876  MEMB      10              0.0000000000
      1153        10  OSM       C13S           -5.6827149437      -14.2494055442        6.9102943538  MEMB      10              0.0000000000
      1154        10  OSM       H13S           -6.0905000014      -15.2770362463        6.8424527236  MEMB      10              0.0000000000
      1155        10  OSM       H13T           -4.5784740434      -14.3913160125        6.7773302300  MEMB      10              0.0000000000
      1156        10  OSM       C14S           -6.3447056967      -13.2202249426        6.0510133419  MEMB      10              0.0000000000
      1157        10  OSM       H14S           -5.6285882906      -12.3757175704        5.9374420069  MEMB      10              0.0000000000
      1158        10  OSM       H14T           -7.4243453217      -13.1038892122        6.1677572211  MEMB      10              0.0000000000
      1159        10  OSM       C15S           -6.5846490765      -13.7761830629        4.7836604073  MEMB      10              0.0000000000
      1160        10  OSM       H15S           -6.9638521813      -14.7429365795        5.0936767012  MEMB      10              0.0000000000
      1161        10  OSM       H15T           -5.4280508480      -13.7745373133        4.7672734358  MEMB      10              0.0000000000
      1162        10  OSM       C16S           -7.5113318157      -13.6054187123        3.4034955738  MEMB      10              0.0000000000
      1163        10  OSM       H16S           -7.0664930783      -12.5712400279        3.3846789196  MEMB      10              0.0000000000
      1164        10  OSM       H16T           -8.4545203444      -13.1508952775        3.6638533663  MEMB      10              0.0000000000
      1165        10  OSM       C17S           -7.3138791973      -14.6826827954        1.7879622020  MEMB      10              0.0000000000
      1166        10  OSM       H17S           -7.9773197173      -14.2400038820        1.0561383856  MEMB      10              0.0000000000
      1167        10  OSM       H17T           -7.8692552386      -15.5480032824        2.1213737748  MEMB      10              0.0000000000
      1168        10  OSM       C18S           -5.7163309505      -15.1922274158        0.7871524679  MEMB      10              0.0000000000
      1169        10  OSM       H18S           -5.4408703499      -15.1831290652       -0.2271419994  MEMB      10              0.0000000000
      1170        10  OSM       H18T           -4.7851373894      -15.6038869707        1.2991174921  MEMB      10              0.0000000000
      1171        10  OSM       H18U           -4.9343566989      -14.3683072498        0.6432378624  MEMB      10              0.0000000000
      1172        10  OSM       C1F            -4.8866303735      -10.8875798903       14.1390419210  MEMB      10              0.0000000000
      1173        10  OSM       OF             -5.0036091192      -11.9783310408       13.6009044758  MEMB      10              0.0000000000
      1174        10  OSM       C2F            -3.9398876990       -9.8632073919       13.7386463371  MEMB      10              0.0000000000
      1175        10  OSM       H2F            -2.9826084489       -9.9368874422       14.1499250380  MEMB      10              0.0000000000
      1176        10  OSM       H2G            -4.2851354375       -8.8787403392       14.1071351657  MEMB      10              0.0000000000
      1177        10  OSM       C3F            -3.9074963097      -10.0401969350       12.2406155740  MEMB      10              0.0000000000
      1178        10  OSM       H3F            -3.4684363107      -10.9043660889       11.7480926460  MEMB      10              0.0000000000
      1179        10  OSM       H3G            -3.2331525528       -9.3206857004       11.7305262365  MEMB      10              0.0000000000
      1180        10  OSM       C4F            -5.3499114976      -10.0931448255       11.8235501832  MEMB      10              0.0000000000
      1181        10  OSM       H4F            -5.5784699911       -9.1683174659       12.3935075924  MEMB      10              0.0000000000
      1182        10  OSM       H4G            -6.2438331152      -10.5508892453       12.2354130374  MEMB      10              0.0000000000
      1183        10  OSM       C5F            -5.3192581144      -10.3348644515       10.3800372460  MEMB      10              0.0000000000
      1184        10  OSM       H5F            -4.8913411781      -11.2721936166       10.0173547518  MEMB      10              0.0000000000
      1185        10  OSM       H5G            -4.4902066907       -9.6823604189       10.0207630559  MEMB      10              0.0000000000
      1186        10  OSM       C6F            -6.6826669573      -10.1812334191        9.7920019898  MEMB      10              0.0000000000
      1187        10  OSM       H6F            -7.2260304119       -9.3713229396       10.1630745120  MEMB      10              0.0000000000
      1188        10  OSM       H6G            -7.5835409772      -10.7156508877       10.0095113150  MEMB      10              0.0000000000
      1189        10  OSM       C7F            -6.3774133987      -10.2420546545        8.3770478775  MEMB      10              0.0000000000
      1190        10  OSM       H7F            -6.1471268345      -11.2712675059        8.3490192714  MEMB      10              0.0000000000
      1191        10  OSM       H7G            -5.5272111648       -9.6190850879        8.0144984759  MEMB      10              0.0000000000
      1192        10  OSM       C8F            -7.4846546666      -10.0183100576        7.5610855434  MEMB      10              0.0000000000
      1193        10  OSM       H8F            -7.5935391866       -9.0150542383        7.4773948858  MEMB      10              0.0000000000
      1194        10  OSM       H8G            -8.4997531494      -10.3146636902        7.8661017771  MEMB      10              0.0000000000
      1195        10  OSM       C9F            -6.8306597907      -10.5077677823        6.3495653898  MEMB      10              0.0000000000
      1196        10  OSM       H9F            -7.6073958091      -11.2377298282        6.1403224855  MEMB      10              0.0000000000
      1197        10  OSM       C10F           -6.0765919478      -10.0622583452        5.3163350000  MEMB      10              0.0000000000
      1198        10  OSM       H10F           -6.0692742113      -10.6066478355        4.3769420957  MEMB      10              0.0000000000
      1199        10  OSM       C11F           -5.6168447652       -8.7257014029        4.9873794788  MEMB      10              0.0000000000
      1200        10  OSM       H11F           -4.5143010752       -8.7246129831        5.1899523755  MEMB      10              0.0000000000
      1201        10  OSM       H11G           -6.3821761544       -8.0713051598        5.4235337729  MEMB      10              0.0000000000
      1202        10  OSM       C12F           -5.9077183971       -7.5185722001        3.9577876066  MEMB      10              0.0000000000
      1203        10  OSM       H12F           -5.1395854468       -8.2780731126        3.5775818308  MEMB      10              0.0000000000
      1204        10  OSM       H12G           -5.5476478994       -6.5955518203        4.0521238092  MEMB      10              0.0000000000
      1205        10  OSM       C13F           -7.1366928359       -6.5931587914        3.2129138949  MEMB      10              0.0000000000
      1206        10  OSM       H13F           -7.3225209400       -5.7297590290        3.8214895278  MEMB      10              0.0000000000
      1207        10  OSM       H13G           -8.2067474447       -6.8952496900        3.2151343501  MEMB      10              0.0000000000
      1208        10  OSM       C14F           -7.5434157178       -6.4432678600        1.6880239171  MEMB      10              0.0000000000
      1209        10  OSM       H14F           -8.2689377788       -5.7090440137        1.9859245289  MEMB      10              0.0000000000
      1210        10  OSM       H14G           -8.1136616134       -7.2674929399        1.1607403937  MEMB      10              0.0000000000
      1211        10  OSM       C15F           -6.6422184150       -5.6543749031        0.7173284138  MEMB      10              0.0000000000
      1212        10  OSM       H15F           -5.9087911349       -6.2475674127        0.1700396621  MEMB      10              0.0000000000
      1213        10  OSM       H15G           -6.1619396763       -4.7891939342        1.1991454190  MEMB      10              0.0000000000
      1214        10  OSM       C16F           -6.9333928941       -5.6588217408       -0.7118407984  MEMB      10              0.0000000000
      1215        10  OSM       H16F           -6.4855399008       -4.8046471011       -1.2689237882  MEMB      10              0.0000000000
      1216        10  OSM       H16G           -7.6603541455       -5.3287746801        0.0054690060  MEMB      10              0.0000000000
      1217        10  OSM       C17F           -7.8222987443       -6.6617553528       -1.4187647645  MEMB      10              0.0000000000
      1218        10  OSM       H17F           -8.7999202742       -7.0096022248       -1.0766022216  MEMB      10              0.0000000000
      1219        10  OSM       H17G           -7.3343327100       -7.5649217883       -1.1326918518  MEMB      10              0.0000000000
      1220        10  OSM       C18F           -8.0841663684       -6.1661215673       -2.8319741406  MEMB      10              0.0000000000
      1221        10  OSM       H18F           -8.3842292874       -6.9251424862       -3.5495026109  MEMB      10              0.0000000000
      1222        10  OSM       H18G           -7.1970452547       -5.5996173379       -3.1876958816  MEMB      10              0.0000000000
      1223        10  OSM       H18H           -8.9993020384       -5.7099906385       -2.9581896697  MEMB      10              0.0000000000
      1224        11  SOPE      N              -0.2089911585       11.7419735455       18.6262496815  MEMB      11              0.0000000000
      1225        11  SOPE      HN1            -0.1369715724       10.7693814458       18.9744820178  MEMB      11              0.0000000000
      1226        11  SOPE      HN2            -1.2049974511       12.0530833178       18.6973045825  MEMB      11              0.0000000000
      1227        11  SOPE      HN3             0.1059298490       11.7652793714       17.6330394059  MEMB      11              0.0000000000
      1228        11  SOPE      C12             0.6227787347       12.6535443462       19.4990758720  MEMB      11              0.0000000000
      1229        11  SOPE      H12A            0.4269599529       13.7038256296       19.1958454158  MEMB      11              0.0000000000
      1230        11  SOPE      H12B            1.6924912901       12.4496726993       19.2859432110  MEMB      11              0.0000000000
      1231        11  SOPE      C11             0.3019494570       12.3878706392       20.9883089534  MEMB      11              0.0000000000
      1232        11  SOPE      H11A            1.0696103252       12.8675429017       21.6446569675  MEMB      11              0.0000000000
      1233        11  SOPE      H11B            0.3547577268       11.3077475317       21.2186852320  MEMB      11              0.0000000000
      1234        11  SOPE      P              -1.3942771194       14.2213462569       21.8108676454  MEMB      11              0.0000000000
      1235        11  SOPE      O13            -1.6417938389       14.3247403004       23.2527887695  MEMB      11              0.0000000000
      1236        11  SOPE      O14            -2.3742723320       14.7734093250       20.8579074352  MEMB      11              0.0000000000
      1237        11  SOPE      O12            -1.0268773636       12.7646352786       21.3212198669  MEMB      11              0.0000000000
      1238        11  SOPE      O11             0.0148759633       14.8720523771       21.6572215760  MEMB      11              0.0000000000
      1239        11  SOPE      C1              0.0114440079       16.2557946823       21.6600061269  MEMB      11              0.0000000000
      1240        11  SOPE      HA              0.9140565268       16.6585165371       22.1494759401  MEMB      11              0.0000000000
      1241        11  SOPE      HB             -0.6966931288       16.8513438349       22.3397658958  MEMB      11              0.0000000000
      1242        11  SOPE      C2              0.0667901533       16.5600213646       20.1638729715  MEMB      11              0.0000000000
      1243        11  SOPE      HS             -0.8553183130       16.9915690275       20.6478281887  MEMB      11              0.0000000000
      1244        11  SOPE      O21            -0.5867388773       16.1013699580       19.0272747241  MEMB      11              0.0000000000
      1245        11  SOPE      C21            -1.7382258167       16.6527015573       18.6785954285  MEMB      11              0.0000000000
      1246        11  SOPE      O22            -2.3014476757       17.6406210722       19.1139336530  MEMB      11              0.0000000000
      1247        11  SOPE      C22            -2.2322020349       15.6526118913       17.7427315984  MEMB      11              0.0000000000
      1248        11  SOPE      H2R            -3.1965386555       15.3533152178       18.1962422998  MEMB      11              0.0000000000
      1249        11  SOPE      H2S            -1.5390854450       14.7778039317       17.7675053601  MEMB      11              0.0000000000
      1250        11  SOPE      C3              1.6271759610       16.2573427803       19.9692807243  MEMB      11              0.0000000000
      1251        11  SOPE      HX              2.0523348989       15.4837103047       20.5637493076  MEMB      11              0.0000000000
      1252        11  SOPE      HY              2.3050204186       17.0281798053       20.4033247008  MEMB      11              0.0000000000
      1253        11  SOPE      O31             1.9139740034       15.8159607664       18.5938353860  MEMB      11              0.0000000000
      1254        11  SOPE      C31             3.0862101422       15.4556640370       18.0064793937  MEMB      11              0.0000000000
      1255        11  SOPE      O32             3.8379068991       14.6737226808       18.5591011645  MEMB      11              0.0000000000
      1256        11  SOPE      C32             3.1456131244       15.8331176570       16.4687173713  MEMB      11              0.0000000000
      1257        11  SOPE      H2X             3.8943222197       16.6255973416       16.2266071951  MEMB      11              0.0000000000
      1258        11  SOPE      H2Y             2.1594363171       16.1224892510       16.0571731246  MEMB      11              0.0000000000
      1259        11  SOPE      C23            -2.2944042514       16.2522299305       16.3554930686  MEMB      11              0.0000000000
      1260        11  SOPE      H3R            -1.2955136901       16.5929302011       15.9947357249  MEMB      11              0.0000000000
      1261        11  SOPE      H3S            -2.9863355895       17.1251428771       16.3867985251  MEMB      11              0.0000000000
      1262        11  SOPE      C24            -2.7783823556       15.1783766473       15.4047749442  MEMB      11              0.0000000000
      1263        11  SOPE      H4R            -1.9617179447       14.4306864616       15.2831963911  MEMB      11              0.0000000000
      1264        11  SOPE      H4S            -3.6461236784       14.6539290554       15.8699756866  MEMB      11              0.0000000000
      1265        11  SOPE      C25            -3.2075746544       15.7305880408       14.0532619134  MEMB      11              0.0000000000
      1266        11  SOPE      H5R            -3.9375544664       16.5630037416       14.1858857915  MEMB      11              0.0000000000
      1267        11  SOPE      H5S            -2.3211547692       16.1000713400       13.4948312718  MEMB      11              0.0000000000
      1268        11  SOPE      C26            -3.8646156169       14.6290880714       13.2395509673  MEMB      11              0.0000000000
      1269        11  SOPE      H6R            -3.3094541161       13.6841393960       13.4416969356  MEMB      11              0.0000000000
      1270        11  SOPE      H6S            -4.9072436270       14.5179479312       13.6071089063  MEMB      11              0.0000000000
      1271        11  SOPE      C27            -3.8734465648       14.9132121151       11.7382305452  MEMB      11              0.0000000000
      1272        11  SOPE      H7R            -4.4070286903       15.8747840225       11.5376985907  MEMB      11              0.0000000000
      1273        11  SOPE      H7S            -2.8491213629       14.9626721477       11.3301682937  MEMB      11              0.0000000000
      1274        11  SOPE      C28            -4.5952141700       13.8224414690       10.9719968996  MEMB      11              0.0000000000
      1275        11  SOPE      H8R            -5.4870763449       13.7300237582       11.5214031701  MEMB      11              0.0000000000
      1276        11  SOPE      H8S            -4.9007960431       14.1838588186        9.9650207773  MEMB      11              0.0000000000
      1277        11  SOPE      C29            -4.2237850128       12.3955441865       11.1164060750  MEMB      11              0.0000000000
      1278        11  SOPE      H91            -4.3398375436       11.9966177440       12.1374399065  MEMB      11              0.0000000000
      1279        11  SOPE      C210           -3.7969046411       11.6463010512       10.1053418169  MEMB      11              0.0000000000
      1280        11  SOPE      H101           -3.5984774206       10.5803249229       10.2612350222  MEMB      11              0.0000000000
      1281        11  SOPE      C211           -3.6313534823       12.1589870311        8.7048399261  MEMB      11              0.0000000000
      1282        11  SOPE      H11R           -3.0094649351       11.4309348272        8.1479574159  MEMB      11              0.0000000000
      1283        11  SOPE      H11S           -3.0817502293       13.1304318301        8.7124792875  MEMB      11              0.0000000000
      1284        11  SOPE      C212           -4.9560022813       12.3121719054        7.9432862577  MEMB      11              0.0000000000
      1285        11  SOPE      H12R           -5.6055867650       13.0745439878        8.4303934607  MEMB      11              0.0000000000
      1286        11  SOPE      H12S           -5.5049478846       11.3471958738        7.9922925513  MEMB      11              0.0000000000
      1287        11  SOPE      C213           -4.7664895381       12.7056926080        6.4685317909  MEMB      11              0.0000000000
      1288        11  SOPE      H13R           -4.0787768969       13.5723810606        6.3759012484  MEMB      11              0.0000000000
      1289        11  SOPE      H13S           -5.7688669952       13.0126863218        6.0974707246  MEMB      11              0.0000000000
      1290        11  SOPE      C214           -4.2648441199       11.5618423565        5.5724679130  MEMB      11              0.0000000000
      1291        11  SOPE      H14R           -5.0789671767       10.8025795157        5.5772159247  MEMB      11              0.0000000000
      1292        11  SOPE      H14S           -3.3628738275       11.0855439757        6.0084099832  MEMB      11              0.0000000000
      1293        11  SOPE      C215           -3.9618346254       11.9640881992        4.1126368126  MEMB      11              0.0000000000
      1294        11  SOPE      H15R           -4.8174084099       12.5041127676        3.6923253312  MEMB      11              0.0000000000
      1295        11  SOPE      H15S           -3.9046273881       11.0519086422        3.4922484863  MEMB      11              0.0000000000
      1296        11  SOPE      C216           -2.6830471755       12.7896163904        3.8790085419  MEMB      11              0.0000000000
      1297        11  SOPE      H16R           -1.7937039554       12.1210828828        3.9115611295  MEMB      11              0.0000000000
      1298        11  SOPE      H16S           -2.5834049859       13.5268676983        4.7045289692  MEMB      11              0.0000000000
      1299        11  SOPE      C217           -2.7042219702       13.5548511953        2.5412614497  MEMB      11              0.0000000000
      1300        11  SOPE      H17R           -3.5241005121       14.3079185288        2.5917985781  MEMB      11              0.0000000000
      1301        11  SOPE      H17S           -2.9440821886       12.8652746833        1.6992715293  MEMB      11              0.0000000000
      1302        11  SOPE      C218           -1.3904934060       14.2530257399        2.1768557846  MEMB      11              0.0000000000
      1303        11  SOPE      H18R           -1.1537214596       15.0771874135        2.8801579926  MEMB      11              0.0000000000
      1304        11  SOPE      H18S           -1.4849135651       14.6764496194        1.1511864832  MEMB      11              0.0000000000
      1305        11  SOPE      H18T           -0.5448243483       13.5309193016        2.1957213706  MEMB      11              0.0000000000
      1306        11  SOPE      C33             3.4476467806       14.6237932128       15.6261447344  MEMB      11              0.0000000000
      1307        11  SOPE      H3X             4.4665273036       14.2938160890       15.9212265962  MEMB      11              0.0000000000
      1308        11  SOPE      H3Y             3.4452028174       14.8778830651       14.5408424873  MEMB      11              0.0000000000
      1309        11  SOPE      C34             2.3195166089       13.6411932687       15.9008996020  MEMB      11              0.0000000000
      1310        11  SOPE      H4X             1.3412003531       14.1232560515       15.6789841752  MEMB      11              0.0000000000
      1311        11  SOPE      H4Y             2.2761063549       13.3943520096       16.9816960351  MEMB      11              0.0000000000
      1312        11  SOPE      C35             2.5176669355       12.3365335339       15.1495677074  MEMB      11              0.0000000000
      1313        11  SOPE      H5X             1.8067267082       11.6183394801       15.5898278360  MEMB      11              0.0000000000
      1314        11  SOPE      H5Y             3.5628523677       11.9908947764       15.3464311589  MEMB      11              0.0000000000
      1315        11  SOPE      C36             2.3183533828       12.4350733029       13.6320001395  MEMB      11              0.0000000000
      1316        11  SOPE      H6X             2.5642639744       11.4709521552       13.1320174542  MEMB      11              0.0000000000
      1317        11  SOPE      H6Y             3.0545130340       13.1953882640       13.3286436053  MEMB      11              0.0000000000
      1318        11  SOPE      C37             0.9149874769       12.8557381120       13.1752740815  MEMB      11              0.0000000000
      1319        11  SOPE      H7X             0.6230784516       13.7653490254       13.7484492945  MEMB      11              0.0000000000
      1320        11  SOPE      H7Y             0.2223321530       12.0178766938       13.3740252621  MEMB      11              0.0000000000
      1321        11  SOPE      C38             0.7191576916       13.2363959501       11.6970569991  MEMB      11              0.0000000000
      1322        11  SOPE      H8X             1.3534328711       14.1111950614       11.5350510250  MEMB      11              0.0000000000
      1323        11  SOPE      H8Y            -0.2922646700       13.6731807622       11.5852148679  MEMB      11              0.0000000000
      1324        11  SOPE      C39             0.8538400888       12.1070313604       10.6340988318  MEMB      11              0.0000000000
      1325        11  SOPE      H9X             0.0240353471       11.4015336808       10.8521215870  MEMB      11              0.0000000000
      1326        11  SOPE      H9Y             1.8121685764       11.5565638912       10.7511003484  MEMB      11              0.0000000000
      1327        11  SOPE      C310            0.6351211676       12.6161678978        9.1779879878  MEMB      11              0.0000000000
      1328        11  SOPE      H10X            1.5406910040       12.9178665740        8.6159406801  MEMB      11              0.0000000000
      1329        11  SOPE      H10Y            0.0065426271       13.5311336334        9.3027514095  MEMB      11              0.0000000000
      1330        11  SOPE      C311           -0.0366505848       11.6954899531        8.1836540932  MEMB      11              0.0000000000
      1331        11  SOPE      H11X           -0.5410168085       12.3661890593        7.4446149290  MEMB      11              0.0000000000
      1332        11  SOPE      H11Y           -0.7933078886       11.1382293215        8.7625978809  MEMB      11              0.0000000000
      1333        11  SOPE      C312            0.8867777026       10.7823384322        7.3546764834  MEMB      11              0.0000000000
      1334        11  SOPE      H12X            1.2608957978        9.9536742580        7.9931587745  MEMB      11              0.0000000000
      1335        11  SOPE      H12Y            1.7787378062       11.3276491172        6.9648051566  MEMB      11              0.0000000000
      1336        11  SOPE      C313            0.0990328765       10.2118901719        6.1619413627  MEMB      11              0.0000000000
      1337        11  SOPE      H13X           -0.3271856140       11.0474055111        5.5634287006  MEMB      11              0.0000000000
      1338        11  SOPE      H13Y           -0.7650995991        9.6441366673        6.5714353234  MEMB      11              0.0000000000
      1339        11  SOPE      C314            0.9204402476        9.3089234044        5.2330661976  MEMB      11              0.0000000000
      1340        11  SOPE      H14X            0.2448148213        8.7344426349        4.5595414049  MEMB      11              0.0000000000
      1341        11  SOPE      H14Y            1.4896690484        8.5782420803        5.8495287490  MEMB      11              0.0000000000
      1342        11  SOPE      C315            1.9184829037       10.0700983365        4.3598476906  MEMB      11              0.0000000000
      1343        11  SOPE      H15X            2.6546205397        9.3281604735        3.9699728938  MEMB      11              0.0000000000
      1344        11  SOPE      H15Y            2.4837848893       10.7934251990        4.9865854938  MEMB      11              0.0000000000
      1345        11  SOPE      C316            1.2621775345       10.8952271827        3.2515894492  MEMB      11              0.0000000000
      1346        11  SOPE      H16X            0.7099700997       11.7529011124        3.6775381785  MEMB      11              0.0000000000
      1347        11  SOPE      H16Y            0.5444207614       10.3211692624        2.6135909104  MEMB      11              0.0000000000
      1348        11  SOPE      C317            2.2881908787       11.5068184806        2.3523897781  MEMB      11              0.0000000000
      1349        11  SOPE      H17X            3.3348217923       11.2942523183        2.6853520037  MEMB      11              0.0000000000
      1350        11  SOPE      H17Y            2.1680548183       12.6122042401        2.2696829167  MEMB      11              0.0000000000
      1351        11  SOPE      C318            2.1062254360       10.8526781034        1.0379882783  MEMB      11              0.0000000000
      1352        11  SOPE      H18X            3.1200072483       10.7707483015        0.7442173827  MEMB      11              0.0000000000
      1353        11  SOPE      H18Y            1.4961373972       11.4452705356        0.3162125903  MEMB      11              0.0000000000
      1354        11  SOPE      H18Z            1.9670659528        9.7616871698        0.9928585903  MEMB      11              0.0000000000
      1355        12  OSM       N              -9.6624293088       11.2642204467       22.4965297181  MEMB      12              0.0000000000
      1356        12  OSM       C15            -8.5419711713       11.9243173768       23.2359023495  MEMB      12              0.0000000000
      1357        12  OSM       H15A           -8.9196961126       12.7020281061       23.8905707096  MEMB      12              0.0000000000
      1358        12  OSM       H15B           -7.8355481999       12.3866160019       22.5375683998  MEMB      12              0.0000000000
      1359        12  OSM       H15C           -7.9942064759       11.2334176537       23.8556752643  MEMB      12              0.0000000000
      1360        12  OSM       C14            -9.1892146637        9.9317161118       21.9845756313  MEMB      12              0.0000000000
      1361        12  OSM       H14A           -8.2364941980       10.0585988504       21.4588252866  MEMB      12              0.0000000000
      1362        12  OSM       H14B           -9.8687604150        9.5132232187       21.2514775244  MEMB      12              0.0000000000
      1363        12  OSM       H14C           -9.0614099659        9.2390212974       22.8024660657  MEMB      12              0.0000000000
      1364        12  OSM       C13           -10.8059962433       11.1132441554       23.4260558135  MEMB      12              0.0000000000
      1365        12  OSM       H13A          -11.0517297710       12.1040455641       23.8050804207  MEMB      12              0.0000000000
      1366        12  OSM       H13B          -10.5498714178       10.4808151040       24.2617020535  MEMB      12              0.0000000000
      1367        12  OSM       H13C          -11.6624151223       10.7296730466       22.9014745457  MEMB      12              0.0000000000
      1368        12  OSM       C12           -10.1174077386       12.1796539617       21.3710298930  MEMB      12              0.0000000000
      1369        12  OSM       H12A          -10.1352086051       13.2201868283       21.7076437658  MEMB      12              0.0000000000
      1370        12  OSM       H12B          -11.1337841993       11.9283936881       21.0994003312  MEMB      12              0.0000000000
      1371        12  OSM       C11            -9.3189535810       12.1601086689       20.0634087762  MEMB      12              0.0000000000
      1372        12  OSM       H11A           -9.8888740099       12.8141394925       19.3501441234  MEMB      12              0.0000000000
      1373        12  OSM       H11B           -9.3525289247       11.1286795608       19.6457228084  MEMB      12              0.0000000000
      1374        12  OSM       P              -7.3619308236       13.9590168271       19.7901711270  MEMB      12              0.0000000000
      1375        12  OSM       O13            -7.8680296502       15.0374342868       20.6668254925  MEMB      12              0.0000000000
      1376        12  OSM       O14            -5.8944653227       13.8909769163       19.6477870537  MEMB      12              0.0000000000
      1377        12  OSM       O11            -7.9773933876       14.1924930235       18.3436629671  MEMB      12              0.0000000000
      1378        12  OSM       O12            -7.9560311742       12.5510209896       20.2599542590  MEMB      12              0.0000000000
      1379        12  OSM       C1S            -7.8791614782       13.1662548302       17.3636553586  MEMB      12              0.0000000000
      1380        12  OSM       H1S            -8.4442779111       12.2654013104       17.6802605333  MEMB      12              0.0000000000
      1381        12  OSM       H1T            -6.8163735478       12.8713393849       17.2069086186  MEMB      12              0.0000000000
      1382        12  OSM       NF             -9.1934577618       12.5580125076       15.3989731390  MEMB      12              0.0000000000
      1383        12  OSM       HNF            -8.7592222487       12.1867948604       14.5923473742  MEMB      12              0.0000000000
      1384        12  OSM       C2S            -8.5067285934       13.6503337221       16.0362683487  MEMB      12              0.0000000000
      1385        12  OSM       H2S            -9.2677648861       14.4277883306       16.2741971552  MEMB      12              0.0000000000
      1386        12  OSM       C3S            -7.3784521402       14.2301412821       15.1574903144  MEMB      12              0.0000000000
      1387        12  OSM       H3S            -6.6009149509       13.4348934189       15.0149584913  MEMB      12              0.0000000000
      1388        12  OSM       O3             -6.7432402918       15.3591642937       15.7261822312  MEMB      12              0.0000000000
      1389        12  OSM       HO3            -7.1339842183       15.3866980022       16.6067394214  MEMB      12              0.0000000000
      1390        12  OSM       C4S            -7.8815618527       14.6629271088       13.8156228126  MEMB      12              0.0000000000
      1391        12  OSM       H4S            -8.6068428585       15.4792497012       13.7745726128  MEMB      12              0.0000000000
      1392        12  OSM       C5S            -7.4091882751       14.0870700799       12.7102577958  MEMB      12              0.0000000000
      1393        12  OSM       H5S            -6.6538127588       13.3039266052       12.9063233081  MEMB      12              0.0000000000
      1394        12  OSM       C6S            -7.7226769203       14.3453703559       11.2437307987  MEMB      12              0.0000000000
      1395        12  OSM       H6S            -8.0331962513       13.4003797957       10.7724252865  MEMB      12              0.0000000000
      1396        12  OSM       H6T            -6.8528628972       14.6491482332       10.6137990496  MEMB      12              0.0000000000
      1397        12  OSM       C7S            -8.6198303895       15.5451925330       11.0031749445  MEMB      12              0.0000000000
      1398        12  OSM       H7S            -8.0795700763       16.4822497090       11.2819437436  MEMB      12              0.0000000000
      1399        12  OSM       H7T            -9.5043011291       15.3711971909       11.6452347162  MEMB      12              0.0000000000
      1400        12  OSM       C8S            -9.0680955872       15.7066578268        9.5567460481  MEMB      12              0.0000000000
      1401        12  OSM       H8S           -10.0760742371       16.1786235217        9.5672249805  MEMB      12              0.0000000000
      1402        12  OSM       H8T            -9.1643300334       14.6971780577        9.0967567207  MEMB      12              0.0000000000
      1403        12  OSM       C9S            -8.1743388061       16.6299047373        8.7176302863  MEMB      12              0.0000000000
      1404        12  OSM       H9S            -7.1070485587       16.3322280415        8.8126378257  MEMB      12              0.0000000000
      1405        12  OSM       H9T            -8.2531589338       17.6853291601        9.0673315252  MEMB      12              0.0000000000
      1406        12  OSM       C10S           -8.6378093646       16.5600324178        7.2642305350  MEMB      12              0.0000000000
      1407        12  OSM       H10S           -9.7059767044       16.8835821803        7.2251619707  MEMB      12              0.0000000000
      1408        12  OSM       H10T           -8.6082234723       15.4944587547        6.9500181344  MEMB      12              0.0000000000
      1409        12  OSM       C11S           -7.8000241245       17.3986605641        6.2919910410  MEMB      12              0.0000000000
      1410        12  OSM       H11S           -6.7935775513       17.6076233831        6.7183007545  MEMB      12              0.0000000000
      1411        12  OSM       H11T           -8.3472136827       18.3623579570        6.1962716008  MEMB      12              0.0000000000
      1412        12  OSM       C12S           -7.5853857329       16.6880161708        4.9434720836  MEMB      12              0.0000000000
      1413        12  OSM       H12S           -7.3364471805       17.3971215225        4.1207653626  MEMB      12              0.0000000000
      1414        12  OSM       H12T           -8.5313494205       16.1712963374        4.6716466769  MEMB      12              0.0000000000
      1415        12  OSM       C13S           -6.4859922699       15.6258218912        5.0346833553  MEMB      12              0.0000000000
      1416        12  OSM       H13S           -6.8484475630       14.7766312418        5.6544836146  MEMB      12              0.0000000000
      1417        12  OSM       H13T           -5.5762481298       16.0245550274        5.5437657438  MEMB      12              0.0000000000
      1418        12  OSM       C14S           -6.0391618025       15.0398367231        3.6899160248  MEMB      12              0.0000000000
      1419        12  OSM       H14S           -5.5247670674       14.1375702661        4.0242136705  MEMB      12              0.0000000000
      1420        12  OSM       H14T           -5.2763745534       15.7133963028        3.2465645656  MEMB      12              0.0000000000
      1421        12  OSM       C15S           -7.1455181908       14.6216461406        2.6919760022  MEMB      12              0.0000000000
      1422        12  OSM       H15S           -7.6418285765       15.5567830235        2.3593445759  MEMB      12              0.0000000000
      1423        12  OSM       H15T           -7.8803938350       13.9836830422        3.2366022175  MEMB      12              0.0000000000
      1424        12  OSM       C16S           -6.6526212523       13.8356844805        1.4470061908  MEMB      12              0.0000000000
      1425        12  OSM       H16S           -6.1725679847       12.8960118291        1.8032138832  MEMB      12              0.0000000000
      1426        12  OSM       H16T           -5.8647719679       14.4242155997        0.9325802129  MEMB      12              0.0000000000
      1427        12  OSM       C17S           -7.7306670250       13.4517427087        0.3975767445  MEMB      12              0.0000000000
      1428        12  OSM       H17S           -8.3441050587       14.3338088700        0.0958130977  MEMB      12              0.0000000000
      1429        12  OSM       H17T           -8.4462301976       12.7521320812        0.8782565747  MEMB      12              0.0000000000
      1430        12  OSM       C18S           -7.1451219745       12.7682291449       -0.8573399638  MEMB      12              0.0000000000
      1431        12  OSM       H18S           -7.8872889211       12.1378154263       -1.3886725243  MEMB      12              0.0000000000
      1432        12  OSM       H18T           -6.2608730538       12.1434690703       -0.6087150110  MEMB      12              0.0000000000
      1433        12  OSM       H18U           -6.8127777280       13.5218557066       -1.5911093799  MEMB      12              0.0000000000
      1434        12  OSM       C1F           -10.2986996568       11.9920053984       15.8849492740  MEMB      12              0.0000000000
      1435        12  OSM       OF            -10.8724720850       12.3745260524       16.8925067833  MEMB      12              0.0000000000
      1436        12  OSM       C2F           -10.7631237948       10.8204065735       15.1247980112  MEMB      12              0.0000000000
      1437        12  OSM       H2F           -11.6050109593       10.3496953425       15.6816589603  MEMB      12              0.0000000000
      1438        12  OSM       H2G            -9.9289993260       10.0884187461       15.0582989291  MEMB      12              0.0000000000
      1439        12  OSM       C3F           -11.0978504182       11.3088922832       13.7062776370  MEMB      12              0.0000000000
      1440        12  OSM       H3F           -10.5448446176       12.1922540595       13.3590124689  MEMB      12              0.0000000000
      1441        12  OSM       H3G           -12.1950954473       11.5122169864       13.6191622084  MEMB      12              0.0000000000
      1442        12  OSM       C4F           -10.5014765211       10.4419703986       12.6136385792  MEMB      12              0.0000000000
      1443        12  OSM       H4F           -11.4146868097        9.9955324265       12.4844550433  MEMB      12              0.0000000000
      1444        12  OSM       H4G            -9.8058013065        9.6699973997       12.8731489500  MEMB      12              0.0000000000
      1445        12  OSM       C5F           -10.8204184543       10.6401233056       11.1721634271  MEMB      12              0.0000000000
      1446        12  OSM       H5F           -11.7101254621       11.3125210438       11.1909526176  MEMB      12              0.0000000000
      1447        12  OSM       H5G           -10.9862617677        9.6928739444       10.5687639760  MEMB      12              0.0000000000
      1448        12  OSM       C6F            -9.6818089723       11.1628560718       10.5042422658  MEMB      12              0.0000000000
      1449        12  OSM       H6F            -8.9404356345       10.3311007789       10.5672471355  MEMB      12              0.0000000000
      1450        12  OSM       H6G            -9.3893447738       12.0095242246       11.1470207397  MEMB      12              0.0000000000
      1451        12  OSM       C7F           -10.0644674597       11.5056036905        9.0901041249  MEMB      12              0.0000000000
      1452        12  OSM       H7F           -10.6139549179       12.4729728435        9.1107609511  MEMB      12              0.0000000000
      1453        12  OSM       H7G           -10.7704992446       10.7686939614        8.6290087850  MEMB      12              0.0000000000
      1454        12  OSM       C8F            -8.7587296625       11.5851833377        8.3250355448  MEMB      12              0.0000000000
      1455        12  OSM       H8F            -7.9786987514       12.0129045545        8.9913394180  MEMB      12              0.0000000000
      1456        12  OSM       H8G            -8.9095000141       12.3238623961        7.5190843867  MEMB      12              0.0000000000
      1457        12  OSM       C9F            -8.2894306494       10.2397119385        7.8390825390  MEMB      12              0.0000000000
      1458        12  OSM       H9F            -8.2448921996        9.4199826193        8.5740848053  MEMB      12              0.0000000000
      1459        12  OSM       C10F           -7.9875129260        9.9745960103        6.5678874214  MEMB      12              0.0000000000
      1460        12  OSM       H10F           -7.8322873763        8.9202187528        6.2661121965  MEMB      12              0.0000000000
      1461        12  OSM       C11F           -8.0813882296       10.9706204525        5.4307754915  MEMB      12              0.0000000000
      1462        12  OSM       H11F           -7.5318968705       10.5236703681        4.5874222730  MEMB      12              0.0000000000
      1463        12  OSM       H11G           -7.5613045629       11.9108716594        5.6499500610  MEMB      12              0.0000000000
      1464        12  OSM       C12F           -9.4760873182       11.5411438022        5.0052524990  MEMB      12              0.0000000000
      1465        12  OSM       H12F           -9.4589594988       11.9993378843        3.9897968149  MEMB      12              0.0000000000
      1466        12  OSM       H12G           -9.9442596118       12.1531882425        5.7871311177  MEMB      12              0.0000000000
      1467        12  OSM       C13F          -10.5429703251       10.5434323955        4.9040223666  MEMB      12              0.0000000000
      1468        12  OSM       H13F          -10.0330111755        9.9500668630        5.6506747009  MEMB      12              0.0000000000
      1469        12  OSM       H13G          -11.2504318402       10.2490699625        5.6800198073  MEMB      12              0.0000000000
      1470        12  OSM       C14F          -10.2790200910        9.8180309879        3.6517942805  MEMB      12              0.0000000000
      1471        12  OSM       H14F          -10.9885824958        9.0508088977        3.7588846096  MEMB      12              0.0000000000
      1472        12  OSM       H14G           -9.1669541001        9.6541778346        3.6564571075  MEMB      12              0.0000000000
      1473        12  OSM       C15F          -10.7370636830       10.1909034849        2.2876678408  MEMB      12              0.0000000000
      1474        12  OSM       H15F           -9.9800885952       10.8857597317        1.9407776111  MEMB      12              0.0000000000
      1475        12  OSM       H15G          -11.8755191215       10.4324306854        2.2637142959  MEMB      12              0.0000000000
      1476        12  OSM       C16F          -10.0329390121        9.1552280291        1.3802131965  MEMB      12              0.0000000000
      1477        12  OSM       H16F          -10.8895833568        8.5585311826        1.1940929946  MEMB      12              0.0000000000
      1478        12  OSM       H16G           -9.1338126525        8.5749089580        1.7574198402  MEMB      12              0.0000000000
      1479        12  OSM       C17F           -9.8166099786        9.2989766004       -0.1003679928  MEMB      12              0.0000000000
      1480        12  OSM       H17F          -10.0020862665        8.4117219347       -0.7568531275  MEMB      12              0.0000000000
      1481        12  OSM       H17G           -8.7192959870        9.3961123556       -0.1877518771  MEMB      12              0.0000000000
      1482        12  OSM       C18F          -10.5336928058       10.4832258566       -0.6658549898  MEMB      12              0.0000000000
      1483        12  OSM       H18F           -9.9143937218       11.3178948403       -0.3710528998  MEMB      12              0.0000000000
      1484        12  OSM       H18G          -11.5299436354       10.8200117179       -0.2615334995  MEMB      12              0.0000000000
      1485        12  OSM       H18H          -10.3867300645       10.5039304737       -1.7667881553  MEMB      12              0.0000000000
      1486        13  OSM       N             -14.3080793544        8.1839239543       22.5158618737  MEMB      13              0.0000000000
      1487        13  OSM       C15           -15.0463278235        8.3649093464       21.2299906929  MEMB      13              0.0000000000
      1488        13  OSM       H15A          -15.8138450927        9.1142121708       21.3279472587  MEMB      13              0.0000000000
      1489        13  OSM       H15B          -15.5183950637        7.4464425703       20.8696820452  MEMB      13              0.0000000000
      1490        13  OSM       H15C          -14.3382983510        8.6267569616       20.4452905451  MEMB      13              0.0000000000
      1491        13  OSM       C14           -13.5913971667        9.4409714256       22.8467450460  MEMB      13              0.0000000000
      1492        13  OSM       H14A          -12.7795149531        9.5382936989       22.1261479570  MEMB      13              0.0000000000
      1493        13  OSM       H14B          -13.2327912987        9.3743946537       23.8639523852  MEMB      13              0.0000000000
      1494        13  OSM       H14C          -14.2504099186       10.2953022518       22.7599816149  MEMB      13              0.0000000000
      1495        13  OSM       C13           -15.2848212361        7.7852308334       23.5722985344  MEMB      13              0.0000000000
      1496        13  OSM       H13A          -15.6955075196        6.8077915816       23.3233607594  MEMB      13              0.0000000000
      1497        13  OSM       H13B          -16.1346371735        8.4547447862       23.6413882262  MEMB      13              0.0000000000
      1498        13  OSM       H13C          -14.8132748227        7.7300816227       24.5494327433  MEMB      13              0.0000000000
      1499        13  OSM       C12           -13.2964719808        7.0632013827       22.4022867040  MEMB      13              0.0000000000
      1500        13  OSM       H12A          -13.8416011175        6.1369756580       22.2034308408  MEMB      13              0.0000000000
      1501        13  OSM       H12B          -12.8234298577        6.9739011490       23.3703797953  MEMB      13              0.0000000000
      1502        13  OSM       C11           -12.1672595012        7.1296271485       21.3385001677  MEMB      13              0.0000000000
      1503        13  OSM       H11A          -11.4817559706        6.2580178286       21.4734194050  MEMB      13              0.0000000000
      1504        13  OSM       H11B          -11.5226560194        8.0139729131       21.4811225393  MEMB      13              0.0000000000
      1505        13  OSM       P             -13.1711772032        5.7241519850       19.4650911877  MEMB      13              0.0000000000
      1506        13  OSM       O13           -11.9633551619        4.8903958809       19.2588111059  MEMB      13              0.0000000000
      1507        13  OSM       O14           -14.1773968753        5.1819363634       20.4164183925  MEMB      13              0.0000000000
      1508        13  OSM       O11           -13.8648394839        6.1116073963       18.0938129448  MEMB      13              0.0000000000
      1509        13  OSM       O12           -12.7036182382        7.1463791417       20.0244025667  MEMB      13              0.0000000000
      1510        13  OSM       C1S           -13.1258654832        6.6270558147       16.9817699477  MEMB      13              0.0000000000
      1511        13  OSM       H1S           -12.3423741666        7.3490232302       17.2895581841  MEMB      13              0.0000000000
      1512        13  OSM       H1T           -13.8251081154        7.1803955369       16.3103906232  MEMB      13              0.0000000000
      1513        13  OSM       NF            -11.3271158349        5.7858470231       15.4416797656  MEMB      13              0.0000000000
      1514        13  OSM       HNF           -11.3652754877        5.8186957802       14.4474327206  MEMB      13              0.0000000000
      1515        13  OSM       C2S           -12.5719222426        5.4616172859       16.1253900433  MEMB      13              0.0000000000
      1516        13  OSM       H2S           -12.3620894116        4.6038002787       16.8051032395  MEMB      13              0.0000000000
      1517        13  OSM       C3S           -13.7282063870        5.1027018631       15.1440025089  MEMB      13              0.0000000000
      1518        13  OSM       H3S           -13.9927412990        5.9451596008       14.4776689522  MEMB      13              0.0000000000
      1519        13  OSM       O3            -14.8509650074        4.5743009877       15.8362214423  MEMB      13              0.0000000000
      1520        13  OSM       HO3           -14.5965637076        4.6368869016       16.7660109555  MEMB      13              0.0000000000
      1521        13  OSM       C4S           -13.3365125714        4.0642411333       14.2121127783  MEMB      13              0.0000000000
      1522        13  OSM       H4S           -13.2352412895        3.1875263706       14.7853794742  MEMB      13              0.0000000000
      1523        13  OSM       C5S           -13.1316121080        3.9864359265       12.8946342845  MEMB      13              0.0000000000
      1524        13  OSM       H5S           -13.1567116813        4.8978249245       12.3200103035  MEMB      13              0.0000000000
      1525        13  OSM       C6S           -12.7006469397        2.7690857009       12.1225645396  MEMB      13              0.0000000000
      1526        13  OSM       H6S           -13.1909353150        2.5470981078       11.1612960255  MEMB      13              0.0000000000
      1527        13  OSM       H6T           -12.7636861252        1.8265205169       12.6963601605  MEMB      13              0.0000000000
      1528        13  OSM       C7S           -11.2864775333        3.1110868383       11.7892658252  MEMB      13              0.0000000000
      1529        13  OSM       H7S           -10.6486257558        2.7773644776       12.6145386216  MEMB      13              0.0000000000
      1530        13  OSM       H7T           -10.9792560003        4.1802390699       11.7142098951  MEMB      13              0.0000000000
      1531        13  OSM       C8S           -10.7168295546        2.2424968851       10.7202177395  MEMB      13              0.0000000000
      1532        13  OSM       H8S           -10.5168075702        1.1580417321       10.8727431639  MEMB      13              0.0000000000
      1533        13  OSM       H8T            -9.8274376212        2.8315602970       11.0237109510  MEMB      13              0.0000000000
      1534        13  OSM       C9S           -10.8850400223        2.4477291647        9.2389634059  MEMB      13              0.0000000000
      1535        13  OSM       H9S           -11.7514100078        1.8154115113        8.9770105791  MEMB      13              0.0000000000
      1536        13  OSM       H9T           -10.0042067093        2.0874704052        8.6503375275  MEMB      13              0.0000000000
      1537        13  OSM       C10S          -11.0755832807        3.8927807671        8.8928785718  MEMB      13              0.0000000000
      1538        13  OSM       H10S          -11.7683301845        4.3209865948        9.6476917010  MEMB      13              0.0000000000
      1539        13  OSM       H10T          -11.6045814230        3.8609291895        7.9196505561  MEMB      13              0.0000000000
      1540        13  OSM       C11S           -9.7430913725        4.6630352376        8.8118752306  MEMB      13              0.0000000000
      1541        13  OSM       H11S           -9.0475248433        4.1906751523        8.0769863581  MEMB      13              0.0000000000
      1542        13  OSM       H11T           -9.2372133572        4.6897638056        9.7980034346  MEMB      13              0.0000000000
      1543        13  OSM       C12S           -9.9435302587        6.1067240243        8.4224291292  MEMB      13              0.0000000000
      1544        13  OSM       H12S           -8.9939258621        6.6868108099        8.4940123503  MEMB      13              0.0000000000
      1545        13  OSM       H12T          -10.6546943193        6.5776412208        9.1351027662  MEMB      13              0.0000000000
      1546        13  OSM       C13S          -10.4390708570        6.1639982726        7.0000108950  MEMB      13              0.0000000000
      1547        13  OSM       H13S          -11.3674366806        5.5977571600        6.7883322990  MEMB      13              0.0000000000
      1548        13  OSM       H13T           -9.6435622392        5.8017289595        6.3037194043  MEMB      13              0.0000000000
      1549        13  OSM       C14S          -10.6996295541        7.5746450985        6.6260542295  MEMB      13              0.0000000000
      1550        13  OSM       H14S           -9.6492134850        7.9181157618        6.7732060456  MEMB      13              0.0000000000
      1551        13  OSM       H14T          -11.2247741692        8.1778349655        7.4027748751  MEMB      13              0.0000000000
      1552        13  OSM       C15S          -11.5602648533        7.4591965869        5.3303339510  MEMB      13              0.0000000000
      1553        13  OSM       H15S          -11.9578415433        8.4466182492        5.0906325907  MEMB      13              0.0000000000
      1554        13  OSM       H15T          -12.5812186224        7.1584641039        5.6087110995  MEMB      13              0.0000000000
      1555        13  OSM       C16S          -11.1041715131        6.5135384915        4.1387645522  MEMB      13              0.0000000000
      1556        13  OSM       H16S          -11.2258314211        5.4296371626        4.3033782591  MEMB      13              0.0000000000
      1557        13  OSM       H16T          -10.0206063015        6.3581623101        3.9752924923  MEMB      13              0.0000000000
      1558        13  OSM       C17S          -11.4189473797        6.9589881369        2.7253560755  MEMB      13              0.0000000000
      1559        13  OSM       H17S          -11.7717314928        7.9703676806        2.6162485766  MEMB      13              0.0000000000
      1560        13  OSM       H17T          -12.4732936687        6.8778947481        2.3920585518  MEMB      13              0.0000000000
      1561        13  OSM       C18S          -10.2481852349        6.4469249568        1.8160959417  MEMB      13              0.0000000000
      1562        13  OSM       H18S          -10.3784470314        5.4164486757        2.0560197892  MEMB      13              0.0000000000
      1563        13  OSM       H18T           -9.1667871095        6.6223663176        1.4995831550  MEMB      13              0.0000000000
      1564        13  OSM       H18U          -10.5455853882        6.7577585742        0.8135635237  MEMB      13              0.0000000000
      1565        13  OSM       C1F           -10.1549129353        5.9472624988       16.0671065818  MEMB      13              0.0000000000
      1566        13  OSM       OF            -10.0273298620        5.8816908593       17.2754446120  MEMB      13              0.0000000000
      1567        13  OSM       C2F            -8.9221439925        6.1066737168       15.2307631787  MEMB      13              0.0000000000
      1568        13  OSM       H2F            -8.3095207302        5.2418938780       15.5225638457  MEMB      13              0.0000000000
      1569        13  OSM       H2G            -8.3135787076        6.9710893036       15.5618697936  MEMB      13              0.0000000000
      1570        13  OSM       C3F            -9.1273942503        6.1264686135       13.6966223027  MEMB      13              0.0000000000
      1571        13  OSM       H3F            -9.7165406795        5.2732793702       13.3047739562  MEMB      13              0.0000000000
      1572        13  OSM       H3G            -8.1238455801        6.0699049372       13.2195993342  MEMB      13              0.0000000000
      1573        13  OSM       C4F            -9.7324074745        7.4130968606       13.1751229330  MEMB      13              0.0000000000
      1574        13  OSM       H4F            -8.9734761607        7.8814528519       12.4902820467  MEMB      13              0.0000000000
      1575        13  OSM       H4G            -9.8297815665        8.0923891740       14.0519622624  MEMB      13              0.0000000000
      1576        13  OSM       C5F           -11.1187865949        7.1376698066       12.5380847393  MEMB      13              0.0000000000
      1577        13  OSM       H5F           -11.6332012328        6.4637432393       13.2031881701  MEMB      13              0.0000000000
      1578        13  OSM       H5G           -11.0331217057        6.6987246452       11.5231765046  MEMB      13              0.0000000000
      1579        13  OSM       C6F           -12.2871547376        8.0985948737       12.6906764124  MEMB      13              0.0000000000
      1580        13  OSM       H6F           -11.9290953243        8.4803982647       11.7025446582  MEMB      13              0.0000000000
      1581        13  OSM       H6G           -12.2519979033        8.8117866827       13.5655331667  MEMB      13              0.0000000000
      1582        13  OSM       C7F           -13.6168906361        8.1718636594       12.0037986495  MEMB      13              0.0000000000
      1583        13  OSM       H7F           -14.3435937211        8.1583037758       12.8422656604  MEMB      13              0.0000000000
      1584        13  OSM       H7G           -13.7621898766        7.4837680398       11.1610547378  MEMB      13              0.0000000000
      1585        13  OSM       C8F           -13.8480500070        9.4768827769       11.2939548299  MEMB      13              0.0000000000
      1586        13  OSM       H8F           -13.6914325756       10.2684471163       12.0990637758  MEMB      13              0.0000000000
      1587        13  OSM       H8G           -14.9652797800        9.4779613109       11.1995016343  MEMB      13              0.0000000000
      1588        13  OSM       C9F           -13.2380829267        9.7942398092        9.8886457096  MEMB      13              0.0000000000
      1589        13  OSM       H9F           -12.6886071631       10.7428103952        9.7883360981  MEMB      13              0.0000000000
      1590        13  OSM       C10F          -13.7326795192        9.5924008030        8.6916057217  MEMB      13              0.0000000000
      1591        13  OSM       H10F          -13.4512242993       10.3539997154        7.9304360426  MEMB      13              0.0000000000
      1592        13  OSM       C11F          -15.0512482805        8.9454344308        8.4884698211  MEMB      13              0.0000000000
      1593        13  OSM       H11F          -15.7190852661        9.5420148028        7.8361434364  MEMB      13              0.0000000000
      1594        13  OSM       H11G          -15.6090874407        8.7218432966        9.4243458266  MEMB      13              0.0000000000
      1595        13  OSM       C12F          -14.5513296060        7.6470200071        7.8999122056  MEMB      13              0.0000000000
      1596        13  OSM       H12F          -13.9605572273        7.1081679222        8.6847424659  MEMB      13              0.0000000000
      1597        13  OSM       H12G          -13.8560675107        7.8174995750        7.0445279855  MEMB      13              0.0000000000
      1598        13  OSM       C13F          -15.6931678232        6.7861528973        7.3896090768  MEMB      13              0.0000000000
      1599        13  OSM       H13F          -16.2719632422        7.3779317238        6.6483594082  MEMB      13              0.0000000000
      1600        13  OSM       H13G          -16.3786218217        6.5131583334        8.2220856646  MEMB      13              0.0000000000
      1601        13  OSM       C14F          -15.1426071861        5.5204050945        6.7435847301  MEMB      13              0.0000000000
      1602        13  OSM       H14F          -15.8899143548        4.6995190388        6.7976660059  MEMB      13              0.0000000000
      1603        13  OSM       H14G          -14.2241675976        5.2339748445        7.3074453188  MEMB      13              0.0000000000
      1604        13  OSM       C15F          -14.8213035543        5.6776512950        5.2626447493  MEMB      13              0.0000000000
      1605        13  OSM       H15F          -14.0673045954        4.9043758553        4.9866765822  MEMB      13              0.0000000000
      1606        13  OSM       H15G          -14.4289385272        6.6859140675        5.0176506966  MEMB      13              0.0000000000
      1607        13  OSM       C16F          -16.0439908231        5.4448215955        4.4061306926  MEMB      13              0.0000000000
      1608        13  OSM       H16F          -16.8816217604        6.1204814261        4.7086132612  MEMB      13              0.0000000000
      1609        13  OSM       H16G          -16.3690298479        4.3905935316        4.5939276735  MEMB      13              0.0000000000
      1610        13  OSM       C17F          -15.7168226470        5.7531542024        2.9495017332  MEMB      13              0.0000000000
      1611        13  OSM       H17F          -15.0660496539        4.9766390164        2.4668596700  MEMB      13              0.0000000000
      1612        13  OSM       H17G          -15.4001856329        6.7855178022        2.7556624902  MEMB      13              0.0000000000
      1613        13  OSM       C18F          -16.9137944181        5.7507260027        2.1594431824  MEMB      13              0.0000000000
      1614        13  OSM       H18F          -17.8230977160        6.1908628742        2.6208406961  MEMB      13              0.0000000000
      1615        13  OSM       H18G          -16.9865224066        4.6372496281        2.1613270118  MEMB      13              0.0000000000
      1616        13  OSM       H18H          -16.8854823130        6.0858442052        1.1123633000  MEMB      13              0.0000000000
      1617        14  SOPE      N              14.1618717704        8.7447300410       23.3307020333  MEMB      14              0.0000000000
      1618        14  SOPE      HN1            14.0639605150        7.9216819980       22.7072387298  MEMB      14              0.0000000000
      1619        14  SOPE      HN2            15.1140550808        8.7682649309       23.7519141982  MEMB      14              0.0000000000
      1620        14  SOPE      HN3            13.4397602915        8.7040557178       24.0671463869  MEMB      14              0.0000000000
      1621        14  SOPE      C12            13.8655997835        9.9455285690       22.4672407551  MEMB      14              0.0000000000
      1622        14  SOPE      H12A           14.5743012437        9.9317250432       21.6174791758  MEMB      14              0.0000000000
      1623        14  SOPE      H12B           14.0345322246       10.8616262556       23.0622392854  MEMB      14              0.0000000000
      1624        14  SOPE      C11            12.4035603613        9.9104097092       21.9991761968  MEMB      14              0.0000000000
      1625        14  SOPE      H11A           12.1970129571       10.7037347438       21.2383955445  MEMB      14              0.0000000000
      1626        14  SOPE      H11B           11.7805702553       10.1638698281       22.8923582565  MEMB      14              0.0000000000
      1627        14  SOPE      P              12.2314158728        8.1280562217       20.0283445616  MEMB      14              0.0000000000
      1628        14  SOPE      O13            11.1903992670        7.1732492704       19.6811443193  MEMB      14              0.0000000000
      1629        14  SOPE      O14            13.6039723258        7.6219777745       19.9181797444  MEMB      14              0.0000000000
      1630        14  SOPE      O12            12.0530627149        8.6077256168       21.5384601205  MEMB      14              0.0000000000
      1631        14  SOPE      O11            12.0591906109        9.4759145501       19.1918215110  MEMB      14              0.0000000000
      1632        14  SOPE      C1             11.3378372777        9.4954089655       17.9535780583  MEMB      14              0.0000000000
      1633        14  SOPE      HA             10.2850844228        9.8513647335       18.0747601219  MEMB      14              0.0000000000
      1634        14  SOPE      HB             11.3272009183        8.4996326223       17.4860182292  MEMB      14              0.0000000000
      1635        14  SOPE      C2             12.0105178623       10.3695540972       16.8999956916  MEMB      14              0.0000000000
      1636        14  SOPE      HS             11.5960158690       10.2016114172       15.8747403034  MEMB      14              0.0000000000
      1637        14  SOPE      O21            13.4486690407       10.2385897201       16.8857291745  MEMB      14              0.0000000000
      1638        14  SOPE      C21            13.9103559143        9.0401870400       16.6537741075  MEMB      14              0.0000000000
      1639        14  SOPE      O22            13.2778207164        8.0535550781       16.3143200129  MEMB      14              0.0000000000
      1640        14  SOPE      C22            15.4089803844        9.1501692390       16.8247757652  MEMB      14              0.0000000000
      1641        14  SOPE      H2R            15.6196825843        9.5840628345       17.8215986319  MEMB      14              0.0000000000
      1642        14  SOPE      H2S            15.7590406010        9.8465310098       16.0377457002  MEMB      14              0.0000000000
      1643        14  SOPE      C3             11.6775839052       11.8073948257       17.1211166128  MEMB      14              0.0000000000
      1644        14  SOPE      HX             12.0681834671       12.1148617204       18.1280864357  MEMB      14              0.0000000000
      1645        14  SOPE      HY             10.6307044280       12.1374406414       17.0765274930  MEMB      14              0.0000000000
      1646        14  SOPE      O31            12.3957512859       12.3143522989       16.0375312206  MEMB      14              0.0000000000
      1647        14  SOPE      C31            11.8982444620       12.8053451524       14.9253430330  MEMB      14              0.0000000000
      1648        14  SOPE      O32            10.8094645677       12.5595119599       14.4657275660  MEMB      14              0.0000000000
      1649        14  SOPE      C32            13.0191824966       13.6488601895       14.2772588946  MEMB      14              0.0000000000
      1650        14  SOPE      H2X            13.2739176314       14.6271952823       14.7407652439  MEMB      14              0.0000000000
      1651        14  SOPE      H2Y            12.7289020176       13.9151386380       13.2490791719  MEMB      14              0.0000000000
      1652        14  SOPE      C23            16.0973623611        7.7964011570       16.6877873606  MEMB      14              0.0000000000
      1653        14  SOPE      H3R            15.5065607467        7.0165823546       17.2272119160  MEMB      14              0.0000000000
      1654        14  SOPE      H3S            17.1008941154        7.8375026592       17.1855118513  MEMB      14              0.0000000000
      1655        14  SOPE      C24            16.2252538497        7.4107107072       15.2096715388  MEMB      14              0.0000000000
      1656        14  SOPE      H4R            15.4380756051        7.7785302502       14.5424989769  MEMB      14              0.0000000000
      1657        14  SOPE      H4S            17.2318986230        7.7432649829       14.8368601164  MEMB      14              0.0000000000
      1658        14  SOPE      C25            16.0091414704        5.9320611154       15.0907676515  MEMB      14              0.0000000000
      1659        14  SOPE      H5R            16.8712516162        5.8522782280       15.6447082535  MEMB      14              0.0000000000
      1660        14  SOPE      H5S            15.3719734980        5.4126443398       15.8220173594  MEMB      14              0.0000000000
      1661        14  SOPE      C26            15.7536105632        5.3172948495       13.7222155334  MEMB      14              0.0000000000
      1662        14  SOPE      H6R            15.6990003593        4.2039379545       13.7688562352  MEMB      14              0.0000000000
      1663        14  SOPE      H6S            14.7673834670        5.7921896152       13.6082456571  MEMB      14              0.0000000000
      1664        14  SOPE      C27            16.4601791962        5.6977564166       12.4222564613  MEMB      14              0.0000000000
      1665        14  SOPE      H7R            16.5033351126        6.7904567916       12.2440097657  MEMB      14              0.0000000000
      1666        14  SOPE      H7S            17.4372830673        5.2949250919       12.5566586128  MEMB      14              0.0000000000
      1667        14  SOPE      C28            15.9879545224        4.9239752949       11.1770492793  MEMB      14              0.0000000000
      1668        14  SOPE      H8R            16.5337859863        5.2836854705       10.2763768613  MEMB      14              0.0000000000
      1669        14  SOPE      H8S            16.2464690928        3.8425613004       11.2549426818  MEMB      14              0.0000000000
      1670        14  SOPE      C29            14.5229453655        5.1783497260       11.1401176624  MEMB      14              0.0000000000
      1671        14  SOPE      H91            13.9646843168        4.7675771016       11.9911086732  MEMB      14              0.0000000000
      1672        14  SOPE      C210           13.8793426828        5.9451005268       10.2653333340  MEMB      14              0.0000000000
      1673        14  SOPE      H101           12.8171482843        6.1261329488       10.4561971247  MEMB      14              0.0000000000
      1674        14  SOPE      C211           14.4941487275        6.7060864804        9.1230784736  MEMB      14              0.0000000000
      1675        14  SOPE      H11R           15.5041405164        6.3147412771        8.8692655043  MEMB      14              0.0000000000
      1676        14  SOPE      H11S           14.5705411073        7.7834546445        9.3851715336  MEMB      14              0.0000000000
      1677        14  SOPE      C212           13.6605133663        6.5528067339        7.8496081191  MEMB      14              0.0000000000
      1678        14  SOPE      H12R           12.6640933188        7.0306262032        7.9897558084  MEMB      14              0.0000000000
      1679        14  SOPE      H12S           13.5422907493        5.4648056163        7.6251859866  MEMB      14              0.0000000000
      1680        14  SOPE      C213           14.3109826908        7.1645165472        6.6129204860  MEMB      14              0.0000000000
      1681        14  SOPE      H13R           15.4020191887        6.9454695820        6.5978088407  MEMB      14              0.0000000000
      1682        14  SOPE      H13S           14.1703681971        8.2649983160        6.6320435110  MEMB      14              0.0000000000
      1683        14  SOPE      C214           13.6771318348        6.5932313335        5.3515245720  MEMB      14              0.0000000000
      1684        14  SOPE      H14R           12.5710592895        6.7559089800        5.3860635887  MEMB      14              0.0000000000
      1685        14  SOPE      H14S           13.8356385908        5.4960535678        5.3146129497  MEMB      14              0.0000000000
      1686        14  SOPE      C215           14.1807137344        7.2929860610        4.0986445315  MEMB      14              0.0000000000
      1687        14  SOPE      H15R           13.9458721698        6.5646601082        3.2825501627  MEMB      14              0.0000000000
      1688        14  SOPE      H15S           15.2784284824        7.4445953063        4.0466573014  MEMB      14              0.0000000000
      1689        14  SOPE      C216           13.4137095525        8.6501651209        4.0617253236  MEMB      14              0.0000000000
      1690        14  SOPE      H16R           13.5941277804        9.2730576831        4.9255926827  MEMB      14              0.0000000000
      1691        14  SOPE      H16S           12.3221461763        8.3537336642        4.0744182942  MEMB      14              0.0000000000
      1692        14  SOPE      C217           13.5631899849        9.5668870205        2.8997213254  MEMB      14              0.0000000000
      1693        14  SOPE      H17R           14.5590138946        9.6636954885        2.4866369813  MEMB      14              0.0000000000
      1694        14  SOPE      H17S           13.2271766894       10.6028869267        2.7857491456  MEMB      14              0.0000000000
      1695        14  SOPE      C218           12.6655958506        8.7107667443        2.1401974776  MEMB      14              0.0000000000
      1696        14  SOPE      H18R           13.0773933615        7.7065355580        2.0465716837  MEMB      14              0.0000000000
      1697        14  SOPE      H18S           12.8067970127        9.3360357218        1.3135599548  MEMB      14              0.0000000000
      1698        14  SOPE      H18T           11.8840113074        8.7649932716        1.4963038840  MEMB      14              0.0000000000
      1699        14  SOPE      C33            14.2167270686       12.7153414297       14.4553893892  MEMB      14              0.0000000000
      1700        14  SOPE      H3X            13.7478777747       11.7950859290       14.0859558620  MEMB      14              0.0000000000
      1701        14  SOPE      H3Y            14.5801877311       12.3686509538       15.4312987902  MEMB      14              0.0000000000
      1702        14  SOPE      C34            15.3723136516       13.3292142550       13.7523916838  MEMB      14              0.0000000000
      1703        14  SOPE      H4X            15.5668109858       14.2501984280       14.0834237937  MEMB      14              0.0000000000
      1704        14  SOPE      H4Y            14.9279854918       13.7837312066       12.9004248500  MEMB      14              0.0000000000
      1705        14  SOPE      C35            16.8016672136       12.8573932519       13.8629196723  MEMB      14              0.0000000000
      1706        14  SOPE      H5X            16.8402160724       12.3721434902       14.9121656093  MEMB      14              0.0000000000
      1707        14  SOPE      H5Y            17.7483313283       13.3213755195       13.5842194628  MEMB      14              0.0000000000
      1708        14  SOPE      C36            17.0182981051       11.8193061219       12.9493964021  MEMB      14              0.0000000000
      1709        14  SOPE      H6X            16.2743792414       11.1845949364       13.5880506324  MEMB      14              0.0000000000
      1710        14  SOPE      H6Y            16.9648360869       11.0991441663       13.6582353726  MEMB      14              0.0000000000
      1711        14  SOPE      C37            17.4177870013       11.1732874536       11.0871612695  MEMB      14              0.0000000000
      1712        14  SOPE      H7X            18.1545098803       11.8150189073       11.0144684355  MEMB      14              0.0000000000
      1713        14  SOPE      H7Y            16.5193499064       11.1326667879       10.3972149481  MEMB      14              0.0000000000
      1714        14  SOPE      C38            16.6486433158       10.0923633366        9.9044021163  MEMB      14              0.0000000000
      1715        14  SOPE      H8X            15.6175929955        9.5966879774       10.0936173849  MEMB      14              0.0000000000
      1716        14  SOPE      H8Y            17.3688074977        9.3138759902        9.9304014841  MEMB      14              0.0000000000
      1717        14  SOPE      C39            16.6692287771       10.4073840342        8.4148012605  MEMB      14              0.0000000000
      1718        14  SOPE      H9X            17.0864031259        9.5009328744        7.9475097886  MEMB      14              0.0000000000
      1719        14  SOPE      H9Y            17.5112380363       11.1071921190        8.2678644771  MEMB      14              0.0000000000
      1720        14  SOPE      C310           15.3696716333       11.0211763537        7.7657264210  MEMB      14              0.0000000000
      1721        14  SOPE      H10X           14.7505448555       11.7122387011        8.3772502798  MEMB      14              0.0000000000
      1722        14  SOPE      H10Y           14.7658142904       10.1310737510        7.5537211256  MEMB      14              0.0000000000
      1723        14  SOPE      C311           15.7036494523       11.8411064663        6.5259616231  MEMB      14              0.0000000000
      1724        14  SOPE      H11X           16.2002719671       12.8191609828        6.4460375208  MEMB      14              0.0000000000
      1725        14  SOPE      H11Y           14.7981680167       12.1016500931        5.9582512490  MEMB      14              0.0000000000
      1726        14  SOPE      C312           16.7825889261       10.9420495074        5.9966248126  MEMB      14              0.0000000000
      1727        14  SOPE      H12X           16.1979223503        9.9974575215        5.8344104287  MEMB      14              0.0000000000
      1728        14  SOPE      H12Y           17.7486190758       10.8618290434        6.4847080030  MEMB      14              0.0000000000
      1729        14  SOPE      C313           17.6826224757       11.5468541638        4.9837995398  MEMB      14              0.0000000000
      1730        14  SOPE      H13X           17.7408435505       12.6047783903        4.8513909554  MEMB      14              0.0000000000
      1731        14  SOPE      H13Y           16.5489583450       11.4874133153        4.6272191823  MEMB      14              0.0000000000
      1732        14  SOPE      C314           19.0005846701       10.7887731305        4.0050712625  MEMB      14              0.0000000000
      1733        14  SOPE      H14X           18.6399807449        9.9083168633        4.5237537931  MEMB      14              0.0000000000
      1734        14  SOPE      H14Y           19.9331642295       10.7400891163        4.4859418729  MEMB      14              0.0000000000
      1735        14  SOPE      C315           19.1338785029       10.5473246863        2.0957918147  MEMB      14              0.0000000000
      1736        14  SOPE      H15X           19.6669838523        9.7907129442        1.5673008654  MEMB      14              0.0000000000
      1737        14  SOPE      H15Y           19.3312271074       11.5252527458        1.5823601924  MEMB      14              0.0000000000
      1738        14  SOPE      C316           17.8250470849        9.9625287855        1.0007153079  MEMB      14              0.0000000000
      1739        14  SOPE      H16X           16.6625520135       10.3106249151        1.0972580294  MEMB      14              0.0000000000
      1740        14  SOPE      H16Y           17.2736500410        8.9738626488        1.0508851520  MEMB      14              0.0000000000
      1741        14  SOPE      C317           18.1131736386       10.6444226197        0.0093751582  MEMB      14              0.0000000000
      1742        14  SOPE      H17X           17.5328050861       11.6311934614        0.0761945878  MEMB      14              0.0000000000
      1743        14  SOPE      H17Y           17.4902441225        9.8176014082       -0.3997264628  MEMB      14              0.0000000000
      1744        14  SOPE      C318           19.2661710729       10.3790443627       -0.8315855984  MEMB      14              0.0000000000
      1745        14  SOPE      H18X           19.1943236004        9.3048375391       -0.6719854132  MEMB      14              0.0000000000
      1746        14  SOPE      H18Y           19.9311651763       11.1478587608       -0.4529440456  MEMB      14              0.0000000000
      1747        14  SOPE      H18Z           19.2810757310       10.4047932768       -1.9325936315  MEMB      14              0.0000000000
      1748        15  SAPS      N               5.1252390419       13.7213162529       20.9393611392  MEMB      15              0.0000000000
      1749        15  SAPS      HN1             4.8814498079       12.8668726702       21.4863508044  MEMB      15              0.0000000000
      1750        15  SAPS      HN2             4.6213488657       14.5678212113       21.2561384483  MEMB      15              0.0000000000
      1751        15  SAPS      HN3             4.9666996694       13.6068855396       19.9125758975  MEMB      15              0.0000000000
      1752        15  SAPS      C12             6.5973733770       13.9619988494       21.1013961173  MEMB      15              0.0000000000
      1753        15  SAPS      H12A            6.7161174935       14.8396091732       21.7154157853  MEMB      15              0.0000000000
      1754        15  SAPS      C13             7.3067083206       12.8125525051       21.8081401173  MEMB      15              0.0000000000
      1755        15  SAPS      O13A            6.6258092705       11.8094054819       22.1552777026  MEMB      15              0.0000000000
      1756        15  SAPS      O13B            8.5566286929       12.9096996696       21.9037974281  MEMB      15              0.0000000000
      1757        15  SAPS      C11             7.2857624884       14.1120118760       19.7191889023  MEMB      15              0.0000000000
      1758        15  SAPS      H11A            7.4634792218       13.0921526812       19.3034407609  MEMB      15              0.0000000000
      1759        15  SAPS      H11B            8.3153115169       14.5347065884       19.8190004977  MEMB      15              0.0000000000
      1760        15  SAPS      P               6.7401740684       16.3838316085       18.5251847628  MEMB      15              0.0000000000
      1761        15  SAPS      O13             5.8086430886       16.8627832354       17.4891435755  MEMB      15              0.0000000000
      1762        15  SAPS      O14             6.8417269902       17.1184839827       19.7976577300  MEMB      15              0.0000000000
      1763        15  SAPS      O12             6.4541877092       14.8593296701       18.8296856742  MEMB      15              0.0000000000
      1764        15  SAPS      O11             8.1357787751       16.1354577661       17.8348732520  MEMB      15              0.0000000000
      1765        15  SAPS      C1              8.0154733341       15.2441538074       16.6910889511  MEMB      15              0.0000000000
      1766        15  SAPS      HA              8.6698120208       14.3697554147       16.8851666218  MEMB      15              0.0000000000
      1767        15  SAPS      HB              6.9959178880       14.9725003376       16.3424559644  MEMB      15              0.0000000000
      1768        15  SAPS      C2              8.5660063585       15.9426767704       15.4845502228  MEMB      15              0.0000000000
      1769        15  SAPS      HS              9.4429775701       16.1550262105       16.0240048264  MEMB      15              0.0000000000
      1770        15  SAPS      O21             7.6561922085       17.0207283595       15.1759761023  MEMB      15              0.0000000000
      1771        15  SAPS      C21             8.0055814878       17.9192729723       14.3003337056  MEMB      15              0.0000000000
      1772        15  SAPS      O22             8.9543420492       17.8678563576       13.5700901474  MEMB      15              0.0000000000
      1773        15  SAPS      C22             7.0004762941       19.0214612827       14.1570604531  MEMB      15              0.0000000000
      1774        15  SAPS      H2R             6.4676280723       19.0369526315       15.1145800862  MEMB      15              0.0000000000
      1775        15  SAPS      H2S             7.3010663913       20.0708508409       13.9647167656  MEMB      15              0.0000000000
      1776        15  SAPS      C3              8.8528676381       15.0812321774       14.2614119623  MEMB      15              0.0000000000
      1777        15  SAPS      HX              9.5495087015       14.3072772725       14.5821320575  MEMB      15              0.0000000000
      1778        15  SAPS      HY              9.4171614233       15.5828795273       13.4250854418  MEMB      15              0.0000000000
      1779        15  SAPS      O31             7.5904315788       14.5076014875       13.9757967190  MEMB      15              0.0000000000
      1780        15  SAPS      C31             7.1378125820       14.8918954783       12.8271500408  MEMB      15              0.0000000000
      1781        15  SAPS      O32             7.8212470606       15.2015936528       11.8605536400  MEMB      15              0.0000000000
      1782        15  SAPS      C32             5.6720894685       14.3700458754       12.7573506945  MEMB      15              0.0000000000
      1783        15  SAPS      H2X             5.0723349782       14.9703734443       13.4185168348  MEMB      15              0.0000000000
      1784        15  SAPS      H2Y             5.5672798215       13.4003363501       13.2452250728  MEMB      15              0.0000000000
      1785        15  SAPS      C23             6.2627221004       18.7110495523       12.8933643959  MEMB      15              0.0000000000
      1786        15  SAPS      H3R             5.4943092432       19.4943021773       12.9069146304  MEMB      15              0.0000000000
      1787        15  SAPS      H3S             5.8612987902       17.6922439637       13.0552393647  MEMB      15              0.0000000000
      1788        15  SAPS      C24             7.0398059456       18.9008793933       11.5801138035  MEMB      15              0.0000000000
      1789        15  SAPS      H4R             7.8656994427       18.1579963211       11.5111792663  MEMB      15              0.0000000000
      1790        15  SAPS      H4S             7.4799211258       19.9258567778       11.5736491151  MEMB      15              0.0000000000
      1791        15  SAPS      C25             6.0876524238       18.7238484243       10.4339517185  MEMB      15              0.0000000000
      1792        15  SAPS      H5R             5.0445703452       18.5199096282       10.7004013368  MEMB      15              0.0000000000
      1793        15  SAPS      C26             6.4201695910       18.6487619607        9.1473953986  MEMB      15              0.0000000000
      1794        15  SAPS      H6R             5.6173482912       18.4168623196        8.4275277648  MEMB      15              0.0000000000
      1795        15  SAPS      C27             7.8197007129       18.7280353828        8.6083501041  MEMB      15              0.0000000000
      1796        15  SAPS      H7R             8.4264514642       17.8973967209        9.0097944283  MEMB      15              0.0000000000
      1797        15  SAPS      H7S             8.3515607904       19.6678436357        8.9120690727  MEMB      15              0.0000000000
      1798        15  SAPS      C28             7.6877432462       18.5840591794        7.1223438889  MEMB      15              0.0000000000
      1799        15  SAPS      H8R             6.8314310421       19.1169223592        6.6633719774  MEMB      15              0.0000000000
      1800        15  SAPS      C29             8.6151884898       18.1422656386        6.2729297894  MEMB      15              0.0000000000
      1801        15  SAPS      H9R             8.4874879814       18.4008073447        5.2418460513  MEMB      15              0.0000000000
      1802        15  SAPS      C210            9.9954673978       17.6750857890        6.4780623067  MEMB      15              0.0000000000
      1803        15  SAPS      H10R           10.1713331582       17.5263043651        7.5433804261  MEMB      15              0.0000000000
      1804        15  SAPS      H10S           10.7184582850       18.4461204473        6.1229259620  MEMB      15              0.0000000000
      1805        15  SAPS      C211           10.1377790045       16.3912728233        5.7302330029  MEMB      15              0.0000000000
      1806        15  SAPS      H11R            9.4448129350       15.5808358211        5.9756414952  MEMB      15              0.0000000000
      1807        15  SAPS      C212           10.8623653744       16.2538963821        4.6336190204  MEMB      15              0.0000000000
      1808        15  SAPS      H12R           10.9481862620       15.3608816929        4.0731769575  MEMB      15              0.0000000000
      1809        15  SAPS      C213           11.6364690650       17.1912324735        3.9003910488  MEMB      15              0.0000000000
      1810        15  SAPS      H13R           12.4288363468       16.7078409511        3.3332811051  MEMB      15              0.0000000000
      1811        15  SAPS      H13S           11.9022954295       17.9547680890        4.6189529214  MEMB      15              0.0000000000
      1812        15  SAPS      C214           10.9750816334       17.9001217465        2.8674993105  MEMB      15              0.0000000000
      1813        15  SAPS      H14R           10.4439330030       18.6548284711        3.3070648199  MEMB      15              0.0000000000
      1814        15  SAPS      C215           10.9540437379       17.7986379731        1.5826317199  MEMB      15              0.0000000000
      1815        15  SAPS      H15R           10.5129394821       18.6049789804        0.9529615299  MEMB      15              0.0000000000
      1816        15  SAPS      C216           11.6903586952       16.8574625471        0.9184815486  MEMB      15              0.0000000000
      1817        15  SAPS      H16R           12.6639709208       16.9298163502        1.2871251165  MEMB      15              0.0000000000
      1818        15  SAPS      H16S           11.4758841599       17.5915748860        0.2108807845  MEMB      15              0.0000000000
      1819        15  SAPS      C217           11.8394133844       16.4025025138       -0.4191220302  MEMB      15              0.0000000000
      1820        15  SAPS      H17R           11.0708702702       16.8347572938       -1.1861043947  MEMB      15              0.0000000000
      1821        15  SAPS      H17S           11.4974739267       15.6368458295        0.0513691721  MEMB      15              0.0000000000
      1822        15  SAPS      C218           13.0464196374       15.5357831467       -0.6111580384  MEMB      15              0.0000000000
      1823        15  SAPS      H18R           13.7608859525       15.6355952064        0.2058231096  MEMB      15              0.0000000000
      1824        15  SAPS      H18S           13.2790888874       15.9952111151       -1.5507437254  MEMB      15              0.0000000000
      1825        15  SAPS      C219           12.9144790081       14.0374111028       -0.7971456258  MEMB      15              0.0000000000
      1826        15  SAPS      H19R           13.6942219995       13.4490101465       -1.2757202762  MEMB      15              0.0000000000
      1827        15  SAPS      H19S           12.4661906970       14.1452833796       -1.7739407668  MEMB      15              0.0000000000
      1828        15  SAPS      C220           12.2781859569       13.1630691122        0.3069350778  MEMB      15              0.0000000000
      1829        15  SAPS      H20R           11.3418001237       13.4232776044        0.7184582522  MEMB      15              0.0000000000
      1830        15  SAPS      H20S           12.7546110401       12.9701309799        1.2459586536  MEMB      15              0.0000000000
      1831        15  SAPS      H20T           11.6837977105       12.3854710352       -0.0940228592  MEMB      15              0.0000000000
      1832        15  SAPS      C33             5.2044958318       14.1970727705       11.2914420019  MEMB      15              0.0000000000
      1833        15  SAPS      H3X             5.5688396801       13.3316499155       10.6745735332  MEMB      15              0.0000000000
      1834        15  SAPS      H3Y             5.5366530977       15.1077954343       10.7725507276  MEMB      15              0.0000000000
      1835        15  SAPS      C34             3.7352068436       14.0604101110       11.1927393645  MEMB      15              0.0000000000
      1836        15  SAPS      H4X             3.2125816673       14.8039580454       11.8355403938  MEMB      15              0.0000000000
      1837        15  SAPS      H4Y             3.4576819686       13.0089690070       11.4769559294  MEMB      15              0.0000000000
      1838        15  SAPS      C35             3.2800142165       14.1832429734        9.7706512669  MEMB      15              0.0000000000
      1839        15  SAPS      H5X             2.2126302749       14.0680938391        9.8761301210  MEMB      15              0.0000000000
      1840        15  SAPS      H5Y             3.7234754964       13.3690648990        9.1624937181  MEMB      15              0.0000000000
      1841        15  SAPS      C36             3.3063004771       15.5262047132        9.0937422978  MEMB      15              0.0000000000
      1842        15  SAPS      H6X             4.2961922538       15.9683093272        9.2929641991  MEMB      15              0.0000000000
      1843        15  SAPS      H6Y             2.5293771252       16.1854834584        9.5431283456  MEMB      15              0.0000000000
      1844        15  SAPS      C37             3.0720927665       15.3812487809        7.5801437499  MEMB      15              0.0000000000
      1845        15  SAPS      H7X             1.9833935667       15.4837137189        7.3910498941  MEMB      15              0.0000000000
      1846        15  SAPS      H7Y             3.3551560974       14.3530954853        7.2473327016  MEMB      15              0.0000000000
      1847        15  SAPS      C38             3.9022779650       16.4531151484        6.8573457920  MEMB      15              0.0000000000
      1848        15  SAPS      H8X             4.9035541245       16.4679469004        7.3455719632  MEMB      15              0.0000000000
      1849        15  SAPS      H8Y             3.4404304406       17.4506476412        7.0004634470  MEMB      15              0.0000000000
      1850        15  SAPS      C39             4.1758134964       16.2992062916        5.3646578561  MEMB      15              0.0000000000
      1851        15  SAPS      H9X             5.0916051344       16.9024960724        5.1410721894  MEMB      15              0.0000000000
      1852        15  SAPS      H9Y             3.3576550883       16.7516985344        4.7653355945  MEMB      15              0.0000000000
      1853        15  SAPS      C310            4.3695625102       14.8618550082        4.9121946667  MEMB      15              0.0000000000
      1854        15  SAPS      H10X            3.4095210265       14.3098074879        4.8674742854  MEMB      15              0.0000000000
      1855        15  SAPS      H10Y            5.1257584954       14.3223905092        5.5297669232  MEMB      15              0.0000000000
      1856        15  SAPS      C311            4.8510745119       14.8410038041        3.5210058215  MEMB      15              0.0000000000
      1857        15  SAPS      H11X            4.4626221734       15.6865299643        2.9060521632  MEMB      15              0.0000000000
      1858        15  SAPS      H11Y            4.6778379798       13.8657384509        3.0018005322  MEMB      15              0.0000000000
      1859        15  SAPS      C312            6.2865311275       14.9810298188        3.5017015912  MEMB      15              0.0000000000
      1860        15  SAPS      H12X            6.7585478451       14.0999172062        3.9921091565  MEMB      15              0.0000000000
      1861        15  SAPS      H12Y            6.6995284491       15.7909310771        4.1368167410  MEMB      15              0.0000000000
      1862        15  SAPS      C313            6.3073480866       15.0276587499        1.9618814373  MEMB      15              0.0000000000
      1863        15  SAPS      H13X            6.2119193681       14.1078605827        1.4253046611  MEMB      15              0.0000000000
      1864        15  SAPS      H13Y            7.2260789891       15.0043627679        1.6937786694  MEMB      15              0.0000000000
      1865        15  SAPS      C314            6.1959556424       16.2469488573        1.0572428466  MEMB      15              0.0000000000
      1866        15  SAPS      H14X            5.1762425547       16.0569771921        0.7446321176  MEMB      15              0.0000000000
      1867        15  SAPS      H14Y            6.9442335092       16.1582218035        0.1972926962  MEMB      15              0.0000000000
      1868        15  SAPS      C315            6.4216148911       17.5438713547        1.8022674122  MEMB      15              0.0000000000
      1869        15  SAPS      H15X            7.4574705803       17.6506844775        1.8412063342  MEMB      15              0.0000000000
      1870        15  SAPS      H15Y            6.1845258634       17.5340602789        2.8579855862  MEMB      15              0.0000000000
      1871        15  SAPS      C316            6.0854897501       18.8204710742        1.1340719553  MEMB      15              0.0000000000
      1872        15  SAPS      H16X            6.9165519988       18.7734329458        0.4013011223  MEMB      15              0.0000000000
      1873        15  SAPS      H16Y            6.3852547254       19.8397460169        1.4232344741  MEMB      15              0.0000000000
      1874        15  SAPS      C317            4.6204608228       18.7138307812        0.7936566013  MEMB      15              0.0000000000
      1875        15  SAPS      H17X            4.3958169196       17.8359863379        0.1370452464  MEMB      15              0.0000000000
      1876        15  SAPS      H17Y            4.3266249058       19.5993739520        0.1959624812  MEMB      15              0.0000000000
      1877        15  SAPS      C318            3.8696364952       18.5827621562        2.0645190939  MEMB      15              0.0000000000
      1878        15  SAPS      H18X            4.0362501001       19.5402096528        2.5900082981  MEMB      15              0.0000000000
      1879        15  SAPS      H18Y            4.2572357714       17.7583318840        2.6962480530  MEMB      15              0.0000000000
      1880        15  SAPS      H18Z            2.8123603828       18.3853842202        1.8345760832  MEMB      15              0.0000000000
      1881        16  SAPC      N               6.4268138928      -13.3847009492       20.1580487547  MEMB      16              0.0000000000
      1882        16  SAPC      C12             7.4669263822      -14.1235528358       19.3512238116  MEMB      16              0.0000000000
      1883        16  SAPC      H12A            8.3884883191      -14.1087198580       19.9210344629  MEMB      16              0.0000000000
      1884        16  SAPC      H12B            7.6630921372      -13.5699916556       18.4426333006  MEMB      16              0.0000000000
      1885        16  SAPC      C13             6.4329347708      -13.8797539831       21.5692848881  MEMB      16              0.0000000000
      1886        16  SAPC      H13A            5.7978245625      -14.7673511072       21.6102174886  MEMB      16              0.0000000000
      1887        16  SAPC      H13B            7.4185273250      -14.2186350272       21.8767491291  MEMB      16              0.0000000000
      1888        16  SAPC      H13C            6.0415151467      -13.1386076163       22.2483402287  MEMB      16              0.0000000000
      1889        16  SAPC      C14             6.7423590408      -11.9365671834       20.1376623038  MEMB      16              0.0000000000
      1890        16  SAPC      H14A            7.7710678804      -11.8066532481       20.4315955464  MEMB      16              0.0000000000
      1891        16  SAPC      H14B            6.5825237730      -11.5321887606       19.1452262395  MEMB      16              0.0000000000
      1892        16  SAPC      H14C            6.0806757452      -11.3744596556       20.7910399013  MEMB      16              0.0000000000
      1893        16  SAPC      C15             5.0361682576      -13.5796603885       19.6512878074  MEMB      16              0.0000000000
      1894        16  SAPC      H15A            4.7003056175      -14.5961846436       19.8776649566  MEMB      16              0.0000000000
      1895        16  SAPC      H15B            4.3678187679      -12.8945466828       20.1625982382  MEMB      16              0.0000000000
      1896        16  SAPC      H15C            4.9372826615      -13.4300264950       18.5905115627  MEMB      16              0.0000000000
      1897        16  SAPC      C11             7.1635464739      -15.5851492643       18.9735276708  MEMB      16              0.0000000000
      1898        16  SAPC      H11A            8.0578063909      -15.9949990096       18.4500509088  MEMB      16              0.0000000000
      1899        16  SAPC      H11B            6.3186830058      -15.5647514307       18.2411948394  MEMB      16              0.0000000000
      1900        16  SAPC      P               5.5631001584      -17.2966945170       20.1515043518  MEMB      16              0.0000000000
      1901        16  SAPC      O13             5.6752357511      -18.2094133122       21.3058267450  MEMB      16              0.0000000000
      1902        16  SAPC      O14             4.3720662184      -16.4331545552       20.0678056300  MEMB      16              0.0000000000
      1903        16  SAPC      O12             6.8732214709      -16.3697978246       20.1312552597  MEMB      16              0.0000000000
      1904        16  SAPC      O11             5.6420310563      -18.0773116595       18.7726250098  MEMB      16              0.0000000000
      1905        16  SAPC      C1              6.5224124446      -19.1667390556       18.8034763159  MEMB      16              0.0000000000
      1906        16  SAPC      HA              7.5024388642      -18.6834495110       18.9967454640  MEMB      16              0.0000000000
      1907        16  SAPC      HB              6.2791406984      -19.8970760020       19.6229204187  MEMB      16              0.0000000000
      1908        16  SAPC      C2              6.6176628781      -19.9562937565       17.4810286094  MEMB      16              0.0000000000
      1909        16  SAPC      HS              7.3907475072      -20.7662084182       17.4886492942  MEMB      16              0.0000000000
      1910        16  SAPC      O21             6.9237856715      -19.0807189877       16.3956028983  MEMB      16              0.0000000000
      1911        16  SAPC      C21             7.8961725028      -18.2571333135       16.4399740004  MEMB      16              0.0000000000
      1912        16  SAPC      O22             8.8480984995      -18.2737557023       17.2103514546  MEMB      16              0.0000000000
      1913        16  SAPC      C22             7.6741172664      -17.2615783252       15.2999188470  MEMB      16              0.0000000000
      1914        16  SAPC      H2R             6.6509393819      -16.8861968139       15.4115045539  MEMB      16              0.0000000000
      1915        16  SAPC      H2S             8.4470278942      -16.4627138860       15.3740684125  MEMB      16              0.0000000000
      1916        16  SAPC      C3              5.3258355942      -20.7073607264       17.1788579332  MEMB      16              0.0000000000
      1917        16  SAPC      HX              4.4477476015      -20.0534204174       17.4031091385  MEMB      16              0.0000000000
      1918        16  SAPC      HY              5.1929733098      -21.6230011045       17.8066074056  MEMB      16              0.0000000000
      1919        16  SAPC      O31             5.4869923387      -21.0641888380       15.8023249514  MEMB      16              0.0000000000
      1920        16  SAPC      C31             5.0723894603      -20.1277255568       14.9290588192  MEMB      16              0.0000000000
      1921        16  SAPC      O32             4.3812112796      -19.1495425148       15.1803126970  MEMB      16              0.0000000000
      1922        16  SAPC      C32             5.2186442921      -20.7704746926       13.6109558776  MEMB      16              0.0000000000
      1923        16  SAPC      H2X             4.5973900110      -21.7103643990       13.5473879182  MEMB      16              0.0000000000
      1924        16  SAPC      H2Y             6.2073305469      -21.1766469719       13.4065663767  MEMB      16              0.0000000000
      1925        16  SAPC      C23             7.6820339711      -18.0071323868       13.9496077600  MEMB      16              0.0000000000
      1926        16  SAPC      H3R             7.4368502388      -19.0899423376       14.0076132563  MEMB      16              0.0000000000
      1927        16  SAPC      H3S             8.7158581668      -17.8862920882       13.8602885438  MEMB      16              0.0000000000
      1928        16  SAPC      C24             7.5689904928      -17.3808590466       12.5443933185  MEMB      16              0.0000000000
      1929        16  SAPC      H4R             6.7136203306      -16.7139981696       12.6416638171  MEMB      16              0.0000000000
      1930        16  SAPC      H4S             7.3169317657      -18.2598920481       11.9010098223  MEMB      16              0.0000000000
      1931        16  SAPC      C25             8.7084945231      -16.5651247740       11.9459803722  MEMB      16              0.0000000000
      1932        16  SAPC      H5R             9.0236714840      -15.6854730056       12.5049987739  MEMB      16              0.0000000000
      1933        16  SAPC      C26             9.3901425721      -16.8143135145       10.8396684925  MEMB      16              0.0000000000
      1934        16  SAPC      H6R            10.2812419508      -16.2252129557       10.6003017990  MEMB      16              0.0000000000
      1935        16  SAPC      C27             9.2103295258      -17.9582467073        9.9163713793  MEMB      16              0.0000000000
      1936        16  SAPC      H7R             9.6027761662      -18.8121889112       10.4662931096  MEMB      16              0.0000000000
      1937        16  SAPC      H7S             9.7032193749      -17.7418734499        8.9355111854  MEMB      16              0.0000000000
      1938        16  SAPC      C28             8.1565052782      -18.7838340164        9.5568418436  MEMB      16              0.0000000000
      1939        16  SAPC      H8R             8.2729021166      -19.8793341010        9.4008663782  MEMB      16              0.0000000000
      1940        16  SAPC      C29             7.1666529436      -18.1371193456        9.1372086661  MEMB      16              0.0000000000
      1941        16  SAPC      H9R             6.5276448983      -18.9188804432        9.0427442802  MEMB      16              0.0000000000
      1942        16  SAPC      C210            6.8044741778      -16.6936276049        8.9107701293  MEMB      16              0.0000000000
      1943        16  SAPC      H10R            7.7298805192      -16.0907851921        8.9307734204  MEMB      16              0.0000000000
      1944        16  SAPC      H10S            6.1282145767      -16.3438268325        9.7135006148  MEMB      16              0.0000000000
      1945        16  SAPC      C211            6.1351833366      -16.5169730908        7.5750821955  MEMB      16              0.0000000000
      1946        16  SAPC      H11R            5.0361268032      -16.4331596468        7.5998682090  MEMB      16              0.0000000000
      1947        16  SAPC      C212            6.8112205280      -16.4910166471        6.4227503066  MEMB      16              0.0000000000
      1948        16  SAPC      H12R            6.2729306186      -16.5630562189        5.4629455754  MEMB      16              0.0000000000
      1949        16  SAPC      C213            8.3107842030      -16.6265065770        6.4287087013  MEMB      16              0.0000000000
      1950        16  SAPC      H13R            8.6283243589      -17.5811820875        6.9071764578  MEMB      16              0.0000000000
      1951        16  SAPC      H13S            8.7581691165      -15.8254082177        7.0548835577  MEMB      16              0.0000000000
      1952        16  SAPC      C214            8.8943592367      -16.5152964409        5.0655479522  MEMB      16              0.0000000000
      1953        16  SAPC      H14R            9.0118443682      -15.4847036685        4.6917208128  MEMB      16              0.0000000000
      1954        16  SAPC      C215            9.2738958496      -17.5886877051        4.3572804301  MEMB      16              0.0000000000
      1955        16  SAPC      H15R            9.6869633240      -17.4527363634        3.3473973900  MEMB      16              0.0000000000
      1956        16  SAPC      C216            9.1507151035      -19.0166684804        4.8520716614  MEMB      16              0.0000000000
      1957        16  SAPC      H16R            8.1429455093      -19.1757326177        5.3016552728  MEMB      16              0.0000000000
      1958        16  SAPC      H16S            9.8731055466      -19.2537302992        5.6536976030  MEMB      16              0.0000000000
      1959        16  SAPC      C217            9.4638085133      -20.0248683373        3.7342601854  MEMB      16              0.0000000000
      1960        16  SAPC      H17R            9.3778748972      -21.1033336179        4.0255330552  MEMB      16              0.0000000000
      1961        16  SAPC      H17S           10.4793037371      -19.8737762308        3.3679684539  MEMB      16              0.0000000000
      1962        16  SAPC      C218            8.6608938327      -19.7781408230        2.4594861467  MEMB      16              0.0000000000
      1963        16  SAPC      H18R            8.7086919740      -20.6485115587        1.7152530730  MEMB      16              0.0000000000
      1964        16  SAPC      H18S            8.4880228635      -18.7552995201        2.0511282525  MEMB      16              0.0000000000
      1965        16  SAPC      C219            7.6116762570      -20.4330216521        2.3315150958  MEMB      16              0.0000000000
      1966        16  SAPC      H19R            7.4562307509      -19.7392422587        3.2949538039  MEMB      16              0.0000000000
      1967        16  SAPC      H19S            7.7038816710      -21.1402348770        3.0623764865  MEMB      16              0.0000000000
      1968        16  SAPC      C220            6.5762916391      -20.6841409815        0.9692449598  MEMB      16              0.0000000000
      1969        16  SAPC      H20R            5.4824004884      -20.9213360818        1.1010795287  MEMB      16              0.0000000000
      1970        16  SAPC      H20S            6.4659469397      -21.5819438689        0.3767885197  MEMB      16              0.0000000000
      1971        16  SAPC      H20T            6.3971085852      -19.7156779978        0.3948481952  MEMB      16              0.0000000000
      1972        16  SAPC      C33             4.9006609898      -19.6896014000       12.6065809087  MEMB      16              0.0000000000
      1973        16  SAPC      H3X             5.2848424388      -18.6771429142       12.7423454395  MEMB      16              0.0000000000
      1974        16  SAPC      H3Y             3.8580434844      -19.2395844370       12.6255241761  MEMB      16              0.0000000000
      1975        16  SAPC      C34             5.2193054174      -20.4793781060       11.3026725131  MEMB      16              0.0000000000
      1976        16  SAPC      H4X             6.2413549597      -20.4263426088       11.0027993289  MEMB      16              0.0000000000
      1977        16  SAPC      H4Y             5.0159408988      -19.4974580953       10.8709350595  MEMB      16              0.0000000000
      1978        16  SAPC      C35             4.5580408948      -21.9058039000       10.6564320351  MEMB      16              0.0000000000
      1979        16  SAPC      H5X             3.5034491101      -21.8602309278       10.3997800042  MEMB      16              0.0000000000
      1980        16  SAPC      H5Y             4.6436148641      -22.6817794438       11.4136984163  MEMB      16              0.0000000000
      1981        16  SAPC      C36             4.7259855770      -22.5610316570        9.1733349290  MEMB      16              0.0000000000
      1982        16  SAPC      H6X             4.4806134642      -23.6263106764        9.2178770539  MEMB      16              0.0000000000
      1983        16  SAPC      H6Y             5.8061529036      -22.4115266304        9.1255530929  MEMB      16              0.0000000000
      1984        16  SAPC      C37             3.7489592874      -22.3710023878        7.8353232164  MEMB      16              0.0000000000
      1985        16  SAPC      H7X             4.2527453455      -21.5261632543        7.6941646091  MEMB      16              0.0000000000
      1986        16  SAPC      H7Y             2.8397170824      -21.8346694208        7.8592258675  MEMB      16              0.0000000000
      1987        16  SAPC      C38             3.9806691757      -21.9336325782        6.3909573390  MEMB      16              0.0000000000
      1988        16  SAPC      H8X             4.1909379744      -22.9739769555        6.1183535962  MEMB      16              0.0000000000
      1989        16  SAPC      H8Y             4.7271867424      -21.1063022924        6.0629378404  MEMB      16              0.0000000000
      1990        16  SAPC      C39             3.1044429242      -21.2590578774        5.5001493816  MEMB      16              0.0000000000
      1991        16  SAPC      H9X             2.6607414531      -21.8471225764        4.7335984209  MEMB      16              0.0000000000
      1992        16  SAPC      H9Y             3.7447415771      -21.6930565103        4.7588429985  MEMB      16              0.0000000000
      1993        16  SAPC      C310            3.1875665766      -19.7272995180        5.4828947580  MEMB      16              0.0000000000
      1994        16  SAPC      H10X            4.1772334400      -19.1683239603        5.6328208761  MEMB      16              0.0000000000
      1995        16  SAPC      H10Y            2.5102478387      -19.5396128689        6.3054817541  MEMB      16              0.0000000000
      1996        16  SAPC      C311            2.6500141239      -19.2929248971        4.2434145733  MEMB      16              0.0000000000
      1997        16  SAPC      H11X            2.2256258851      -20.1581000036        3.7094786864  MEMB      16              0.0000000000
      1998        16  SAPC      H11Y            3.5085756023      -19.1911796438        3.7187948816  MEMB      16              0.0000000000
      1999        16  SAPC      C312            2.4418544253      -17.8478123778        3.8947756007  MEMB      16              0.0000000000
      2000        16  SAPC      H12X            1.5689942599      -17.6931079978        4.5267792733  MEMB      16              0.0000000000
      2001        16  SAPC      H12Y            2.2192250947      -17.8282015589        2.8050436862  MEMB      16              0.0000000000
      2002        16  SAPC      C313            3.5864026523      -16.8116806551        4.1152652292  MEMB      16              0.0000000000
      2003        16  SAPC      H13X            4.5403973478      -17.2958928075        4.4516199879  MEMB      16              0.0000000000
      2004        16  SAPC      H13Y            3.1664036268      -16.1758639813        4.9043841504  MEMB      16              0.0000000000
      2005        16  SAPC      C314            3.9726218447      -15.9417560627        2.8672123197  MEMB      16              0.0000000000
      2006        16  SAPC      H14X            3.0655853267      -15.6654404874        2.3096358763  MEMB      16              0.0000000000
      2007        16  SAPC      H14Y            4.6205290409      -16.3998499927        2.0988098723  MEMB      16              0.0000000000
      2008        16  SAPC      C315            4.9373817826      -14.8134465427        3.1659830460  MEMB      16              0.0000000000
      2009        16  SAPC      H15X            5.5916588224      -15.1053293434        4.0171462971  MEMB      16              0.0000000000
      2010        16  SAPC      H15Y            4.2462663915      -13.9985296030        3.4475012683  MEMB      16              0.0000000000
      2011        16  SAPC      C316            5.8359703811      -14.3792092115        1.9784761944  MEMB      16              0.0000000000
      2012        16  SAPC      H16X            6.0866922535      -13.3138728389        2.1802692140  MEMB      16              0.0000000000
      2013        16  SAPC      H16Y            5.2830625429      -14.4399122986        1.0155687079  MEMB      16              0.0000000000
      2014        16  SAPC      C317            7.1768420162      -15.1298381280        1.8296651572  MEMB      16              0.0000000000
      2015        16  SAPC      H17X            7.0125529456      -16.1608374288        1.4543721961  MEMB      16              0.0000000000
      2016        16  SAPC      H17Y            7.6249113984      -15.2011288705        2.8471134407  MEMB      16              0.0000000000
      2017        16  SAPC      C318            8.1719995786      -14.4763151109        0.8669133428  MEMB      16              0.0000000000
      2018        16  SAPC      H18X            8.7321856353      -13.7224002305        1.3779124168  MEMB      16              0.0000000000
      2019        16  SAPC      H18Y            7.6937832098      -13.9268705419        0.0325169577  MEMB      16              0.0000000000
      2020        16  SAPC      H18Z            8.9711524378      -15.1579047914        0.5197141197  MEMB      16              0.0000000000
      2021        17  CHL1      C3             16.7951380822       -5.2878125047       17.3096404424  MEMB      17              0.0000000000
      2022        17  CHL1      H3             17.6198130465       -5.9755490083       17.0338635522  MEMB      17              0.0000000000
      2023        17  CHL1      O3             16.5089303701       -5.4108942317       18.6769061059  MEMB      17              0.0000000000
      2024        17  CHL1      H3'            17.3739360794       -5.4922929260       19.0882963107  MEMB      17              0.0000000000
      2025        17  CHL1      C4             17.2582276329       -3.8629135169       16.9966297834  MEMB      17              0.0000000000
      2026        17  CHL1      H4A            16.4146627429       -3.1639376965       17.2764989218  MEMB      17              0.0000000000
      2027        17  CHL1      H4B            18.1086324583       -3.5657088998       17.6247890203  MEMB      17              0.0000000000
      2028        17  CHL1      C5             17.7072788486       -3.8363342358       15.5402084977  MEMB      17              0.0000000000
      2029        17  CHL1      C6             18.8059959081       -3.2841398617       15.0690835775  MEMB      17              0.0000000000
      2030        17  CHL1      H6             19.5432383997       -2.8906598971       15.7756207613  MEMB      17              0.0000000000
      2031        17  CHL1      C7             18.9806150950       -3.1355505369       13.5771951943  MEMB      17              0.0000000000
      2032        17  CHL1      H7A            19.4578436510       -2.1645826466       13.3299605687  MEMB      17              0.0000000000
      2033        17  CHL1      H7B            19.5564756675       -4.0524610725       13.3350542706  MEMB      17              0.0000000000
      2034        17  CHL1      C8             17.8378182883       -3.3459845172       12.5572045266  MEMB      17              0.0000000000
      2035        17  CHL1      H8             17.2285058652       -2.4140475746       12.5731492963  MEMB      17              0.0000000000
      2036        17  CHL1      C14            18.2012728701       -3.5880374772       11.0638836732  MEMB      17              0.0000000000
      2037        17  CHL1      H14            18.9488300969       -4.4224563497       11.1083441159  MEMB      17              0.0000000000
      2038        17  CHL1      C15            18.7996420281       -2.4238790452       10.3039034189  MEMB      17              0.0000000000
      2039        17  CHL1      H15A           18.3709395089       -1.4274502371       10.4988333186  MEMB      17              0.0000000000
      2040        17  CHL1      H15B           19.7350874730       -2.4342279544       10.7168287301  MEMB      17              0.0000000000
      2041        17  CHL1      C16            18.8381013418       -2.7863955932        8.8184602789  MEMB      17              0.0000000000
      2042        17  CHL1      H16A           18.4042753933       -1.9052633060        8.2978626729  MEMB      17              0.0000000000
      2043        17  CHL1      H16B           19.8597606838       -2.9417552156        8.4171472519  MEMB      17              0.0000000000
      2044        17  CHL1      C17            17.9490513221       -4.0634844741        8.7178410459  MEMB      17              0.0000000000
      2045        17  CHL1      H17            18.6193056493       -4.9458857986        8.8085389670  MEMB      17              0.0000000000
      2046        17  CHL1      C13            17.1477431571       -4.0371149845       10.0423878973  MEMB      17              0.0000000000
      2047        17  CHL1      C18            16.1642816726       -2.8490482284        9.7676454897  MEMB      17              0.0000000000
      2048        17  CHL1      H18A           15.3609460626       -3.1310122176        9.0526679225  MEMB      17              0.0000000000
      2049        17  CHL1      H18B           15.7562190004       -2.3879700958       10.6600060452  MEMB      17              0.0000000000
      2050        17  CHL1      H18C           16.6067092092       -1.8887975673        9.4920653026  MEMB      17              0.0000000000
      2051        17  CHL1      C12            16.5762927636       -5.3791730522       10.6051650780  MEMB      17              0.0000000000
      2052        17  CHL1      H12A           15.6314858586       -5.6335992344       10.0782654465  MEMB      17              0.0000000000
      2053        17  CHL1      H12B           17.2613668341       -6.2439445016       10.6584479428  MEMB      17              0.0000000000
      2054        17  CHL1      C11            16.2770886230       -5.2401832817       12.0951697467  MEMB      17              0.0000000000
      2055        17  CHL1      H11A           15.9611497747       -4.2379593780       11.9290289805  MEMB      17              0.0000000000
      2056        17  CHL1      H11B           15.4839508149       -5.8898534223       12.4914212627  MEMB      17              0.0000000000
      2057        17  CHL1      C9             17.2400148650       -4.6313612679       13.1022872058  MEMB      17              0.0000000000
      2058        17  CHL1      H9             18.0024476461       -5.4186332532       13.1919604537  MEMB      17              0.0000000000
      2059        17  CHL1      C10            16.7591288149       -4.4558967396       14.5449012493  MEMB      17              0.0000000000
      2060        17  CHL1      C19            16.0208406331       -3.1904854647       14.6425044014  MEMB      17              0.0000000000
      2061        17  CHL1      H19A           16.3078082189       -2.1679333666       14.3427145550  MEMB      17              0.0000000000
      2062        17  CHL1      H19B           15.2679455061       -3.3754438874       13.9716770344  MEMB      17              0.0000000000
      2063        17  CHL1      H19C           15.5185662465       -3.2236206115       15.5930212007  MEMB      17              0.0000000000
      2064        17  CHL1      C1             15.9622716138       -5.7218537948       15.0388628005  MEMB      17              0.0000000000
      2065        17  CHL1      H1A            15.0421653372       -5.9906969386       14.4758637667  MEMB      17              0.0000000000
      2066        17  CHL1      H1B            16.6891135323       -6.5405408538       14.8819628408  MEMB      17              0.0000000000
      2067        17  CHL1      C2             15.5757723572       -5.7203169133       16.5170055458  MEMB      17              0.0000000000
      2068        17  CHL1      H2A            15.1615849912       -6.7022088518       16.8349498823  MEMB      17              0.0000000000
      2069        17  CHL1      H2B            14.7778574119       -5.0085203988       16.7321838013  MEMB      17              0.0000000000
      2070        17  CHL1      C20            17.2582148052       -4.1502259666        7.3337324723  MEMB      17              0.0000000000
      2071        17  CHL1      H20            16.7172389376       -3.2020922609        7.1071897848  MEMB      17              0.0000000000
      2072        17  CHL1      C21            16.2083476164       -5.2845602520        7.2518322509  MEMB      17              0.0000000000
      2073        17  CHL1      H21A           15.8741450437       -5.3995872933        6.2002800335  MEMB      17              0.0000000000
      2074        17  CHL1      H21B           15.2996121595       -5.0071314536        7.8257427062  MEMB      17              0.0000000000
      2075        17  CHL1      H21C           16.5915838741       -6.2586775326        7.6169517339  MEMB      17              0.0000000000
      2076        17  CHL1      C22            18.3427015635       -4.2578689912        6.2259562818  MEMB      17              0.0000000000
      2077        17  CHL1      H22A           18.9180848116       -3.3038771020        6.2012338621  MEMB      17              0.0000000000
      2078        17  CHL1      H22B           19.0431603135       -5.0674607488        6.5180382204  MEMB      17              0.0000000000
      2079        17  CHL1      C23            17.8766981643       -4.4621492974        4.7730457869  MEMB      17              0.0000000000
      2080        17  CHL1      H23A           17.3433870075       -5.4268237508        4.6500534811  MEMB      17              0.0000000000
      2081        17  CHL1      H23B           17.1739935900       -3.6488735585        4.4953428120  MEMB      17              0.0000000000
      2082        17  CHL1      C24            19.0819532133       -4.4359068216        3.8170182966  MEMB      17              0.0000000000
      2083        17  CHL1      H24A           19.5776860678       -3.4387434857        3.9168320330  MEMB      17              0.0000000000
      2084        17  CHL1      H24B           19.8160965724       -5.1992798841        4.1463057304  MEMB      17              0.0000000000
      2085        17  CHL1      C25            18.7331551742       -4.6218638103        2.3223274336  MEMB      17              0.0000000000
      2086        17  CHL1      H25            18.1859765491       -3.6913005050        2.0427067868  MEMB      17              0.0000000000
      2087        17  CHL1      C26            19.9912888071       -4.7172240051        1.4473674202  MEMB      17              0.0000000000
      2088        17  CHL1      H26A           20.5778293440       -3.7774126111        1.4520790915  MEMB      17              0.0000000000
      2089        17  CHL1      H26B           20.6532277617       -5.5321717712        1.8073017500  MEMB      17              0.0000000000
      2090        17  CHL1      H26C           19.6769340355       -4.9602682078        0.4075247041  MEMB      17              0.0000000000
      2091        17  CHL1      C27            17.8333111787       -5.8197605022        1.9479470990  MEMB      17              0.0000000000
      2092        17  CHL1      H27A           16.9760752924       -5.9791102826        2.6173409368  MEMB      17              0.0000000000
      2093        17  CHL1      H27B           17.4362715255       -5.6372007072        0.9227621062  MEMB      17              0.0000000000
      2094        17  CHL1      H27C           18.3839091052       -6.7758816508        1.9499125954  MEMB      17              0.0000000000
      2095        18  OSM       N             -16.6474141116        1.4053716337       22.7073303289  MEMB      18              0.0000000000
      2096        18  OSM       C15           -18.0699300184        0.9978749871       22.5251861325  MEMB      18              0.0000000000
      2097        18  OSM       H15A          -18.1076174603       -0.0415472794       22.1848575054  MEMB      18              0.0000000000
      2098        18  OSM       H15B          -18.5328262308        1.5774056116       21.7417176255  MEMB      18              0.0000000000
      2099        18  OSM       H15C          -18.6000622378        1.1232727140       23.4576293522  MEMB      18              0.0000000000
      2100        18  OSM       C14           -16.6829788574        2.8078222353       23.1868871306  MEMB      18              0.0000000000
      2101        18  OSM       H14A          -16.8976537788        3.5048659476       22.3838947725  MEMB      18              0.0000000000
      2102        18  OSM       H14B          -15.7263911324        3.0715698817       23.6113523739  MEMB      18              0.0000000000
      2103        18  OSM       H14C          -17.4585344546        2.8876043180       23.9318759211  MEMB      18              0.0000000000
      2104        18  OSM       C13           -16.0158092886        0.5537905834       23.7618106829  MEMB      18              0.0000000000
      2105        18  OSM       H13A          -15.8665895497       -0.4515151145       23.3902059414  MEMB      18              0.0000000000
      2106        18  OSM       H13B          -16.6476609635        0.5377284429       24.6390368642  MEMB      18              0.0000000000
      2107        18  OSM       H13C          -15.0542831901        0.9607819598       24.0553567025  MEMB      18              0.0000000000
      2108        18  OSM       C12           -15.8568862389        1.3340527097       21.4165086580  MEMB      18              0.0000000000
      2109        18  OSM       H12A          -14.8471102568        1.6916696146       21.5846873249  MEMB      18              0.0000000000
      2110        18  OSM       H12B          -16.3052424527        2.0028902471       20.6913350236  MEMB      18              0.0000000000
      2111        18  OSM       C11           -15.7484030079       -0.0347322910       20.7222121879  MEMB      18              0.0000000000
      2112        18  OSM       H11A          -15.2458932484       -0.7786309128       21.3814549246  MEMB      18              0.0000000000
      2113        18  OSM       H11B          -15.1169419317        0.1418943939       19.8148524938  MEMB      18              0.0000000000
      2114        18  OSM       P             -17.1885963908       -1.7192643949       19.3568622306  MEMB      18              0.0000000000
      2115        18  OSM       O13           -15.9114212315       -2.4644338920       19.2836191697  MEMB      18              0.0000000000
      2116        18  OSM       O14           -18.4083893342       -2.4378342173       19.7796782222  MEMB      18              0.0000000000
      2117        18  OSM       O11           -17.4214020761       -0.9195622729       18.0043351495  MEMB      18              0.0000000000
      2118        18  OSM       O12           -17.0406105844       -0.4985868455       20.3677375074  MEMB      18              0.0000000000
      2119        18  OSM       C1S           -18.4819885938        0.0382278287       18.0659274809  MEMB      18              0.0000000000
      2120        18  OSM       H1S           -18.2238861613        0.8251088527       18.7998760360  MEMB      18              0.0000000000
      2121        18  OSM       H1T           -19.4358983370       -0.4567466224       18.3724586084  MEMB      18              0.0000000000
      2122        18  OSM       NF            -19.0970113454       -0.1843070908       15.7232604986  MEMB      18              0.0000000000
      2123        18  OSM       HNF           -18.4690599951       -0.6754440975       15.1506226307  MEMB      18              0.0000000000
      2124        18  OSM       C2S           -18.7027854189        0.7571548083       16.7081034860  MEMB      18              0.0000000000
      2125        18  OSM       H2S           -19.5243863181        1.5125390396       16.8493955490  MEMB      18              0.0000000000
      2126        18  OSM       C3S           -17.4601612206        1.4983541566       16.2548084573  MEMB      18              0.0000000000
      2127        18  OSM       H3S           -16.7007805477        0.7260840254       16.0000133925  MEMB      18              0.0000000000
      2128        18  OSM       O3            -16.9457301163        2.3260436075       17.2841496393  MEMB      18              0.0000000000
      2129        18  OSM       HO3           -17.2314764937        1.8815940045       18.0815829934  MEMB      18              0.0000000000
      2130        18  OSM       C4S           -17.7804496243        2.3314243055       15.0576411356  MEMB      18              0.0000000000
      2131        18  OSM       H4S           -18.3527043341        3.2532453595       15.2307379421  MEMB      18              0.0000000000
      2132        18  OSM       C5S           -17.4017910958        1.9939237666       13.8210017540  MEMB      18              0.0000000000
      2133        18  OSM       H5S           -16.8740716017        1.0506858917       13.6486162152  MEMB      18              0.0000000000
      2134        18  OSM       C6S           -17.6790203461        2.7723804699       12.5966956313  MEMB      18              0.0000000000
      2135        18  OSM       H6S           -16.8296789780        2.7856948773       11.8782299272  MEMB      18              0.0000000000
      2136        18  OSM       H6T           -17.9766373328        3.8038527213       12.8374715819  MEMB      18              0.0000000000
      2137        18  OSM       C7S           -18.8350180605        2.1343286667       11.9206175379  MEMB      18              0.0000000000
      2138        18  OSM       H7S           -19.7164114220        2.3293919103       12.5688318749  MEMB      18              0.0000000000
      2139        18  OSM       H7T           -18.7302210980        1.0402714235       11.7340485715  MEMB      18              0.0000000000
      2140        18  OSM       C8S           -18.9277578781        2.8059341275       10.6069613375  MEMB      18              0.0000000000
      2141        18  OSM       H8S           -18.0315962097        2.6588248245        9.9919087920  MEMB      18              0.0000000000
      2142        18  OSM       H8T           -19.1957633590        3.8873215886       10.6739476785  MEMB      18              0.0000000000
      2143        18  OSM       C9S           -19.9723570735        2.2730379901        9.7908313627  MEMB      18              0.0000000000
      2144        18  OSM       H9S           -20.7472828943        2.5602301205       10.4776596534  MEMB      18              0.0000000000
      2145        18  OSM       H9T           -20.0693876665        1.1692548696        9.6413489738  MEMB      18              0.0000000000
      2146        18  OSM       C10S          -19.7903368556        3.2106331680        8.6126245327  MEMB      18              0.0000000000
      2147        18  OSM       H10S          -20.3973928949        4.1068438805        8.3711785036  MEMB      18              0.0000000000
      2148        18  OSM       H10T          -20.7891737613        3.1080526771        8.4234509904  MEMB      18              0.0000000000
      2149        18  OSM       C11S          -18.6855397248        2.4906283511        7.6541960018  MEMB      18              0.0000000000
      2150        18  OSM       H11S          -18.7069828209        1.4367587362        7.9533413231  MEMB      18              0.0000000000
      2151        18  OSM       H11T          -17.9177090438        3.1693281800        8.0781595646  MEMB      18              0.0000000000
      2152        18  OSM       C12S          -18.6123136051        2.2273004014        5.9730733560  MEMB      18              0.0000000000
      2153        18  OSM       H12S          -17.7945994675        2.5163326503        5.3998430697  MEMB      18              0.0000000000
      2154        18  OSM       H12T          -18.8307417096        3.2501393466        6.4493503735  MEMB      18              0.0000000000
      2155        18  OSM       C13S          -19.6878890651        1.2144740541        4.7994955431  MEMB      18              0.0000000000
      2156        18  OSM       H13S          -20.6160780184        1.7601266296        4.5014790051  MEMB      18              0.0000000000
      2157        18  OSM       H13T          -20.0959613628        0.2730196049        5.1589239492  MEMB      18              0.0000000000
      2158        18  OSM       C14S          -20.3608922542        1.2261095959        3.3817854365  MEMB      18              0.0000000000
      2159        18  OSM       H14S          -20.4686707284        2.0747520903        2.7082729407  MEMB      18              0.0000000000
      2160        18  OSM       H14T          -21.4250823425        1.0492859419        3.0108621496  MEMB      18              0.0000000000
      2161        18  OSM       C15S          -19.0180971930        0.6598103076        3.2281153732  MEMB      18              0.0000000000
      2162        18  OSM       H15S          -19.2317650100       -0.3841114748        3.4872612393  MEMB      18              0.0000000000
      2163        18  OSM       H15T          -18.0939584096        1.0474663647        3.7864539199  MEMB      18              0.0000000000
      2164        18  OSM       C16S          -18.5686336830        1.1672248442        1.9841674287  MEMB      18              0.0000000000
      2165        18  OSM       H16S          -18.3467638610        2.1678378330        1.9825605105  MEMB      18              0.0000000000
      2166        18  OSM       H16T          -19.5780349568        0.9850448182        1.5769799656  MEMB      18              0.0000000000
      2167        18  OSM       C17S          -17.2258671406        0.8107742553        1.3282032569  MEMB      18              0.0000000000
      2168        18  OSM       H17S          -17.0932223010       -0.1689289977        1.6418221457  MEMB      18              0.0000000000
      2169        18  OSM       H17T          -16.5252645391        1.1106477531        2.0543184899  MEMB      18              0.0000000000
      2170        18  OSM       C18S          -16.8423717765        1.0155737464       -0.2077633361  MEMB      18              0.0000000000
      2171        18  OSM       H18S          -15.9858676756        0.4480916113       -0.5856178395  MEMB      18              0.0000000000
      2172        18  OSM       H18T          -17.0852651905        2.0259157122       -0.4828140888  MEMB      18              0.0000000000
      2173        18  OSM       H18U          -17.4250235411        0.7165531696       -1.1032092552  MEMB      18              0.0000000000
      2174        18  OSM       C1F           -20.2504365873       -0.6990638804       15.7881253537  MEMB      18              0.0000000000
      2175        18  OSM       OF            -21.0197582871       -0.2839274283       16.6587192256  MEMB      18              0.0000000000
      2176        18  OSM       C2F           -20.5403903018       -1.5841272300       14.5821638154  MEMB      18              0.0000000000
      2177        18  OSM       H2F           -20.8842578293       -0.9465793623       13.7390635006  MEMB      18              0.0000000000
      2178        18  OSM       H2G           -21.2793323065       -2.3649228379       14.7417022680  MEMB      18              0.0000000000
      2179        18  OSM       C3F           -19.3938085497       -2.1967429879       13.8771567504  MEMB      18              0.0000000000
      2180        18  OSM       H3F           -18.8886043736       -2.7349584671       14.7020003813  MEMB      18              0.0000000000
      2181        18  OSM       H3G           -18.8455564273       -1.3352520580       13.4371315306  MEMB      18              0.0000000000
      2182        18  OSM       C4F           -19.7851242086       -3.1865761346       12.7831394055  MEMB      18              0.0000000000
      2183        18  OSM       H4F           -20.4887109487       -2.8289475547       12.0081334976  MEMB      18              0.0000000000
      2184        18  OSM       H4G           -20.2655230088       -4.0664610182       13.2048173513  MEMB      18              0.0000000000
      2185        18  OSM       C5F           -18.5181935910       -3.6724861284       12.1531665703  MEMB      18              0.0000000000
      2186        18  OSM       H5F           -18.7540371785       -4.4463695745       11.3911778450  MEMB      18              0.0000000000
      2187        18  OSM       H5G           -17.8943040904       -4.1584052378       12.9477128917  MEMB      18              0.0000000000
      2188        18  OSM       C6F           -17.7832073387       -2.5215377094       11.4768354807  MEMB      18              0.0000000000
      2189        18  OSM       H6F           -16.9822996433       -3.1175165203       11.0857550177  MEMB      18              0.0000000000
      2190        18  OSM       H6G           -17.3868834085       -1.7397874078       12.1598812304  MEMB      18              0.0000000000
      2191        18  OSM       C7F           -18.5183691987       -1.8139814019       10.3432114972  MEMB      18              0.0000000000
      2192        18  OSM       H7F           -19.2604754827       -1.1818457385       10.8668956563  MEMB      18              0.0000000000
      2193        18  OSM       H7G           -19.0525127300       -2.5784603811        9.7393713908  MEMB      18              0.0000000000
      2194        18  OSM       C8F           -17.7218786967       -0.8206260780        9.4617969085  MEMB      18              0.0000000000
      2195        18  OSM       H8F           -17.3391592132        0.0287855624       10.0505199059  MEMB      18              0.0000000000
      2196        18  OSM       H8G           -18.4217892575       -0.4233614955        8.7018298913  MEMB      18              0.0000000000
      2197        18  OSM       C9F           -16.5537214643       -1.3408937390        8.7432216554  MEMB      18              0.0000000000
      2198        18  OSM       H9F           -15.5600921224       -1.1588632183        9.1455271781  MEMB      18              0.0000000000
      2199        18  OSM       C10F          -16.5814427229       -2.0295568995        7.6558105674  MEMB      18              0.0000000000
      2200        18  OSM       H10F          -15.7232256613       -2.4442376078        7.2983295349  MEMB      18              0.0000000000
      2201        18  OSM       C11F          -17.6321821779       -2.4840376693        6.8380288772  MEMB      18              0.0000000000
      2202        18  OSM       H11F          -18.4954365688       -2.6378539814        7.4942784665  MEMB      18              0.0000000000
      2203        18  OSM       H11G          -17.3741583914       -3.4778767241        6.4049660272  MEMB      18              0.0000000000
      2204        18  OSM       C12F          -17.9160387637       -1.3859567979        5.8412015357  MEMB      18              0.0000000000
      2205        18  OSM       H12F          -18.1668811334       -0.4113646575        6.2410359539  MEMB      18              0.0000000000
      2206        18  OSM       H12G          -18.9522678838       -1.6476712726        5.5420836959  MEMB      18              0.0000000000
      2207        18  OSM       C13F          -16.8731303167       -1.2377639661        4.6891868549  MEMB      18              0.0000000000
      2208        18  OSM       H13F          -17.3405070600       -0.7960208006        3.8015165661  MEMB      18              0.0000000000
      2209        18  OSM       H13G          -16.6242152386       -2.2212881897        4.2498901459  MEMB      18              0.0000000000
      2210        18  OSM       C14F          -15.6907602118       -0.3883805955        5.0661942994  MEMB      18              0.0000000000
      2211        18  OSM       H14F          -14.9746002297       -1.0142334343        5.6212129633  MEMB      18              0.0000000000
      2212        18  OSM       H14G          -16.0803603869        0.4083411541        5.7101251851  MEMB      18              0.0000000000
      2213        18  OSM       C15F          -14.9770568227        0.1968025096        3.8903261535  MEMB      18              0.0000000000
      2214        18  OSM       H15F          -13.9704387947        0.5497875003        4.2366131366  MEMB      18              0.0000000000
      2215        18  OSM       H15G          -15.4233024127        1.0951456734        3.4688818619  MEMB      18              0.0000000000
      2216        18  OSM       C16F          -15.0277360812       -0.8451834831        2.8007977100  MEMB      18              0.0000000000
      2217        18  OSM       H16F          -15.7651065157       -1.1909216557        2.1083223004  MEMB      18              0.0000000000
      2218        18  OSM       H16G          -14.4664468426       -1.6370327203        2.9227042242  MEMB      18              0.0000000000
      2219        18  OSM       C17F          -13.9498311416       -0.7134256952        2.0174702515  MEMB      18              0.0000000000
      2220        18  OSM       H17F          -13.0195603376       -0.6869634516        2.6778493357  MEMB      18              0.0000000000
      2221        18  OSM       H17G          -14.3767502610        0.2325063959        1.5529295057  MEMB      18              0.0000000000
      2222        18  OSM       C18F          -13.3914878131       -1.6404732592        1.0219632049  MEMB      18              0.0000000000
      2223        18  OSM       H18F          -12.8754783403       -2.5609526240        1.2440064333  MEMB      18              0.0000000000
      2224        18  OSM       H18G          -12.5083257880       -1.1776814030        0.5106156956  MEMB      18              0.0000000000
      2225        18  OSM       H18H          -14.2694309502       -1.6445839462        0.3976535862  MEMB      18              0.0000000000
      2226        19  SLPC      N              -0.7583828941      -18.1930299625       15.1832905642  MEMB      19              0.0000000000
      2227        19  SLPC      C13            -0.3803669454      -19.4586552198       15.9352150555  MEMB      19              0.0000000000
      2228        19  SLPC      H13A            0.6587277644      -19.7526634753       15.8119763613  MEMB      19              0.0000000000
      2229        19  SLPC      H13B           -0.5392351591      -19.3104153617       17.0063172790  MEMB      19              0.0000000000
      2230        19  SLPC      H13C           -1.0002468898      -20.2996002040       15.6377906259  MEMB      19              0.0000000000
      2231        19  SLPC      C14            -0.5973342840      -18.3540362660       13.7709703756  MEMB      19              0.0000000000
      2232        19  SLPC      H14A           -1.1699297676      -19.2257680712       13.5684033821  MEMB      19              0.0000000000
      2233        19  SLPC      H14B           -1.0240177777      -17.7226422461       13.0224676557  MEMB      19              0.0000000000
      2234        19  SLPC      H14C            0.3886741466      -18.7653332522       13.5736390604  MEMB      19              0.0000000000
      2235        19  SLPC      C15             0.2597488466      -17.1402498018       15.3767595241  MEMB      19              0.0000000000
      2236        19  SLPC      H15A            0.0726679997      -16.3573318497       14.6515295526  MEMB      19              0.0000000000
      2237        19  SLPC      H15B            0.2159638328      -16.7970184304       16.3970404647  MEMB      19              0.0000000000
      2238        19  SLPC      H15C            1.2541571844      -17.5339437729       15.1550086521  MEMB      19              0.0000000000
      2239        19  SLPC      C12            -2.1830863948      -17.8045359699       15.4584514137  MEMB      19              0.0000000000
      2240        19  SLPC      H12A           -2.8562392801      -18.5382836824       15.0199338453  MEMB      19              0.0000000000
      2241        19  SLPC      H12B           -2.3996440419      -16.8764028797       14.9452674192  MEMB      19              0.0000000000
      2242        19  SLPC      C11            -2.6233187140      -17.7272080532       16.9245854206  MEMB      19              0.0000000000
      2243        19  SLPC      H11A           -2.7359103444      -18.7502450938       17.3529655256  MEMB      19              0.0000000000
      2244        19  SLPC      H11B           -3.6447303593      -17.2655145998       16.8757693386  MEMB      19              0.0000000000
      2245        19  SLPC      P              -2.3066351321      -16.2327851243       18.9749308862  MEMB      19              0.0000000000
      2246        19  SLPC      O13            -3.1911061217      -17.1329496923       19.7320315332  MEMB      19              0.0000000000
      2247        19  SLPC      O14            -1.2672521702      -15.4933759950       19.7376478320  MEMB      19              0.0000000000
      2248        19  SLPC      O12            -1.6850696133      -16.9930644379       17.7155485507  MEMB      19              0.0000000000
      2249        19  SLPC      O11            -3.1959990133      -15.2104983901       18.1962132441  MEMB      19              0.0000000000
      2250        19  SLPC      C1             -2.4954494112      -14.4773856060       17.1997049543  MEMB      19              0.0000000000
      2251        19  SLPC      HA             -1.8544862574      -13.6849989717       17.6598590229  MEMB      19              0.0000000000
      2252        19  SLPC      HB             -1.9288822082      -15.0793893745       16.4654477147  MEMB      19              0.0000000000
      2253        19  SLPC      C2             -3.5162602331      -13.8545650921       16.3172237963  MEMB      19              0.0000000000
      2254        19  SLPC      HS             -4.2078956396      -13.4976288421       17.0893262835  MEMB      19              0.0000000000
      2255        19  SLPC      O21            -4.1585597211      -14.8022264118       15.4271573727  MEMB      19              0.0000000000
      2256        19  SLPC      C21            -5.4535621974      -14.9918732518       15.2287766805  MEMB      19              0.0000000000
      2257        19  SLPC      O22            -6.4332057954      -14.3526135309       15.4319964792  MEMB      19              0.0000000000
      2258        19  SLPC      C22            -5.7525782784      -16.3374735249       14.7305630826  MEMB      19              0.0000000000
      2259        19  SLPC      H2R            -5.2923284481      -17.0451088700       15.4302680079  MEMB      19              0.0000000000
      2260        19  SLPC      H2S            -6.8637481902      -16.4511584559       14.8278984913  MEMB      19              0.0000000000
      2261        19  SLPC      C3             -2.7730977545      -12.7410832628       15.5333353682  MEMB      19              0.0000000000
      2262        19  SLPC      HX             -2.6507190492      -11.7571321042       16.0327859530  MEMB      19              0.0000000000
      2263        19  SLPC      HY             -3.5522920558      -12.5869897376       14.8717335042  MEMB      19              0.0000000000
      2264        19  SLPC      O31            -1.6166494966      -13.1556436929       14.7821105507  MEMB      19              0.0000000000
      2265        19  SLPC      C31            -1.6687697821      -12.9633770905       13.4649124235  MEMB      19              0.0000000000
      2266        19  SLPC      O32            -2.5624993349      -12.4955748207       12.8196214744  MEMB      19              0.0000000000
      2267        19  SLPC      C32            -0.3725602770      -13.2473373579       12.8263876999  MEMB      19              0.0000000000
      2268        19  SLPC      H2X             0.4200269739      -13.3097058913       13.5714179836  MEMB      19              0.0000000000
      2269        19  SLPC      H2Y            -0.2839050584      -12.4547219799       12.0793026209  MEMB      19              0.0000000000
      2270        19  SLPC      C23            -5.3120899825      -16.4109398845       13.2780317858  MEMB      19              0.0000000000
      2271        19  SLPC      H3R            -5.8020722021      -17.3309399295       12.8952262642  MEMB      19              0.0000000000
      2272        19  SLPC      H3S            -4.2097995817      -16.4879494109       13.1930292974  MEMB      19              0.0000000000
      2273        19  SLPC      C24            -5.6703212861      -15.2237058972       12.3879962571  MEMB      19              0.0000000000
      2274        19  SLPC      H4R            -5.3572928125      -14.2172369232       12.7326353621  MEMB      19              0.0000000000
      2275        19  SLPC      H4S            -6.7349645341      -15.0801963339       12.3497329522  MEMB      19              0.0000000000
      2276        19  SLPC      C25            -5.1940641192      -15.4365165567       10.9599774776  MEMB      19              0.0000000000
      2277        19  SLPC      H5R            -6.1231446865      -15.4540353999       10.3607309921  MEMB      19              0.0000000000
      2278        19  SLPC      H5S            -4.8207717390      -16.4520160680       10.7782522047  MEMB      19              0.0000000000
      2279        19  SLPC      C26            -4.1300004842      -14.3591601801       10.6362627117  MEMB      19              0.0000000000
      2280        19  SLPC      H6R            -3.2489987127      -14.5700341320       11.2442906783  MEMB      19              0.0000000000
      2281        19  SLPC      H6S            -4.5725703947      -13.3595184747       10.9215715299  MEMB      19              0.0000000000
      2282        19  SLPC      C27            -3.5397051424      -14.2981911718        9.2132080271  MEMB      19              0.0000000000
      2283        19  SLPC      H7R            -4.1938643077      -13.4555301939        9.0402791746  MEMB      19              0.0000000000
      2284        19  SLPC      H7S            -3.8166595251      -15.1428932100        8.5445832738  MEMB      19              0.0000000000
      2285        19  SLPC      C28            -2.5896875410      -13.2330344585        8.6758952487  MEMB      19              0.0000000000
      2286        19  SLPC      H8R            -1.6711928765      -13.7412509172        8.9733938532  MEMB      19              0.0000000000
      2287        19  SLPC      H8S            -2.7757373329      -12.2971477424        9.2728602949  MEMB      19              0.0000000000
      2288        19  SLPC      C29            -2.7005597038      -12.8851061567        7.1926138997  MEMB      19              0.0000000000
      2289        19  SLPC      H9R            -3.6222077010      -12.3307898560        6.9126652737  MEMB      19              0.0000000000
      2290        19  SLPC      C210           -1.8966749282      -13.3278237500        6.2085595982  MEMB      19              0.0000000000
      2291        19  SLPC      H10R           -2.0817006693      -12.9749810522        5.1799927899  MEMB      19              0.0000000000
      2292        19  SLPC      C211           -0.7180396473      -14.2645863731        6.3805275017  MEMB      19              0.0000000000
      2293        19  SLPC      H11R           -1.0539764968      -15.2734423924        6.0529235156  MEMB      19              0.0000000000
      2294        19  SLPC      H11S           -0.4487195006      -14.3845497615        7.4517937254  MEMB      19              0.0000000000
      2295        19  SLPC      C212            0.5438227656      -13.9480846449        5.6165858102  MEMB      19              0.0000000000
      2296        19  SLPC      H12R            1.3811207266      -13.5470826698        6.2056608133  MEMB      19              0.0000000000
      2297        19  SLPC      C213            0.7419415096      -14.1305773509        4.3041156304  MEMB      19              0.0000000000
      2298        19  SLPC      H13R            1.6843374978      -13.7873544486        3.8534311492  MEMB      19              0.0000000000
      2299        19  SLPC      C214           -0.2437512593      -14.6772070967        3.3177225403  MEMB      19              0.0000000000
      2300        19  SLPC      H14R           -0.1885747619      -13.9532776142        2.4845338803  MEMB      19              0.0000000000
      2301        19  SLPC      H14S           -1.2859923012      -14.6663949586        3.7014612120  MEMB      19              0.0000000000
      2302        19  SLPC      C215            0.0071135428      -16.1346700585        2.8646929404  MEMB      19              0.0000000000
      2303        19  SLPC      H15R           -0.2377598030      -16.8022794698        3.7107095540  MEMB      19              0.0000000000
      2304        19  SLPC      H15S            1.0603600592      -16.2717843484        2.5509478055  MEMB      19              0.0000000000
      2305        19  SLPC      C216           -0.8620236396      -16.6507801836        1.7263963733  MEMB      19              0.0000000000
      2306        19  SLPC      H16R           -1.9403233995      -16.3768409939        1.8747566767  MEMB      19              0.0000000000
      2307        19  SLPC      H16S           -0.7513699793      -17.7225528958        1.4956905172  MEMB      19              0.0000000000
      2308        19  SLPC      C217           -0.4170855169      -16.0615908137        0.4670516798  MEMB      19              0.0000000000
      2309        19  SLPC      H17R            0.5974942415      -15.9385757303        0.0906544796  MEMB      19              0.0000000000
      2310        19  SLPC      H17S           -0.3030643127      -15.0848273997        0.9008858716  MEMB      19              0.0000000000
      2311        19  SLPC      C218           -1.4503066984      -16.3284206614       -0.6063096727  MEMB      19              0.0000000000
      2312        19  SLPC      H18R           -2.5008061614      -15.9156076405       -0.5957798935  MEMB      19              0.0000000000
      2313        19  SLPC      H18S           -1.1225661294      -17.1495896253       -1.2258410974  MEMB      19              0.0000000000
      2314        19  SLPC      H18T           -1.1684675949      -15.6886227899       -1.3896102061  MEMB      19              0.0000000000
      2315        19  SLPC      C33            -0.3273548370      -14.3198168181       11.7847810509  MEMB      19              0.0000000000
      2316        19  SLPC      H3X            -0.9360846303      -13.9551668874       10.9144661250  MEMB      19              0.0000000000
      2317        19  SLPC      H3Y            -0.8039822027      -15.2151057530       12.2077302423  MEMB      19              0.0000000000
      2318        19  SLPC      C34             1.1466147989      -14.5534561936       11.4524179799  MEMB      19              0.0000000000
      2319        19  SLPC      H4X             1.6428656967      -14.9987706414       12.3393612414  MEMB      19              0.0000000000
      2320        19  SLPC      H4Y             1.6865208915      -13.6087043019       11.2788497679  MEMB      19              0.0000000000
      2321        19  SLPC      C35             1.2977913952      -15.4133043076       10.2207176047  MEMB      19              0.0000000000
      2322        19  SLPC      H5X             2.3695823345      -15.6978797057       10.0663085448  MEMB      19              0.0000000000
      2323        19  SLPC      H5Y             0.9489966153      -14.8156280977        9.3479149533  MEMB      19              0.0000000000
      2324        19  SLPC      C36             0.3935444539      -16.6339230080       10.3353222611  MEMB      19              0.0000000000
      2325        19  SLPC      H6X            -0.6799926978      -16.4093555836       10.3616539529  MEMB      19              0.0000000000
      2326        19  SLPC      H6Y             0.7003551312      -17.1520014494       11.2835518223  MEMB      19              0.0000000000
      2327        19  SLPC      C37             0.5671300902      -17.5323391478        9.1391745463  MEMB      19              0.0000000000
      2328        19  SLPC      H7X             1.5236715939      -17.6981607573        9.5504537310  MEMB      19              0.0000000000
      2329        19  SLPC      H7Y             0.8475430221      -17.1346755311        8.1550513266  MEMB      19              0.0000000000
      2330        19  SLPC      C38            -0.3614984129      -18.7357361806        9.0395776972  MEMB      19              0.0000000000
      2331        19  SLPC      H8X            -1.3779558678      -18.4268707451        9.3456354645  MEMB      19              0.0000000000
      2332        19  SLPC      H8Y            -0.0497858846      -19.5012098938        9.7467359514  MEMB      19              0.0000000000
      2333        19  SLPC      C39            -0.4133480485      -19.4106915660        7.6647170358  MEMB      19              0.0000000000
      2334        19  SLPC      H9X            -0.8162471583      -20.4386902174        7.8160071982  MEMB      19              0.0000000000
      2335        19  SLPC      H9Y             0.5985119310      -19.5060602416        7.2104770072  MEMB      19              0.0000000000
      2336        19  SLPC      C310           -1.3048635655      -18.6727315376        6.6657844766  MEMB      19              0.0000000000
      2337        19  SLPC      H10X           -1.1262154756      -19.1240872504        5.6657847747  MEMB      19              0.0000000000
      2338        19  SLPC      H10Y           -0.9975203946      -17.6040180917        6.6121551189  MEMB      19              0.0000000000
      2339        19  SLPC      C311           -2.8012622739      -18.7541774167        6.9813499357  MEMB      19              0.0000000000
      2340        19  SLPC      H11X           -3.0156923158      -18.1597778298        7.8986264703  MEMB      19              0.0000000000
      2341        19  SLPC      H11Y           -3.1080364212      -19.7947097275        7.2168242009  MEMB      19              0.0000000000
      2342        19  SLPC      C312           -3.6513409957      -18.2224756786        5.8294406072  MEMB      19              0.0000000000
      2343        19  SLPC      H12X           -3.9556732930      -19.0230496254        5.1219878188  MEMB      19              0.0000000000
      2344        19  SLPC      H12Y           -3.0599374387      -17.5036172949        5.2134467721  MEMB      19              0.0000000000
      2345        19  SLPC      C313           -4.9266465048      -17.5849711430        6.3578537948  MEMB      19              0.0000000000
      2346        19  SLPC      H13X           -4.6498061304      -16.7555411326        7.0586922175  MEMB      19              0.0000000000
      2347        19  SLPC      H13Y           -5.5299624450      -18.3000470822        6.9418874820  MEMB      19              0.0000000000
      2348        19  SLPC      C314           -5.7508286423      -17.1261137804        5.1690090194  MEMB      19              0.0000000000
      2349        19  SLPC      H14X           -6.7418144937      -16.7464239072        5.5595418999  MEMB      19              0.0000000000
      2350        19  SLPC      H14Y           -6.0071314263      -17.8964480750        4.4284072370  MEMB      19              0.0000000000
      2351        19  SLPC      C315           -4.8916721975      -16.0669785017        4.4372936608  MEMB      19              0.0000000000
      2352        19  SLPC      H15X           -3.8472436335      -15.9209854186        4.2370817889  MEMB      19              0.0000000000
      2353        19  SLPC      H15Y           -4.9139667211      -15.4876443263        5.2907376778  MEMB      19              0.0000000000
      2354        19  SLPC      C316           -5.4982251891      -15.4129667067        3.3006779016  MEMB      19              0.0000000000
      2355        19  SLPC      H16X           -6.5774457424      -15.6987047780        3.5971069746  MEMB      19              0.0000000000
      2356        19  SLPC      H16Y           -5.7065218825      -16.3169841281        2.6760341500  MEMB      19              0.0000000000
      2357        19  SLPC      C317           -5.1225508247      -13.5943320047        2.6178777355  MEMB      19              0.0000000000
      2358        19  SLPC      H17X           -4.1006643485      -13.8118240694        2.4735187329  MEMB      19              0.0000000000
      2359        19  SLPC      H17Y           -5.0097498550      -12.7825751568        3.3253803402  MEMB      19              0.0000000000
      2360        19  SLPC      C318           -6.0481211655      -12.5405867321        1.3741998517  MEMB      19              0.0000000000
      2361        19  SLPC      H18X           -5.7628742250      -11.9553561031        0.5290226561  MEMB      19              0.0000000000
      2362        19  SLPC      H18Y           -7.1694428963      -12.3572766208        1.5524278002  MEMB      19              0.0000000000
      2363        19  SLPC      H18Z           -6.4139168921      -13.1273606893        0.4854957645  MEMB      19              0.0000000000
      2364        20  CHL1      C3             18.3129038980        3.1175690669       17.3552173640  MEMB      20              0.0000000000
      2365        20  CHL1      H3             17.5272603886        2.5985716817       16.7479230686  MEMB      20              0.0000000000
      2366        20  CHL1      O3             18.0103674865        2.8779042547       18.7167912260  MEMB      20              0.0000000000
      2367        20  CHL1      H3'            17.7046099474        1.9648512271       18.7348738391  MEMB      20              0.0000000000
      2368        20  CHL1      C4             19.7246699826        2.6608863650       17.0151481972  MEMB      20              0.0000000000
      2369        20  CHL1      H4A            20.4667911837        3.3793971951       17.4309958442  MEMB      20              0.0000000000
      2370        20  CHL1      H4B            19.9188597799        1.6828978744       17.4878570401  MEMB      20              0.0000000000
      2371        20  CHL1      C5             19.9250617542        2.6477859159       15.5265072801  MEMB      20              0.0000000000
      2372        20  CHL1      C6             20.1259140921        1.5264976861       14.8446850933  MEMB      20              0.0000000000
      2373        20  CHL1      H6             20.1516736073        0.5802510641       15.3938943573  MEMB      20              0.0000000000
      2374        20  CHL1      C7             20.4265477395        1.4856946181       13.3789898973  MEMB      20              0.0000000000
      2375        20  CHL1      H7A            21.4242654311        1.0170359848       13.2396685083  MEMB      20              0.0000000000
      2376        20  CHL1      H7B            19.6919295432        0.8396995196       12.8519455475  MEMB      20              0.0000000000
      2377        20  CHL1      C8             20.5078113737        2.8850976178       12.7112592366  MEMB      20              0.0000000000
      2378        20  CHL1      H8             21.5381097326        3.2809182175       12.8483890382  MEMB      20              0.0000000000
      2379        20  CHL1      C14            20.1940613704        2.7682899999       11.2339008768  MEMB      20              0.0000000000
      2380        20  CHL1      H14            19.1166903662        2.4641123118       11.1518409247  MEMB      20              0.0000000000
      2381        20  CHL1      C15            20.9598620908        1.6964680894       10.4558774882  MEMB      20              0.0000000000
      2382        20  CHL1      H15A           22.0187343165        1.6815101312       10.7963694991  MEMB      20              0.0000000000
      2383        20  CHL1      H15B           20.5330819525        0.6845425271       10.6015587549  MEMB      20              0.0000000000
      2384        20  CHL1      C16            20.7536416451        2.1446118489        8.9986290294  MEMB      20              0.0000000000
      2385        20  CHL1      H16A           21.7315971558        2.3040411331        8.5007184183  MEMB      20              0.0000000000
      2386        20  CHL1      H16B           20.1133705811        1.4213564033        8.4576070220  MEMB      20              0.0000000000
      2387        20  CHL1      C17            19.9564927967        3.4780198618        9.0174975885  MEMB      20              0.0000000000
      2388        20  CHL1      H17            18.8780697139        3.1912113574        9.0159232738  MEMB      20              0.0000000000
      2389        20  CHL1      C13            20.3144501316        4.0514587767       10.4146039319  MEMB      20              0.0000000000
      2390        20  CHL1      C18            21.7695987931        4.5734334685       10.3773964958  MEMB      20              0.0000000000
      2391        20  CHL1      H18A           22.1101744002        4.8403351389       11.3972039236  MEMB      20              0.0000000000
      2392        20  CHL1      H18B           22.5032931684        3.8689308825        9.9480384211  MEMB      20              0.0000000000
      2393        20  CHL1      H18C           21.7935652964        5.4759811999        9.7388978629  MEMB      20              0.0000000000
      2394        20  CHL1      C12            19.4069130073        5.0996379477       11.0708907029  MEMB      20              0.0000000000
      2395        20  CHL1      H12A           19.4968738666        6.1168352289       10.6516830569  MEMB      20              0.0000000000
      2396        20  CHL1      H12B           18.3875226771        4.7462326781       10.8695790370  MEMB      20              0.0000000000
      2397        20  CHL1      C11            19.7017526528        5.2600054728       12.5787964281  MEMB      20              0.0000000000
      2398        20  CHL1      H11A           20.7044170010        5.6946445469       12.6423587042  MEMB      20              0.0000000000
      2399        20  CHL1      H11B           19.0690249309        6.0521510681       13.0384638009  MEMB      20              0.0000000000
      2400        20  CHL1      C9             19.5866195754        3.9072271703       13.3443103511  MEMB      20              0.0000000000
      2401        20  CHL1      H9             18.5448019138        3.5075504955       13.2004149921  MEMB      20              0.0000000000
      2402        20  CHL1      C10            19.8068455304        4.0007042835       14.8723455571  MEMB      20              0.0000000000
      2403        20  CHL1      C19            20.9584891938        4.9543412816       15.2186275195  MEMB      20              0.0000000000
      2404        20  CHL1      H19A           21.8854708259        4.4478549912       14.9114244883  MEMB      20              0.0000000000
      2405        20  CHL1      H19B           20.8668182011        5.9362104626       14.7078731820  MEMB      20              0.0000000000
      2406        20  CHL1      H19C           20.9740960464        5.1854089127       16.3067761398  MEMB      20              0.0000000000
      2407        20  CHL1      C1             18.5831983372        4.6004311630       15.4537858587  MEMB      20              0.0000000000
      2408        20  CHL1      H1A            18.6448046979        5.6649505260       15.1104331143  MEMB      20              0.0000000000
      2409        20  CHL1      H1B            17.7112201396        4.0958987454       14.9700796938  MEMB      20              0.0000000000
      2410        20  CHL1      C2             18.2673001508        4.5700537332       16.9795883630  MEMB      20              0.0000000000
      2411        20  CHL1      H2A            17.2377240269        4.9148054843       17.2441900128  MEMB      20              0.0000000000
      2412        20  CHL1      H2B            18.9683839935        5.2544942768       17.4924866811  MEMB      20              0.0000000000
      2413        20  CHL1      C20            20.1521727266        4.3407240373        7.7657635471  MEMB      20              0.0000000000
      2414        20  CHL1      H20            21.1965501369        4.7328732320        7.7799587449  MEMB      20              0.0000000000
      2415        20  CHL1      C21            19.1260230181        5.4722177001        7.8068509089  MEMB      20              0.0000000000
      2416        20  CHL1      H21A           18.2425211647        5.3919817806        7.1642540120  MEMB      20              0.0000000000
      2417        20  CHL1      H21B           19.5628915798        6.2360587264        7.2016446135  MEMB      20              0.0000000000
      2418        20  CHL1      H21C           18.8951483593        5.8815231990        8.8028658091  MEMB      20              0.0000000000
      2419        20  CHL1      C22            20.0355907486        3.6631252755        6.3734344881  MEMB      20              0.0000000000
      2420        20  CHL1      H22A           20.6051101909        2.7144053196        6.4034389348  MEMB      20              0.0000000000
      2421        20  CHL1      H22B           18.9738388246        3.4288420844        6.1485321394  MEMB      20              0.0000000000
      2422        20  CHL1      C23            20.6298752636        4.5065121355        5.2209854479  MEMB      20              0.0000000000
      2423        20  CHL1      H23A           19.8778533773        5.1954566201        4.7702528431  MEMB      20              0.0000000000
      2424        20  CHL1      H23B           21.4546386735        5.1260008084        5.6218272637  MEMB      20              0.0000000000
      2425        20  CHL1      C24            21.2336178758        3.6534986623        4.1010677762  MEMB      20              0.0000000000
      2426        20  CHL1      H24A           22.0298719638        2.9973372722        4.5151015382  MEMB      20              0.0000000000
      2427        20  CHL1      H24B           20.4165171264        3.0129433749        3.6965782459  MEMB      20              0.0000000000
      2428        20  CHL1      C25            21.8135674193        4.5096112665        2.9573970420  MEMB      20              0.0000000000
      2429        20  CHL1      H25            21.3183439969        5.5057715080        3.0276239767  MEMB      20              0.0000000000
      2430        20  CHL1      C26            23.3348350632        4.7071405072        3.0458929934  MEMB      20              0.0000000000
      2431        20  CHL1      H26A           23.8323717165        3.7135350126        3.0623857905  MEMB      20              0.0000000000
      2432        20  CHL1      H26B           23.7124575703        5.2448833484        2.1502942774  MEMB      20              0.0000000000
      2433        20  CHL1      H26C           23.6262240075        5.2917535234        3.9429593531  MEMB      20              0.0000000000
      2434        20  CHL1      C27            21.4762198136        3.8716535509        1.6057507607  MEMB      20              0.0000000000
      2435        20  CHL1      H27A           20.3993104075        3.6119287909        1.5644263283  MEMB      20              0.0000000000
      2436        20  CHL1      H27B           21.7017812413        4.5612072783        0.7703584963  MEMB      20              0.0000000000
      2437        20  CHL1      H27C           22.0799601868        2.9497515076        1.4700895982  MEMB      20              0.0000000000
      2438        21  CHL1      C3             13.5194066667      -13.0171739384       17.3358344995  MEMB      21              0.0000000000
      2439        21  CHL1      H3             13.8560582835      -13.9954131179       17.0353223565  MEMB      21              0.0000000000
      2440        21  CHL1      O3             13.6618624629      -13.0361767436       18.7385743414  MEMB      21              0.0000000000
      2441        21  CHL1      H3'            13.0410858189      -13.7238475435       19.0464374814  MEMB      21              0.0000000000
      2442        21  CHL1      C4             14.4730924023      -11.9522434335       16.7926794418  MEMB      21              0.0000000000
      2443        21  CHL1      H4A            14.2593719377      -10.9883635436       17.2868302245  MEMB      21              0.0000000000
      2444        21  CHL1      H4B            15.5067328954      -12.2596396735       17.1028478411  MEMB      21              0.0000000000
      2445        21  CHL1      C5             14.3678296368      -11.7846066897       15.3024696367  MEMB      21              0.0000000000
      2446        21  CHL1      C6             15.4322136146      -11.9385912047       14.5429758660  MEMB      21              0.0000000000
      2447        21  CHL1      H6             16.3546945421      -12.1793604918       15.0339015488  MEMB      21              0.0000000000
      2448        21  CHL1      C7             15.3601923303      -12.0537884332       13.0623880914  MEMB      21              0.0000000000
      2449        21  CHL1      H7A            15.9154992288      -11.3116257067       12.5810812046  MEMB      21              0.0000000000
      2450        21  CHL1      H7B            15.8131917494      -12.9657226544       12.6251825218  MEMB      21              0.0000000000
      2451        21  CHL1      C8             14.1310368830      -11.4587740383       12.4426427572  MEMB      21              0.0000000000
      2452        21  CHL1      H8             14.1650399422      -10.3404235991       12.5372073240  MEMB      21              0.0000000000
      2453        21  CHL1      C14            14.1409779063      -11.8060479128       10.9846411579  MEMB      21              0.0000000000
      2454        21  CHL1      H14            14.3455993703      -12.8956715871       10.9099063800  MEMB      21              0.0000000000
      2455        21  CHL1      C15            15.2062148982      -11.1842499199       10.2102693752  MEMB      21              0.0000000000
      2456        21  CHL1      H15A           15.2902627719      -10.1221115791       10.5182151406  MEMB      21              0.0000000000
      2457        21  CHL1      H15B           16.1061969165      -11.8435632708       10.3642021339  MEMB      21              0.0000000000
      2458        21  CHL1      C16            14.7865645945      -11.1294392676        8.7892285560  MEMB      21              0.0000000000
      2459        21  CHL1      H16A           15.0011931695      -10.2130409228        8.2290643896  MEMB      21              0.0000000000
      2460        21  CHL1      H16B           15.4523003341      -11.8111028790        8.4699293929  MEMB      21              0.0000000000
      2461        21  CHL1      C17            13.4255150535      -11.7737357305        8.7668927810  MEMB      21              0.0000000000
      2462        21  CHL1      H17            13.6111283768      -12.8776912425        8.6815546636  MEMB      21              0.0000000000
      2463        21  CHL1      C13            12.9567239241      -11.4103872625       10.1864013753  MEMB      21              0.0000000000
      2464        21  CHL1      C18            12.7370116830       -9.8703140743       10.2158543773  MEMB      21              0.0000000000
      2465        21  CHL1      H18A           13.4542266451       -9.2749863843        9.6137549878  MEMB      21              0.0000000000
      2466        21  CHL1      H18B           11.7150231871       -9.7094369727        9.8299905097  MEMB      21              0.0000000000
      2467        21  CHL1      H18C           12.7932787464       -9.4631104627       11.2408071519  MEMB      21              0.0000000000
      2468        21  CHL1      C12            11.8479486450      -12.1612526550       10.8785541153  MEMB      21              0.0000000000
      2469        21  CHL1      H12A           10.9040731946      -11.9311714757       10.3793203780  MEMB      21              0.0000000000
      2470        21  CHL1      H12B           12.0878480489      -13.2389318340       10.7899120414  MEMB      21              0.0000000000
      2471        21  CHL1      C11            11.7292793218      -11.7537855143       12.3631559647  MEMB      21              0.0000000000
      2472        21  CHL1      H11A           11.5681098597      -10.6613851422       12.4446540367  MEMB      21              0.0000000000
      2473        21  CHL1      H11B           10.8783899069      -12.2764729920       12.8220121609  MEMB      21              0.0000000000
      2474        21  CHL1      C9             12.9930135913      -12.0586114892       13.1560814588  MEMB      21              0.0000000000
      2475        21  CHL1      H9             13.1491030062      -13.1468538049       13.0638344106  MEMB      21              0.0000000000
      2476        21  CHL1      C10            12.9853065247      -11.7340310916       14.6743536771  MEMB      21              0.0000000000
      2477        21  CHL1      C19            12.5719643692      -10.2787172040       14.8585457223  MEMB      21              0.0000000000
      2478        21  CHL1      H19A           13.2194632697       -9.6206279597       14.2404189147  MEMB      21              0.0000000000
      2479        21  CHL1      H19B           11.5178393386      -10.1792272870       14.5466095672  MEMB      21              0.0000000000
      2480        21  CHL1      H19C           12.6533816741       -9.9664146456       15.9201593891  MEMB      21              0.0000000000
      2481        21  CHL1      C1             11.9621886256      -12.6861025664       15.3365637736  MEMB      21              0.0000000000
      2482        21  CHL1      H1A            10.9456054209      -12.2963719193       15.1165028215  MEMB      21              0.0000000000
      2483        21  CHL1      H1B            12.0881181882      -13.6677188503       14.8279155415  MEMB      21              0.0000000000
      2484        21  CHL1      C2             12.0580336244      -12.9226482148       16.8514105457  MEMB      21              0.0000000000
      2485        21  CHL1      H2A            11.5267100165      -13.8914617732       17.0197612655  MEMB      21              0.0000000000
      2486        21  CHL1      H2B            11.5106783321      -12.1314141191       17.3947181435  MEMB      21              0.0000000000
      2487        21  CHL1      C20            12.6190912245      -11.3858653731        7.5529745797  MEMB      21              0.0000000000
      2488        21  CHL1      H20            12.4204148573      -10.3013863513        7.5095581210  MEMB      21              0.0000000000
      2489        21  CHL1      C21            11.4069033719      -12.2655856862        7.6053775660  MEMB      21              0.0000000000
      2490        21  CHL1      H21A           10.8504890695      -12.3197986024        6.6654415491  MEMB      21              0.0000000000
      2491        21  CHL1      H21B           10.7636893600      -11.9417740504        8.4330096656  MEMB      21              0.0000000000
      2492        21  CHL1      H21C           11.6723248553      -13.2908610789        7.6470541738  MEMB      21              0.0000000000
      2493        21  CHL1      C22            13.3295018963      -11.6929752725        6.2723939641  MEMB      21              0.0000000000
      2494        21  CHL1      H22A           14.1589206641      -10.9250104726        6.2572864006  MEMB      21              0.0000000000
      2495        21  CHL1      H22B           13.5822359650      -12.7780805556        6.3309534812  MEMB      21              0.0000000000
      2496        21  CHL1      C23            12.8212148463      -11.4856393512        4.9031221873  MEMB      21              0.0000000000
      2497        21  CHL1      H23A           13.4173078203      -11.8516086120        4.0808935539  MEMB      21              0.0000000000
      2498        21  CHL1      H23B           12.0225899565      -12.2111558178        4.7372589185  MEMB      21              0.0000000000
      2499        21  CHL1      C24            12.7987395704       -9.9811803452        4.6782770147  MEMB      21              0.0000000000
      2500        21  CHL1      H24A           11.8500829488       -9.5956816786        4.9907234638  MEMB      21              0.0000000000
      2501        21  CHL1      H24B           13.5199597736       -9.3986777799        5.2601447569  MEMB      21              0.0000000000
      2502        21  CHL1      C25            12.8516407839       -9.4846633689        3.2832721494  MEMB      21              0.0000000000
      2503        21  CHL1      H25            12.3479804440       -8.4778084499        3.2474976453  MEMB      21              0.0000000000
      2504        21  CHL1      C26            14.0548943355       -9.6596190080        2.4361142024  MEMB      21              0.0000000000
      2505        21  CHL1      H26A           14.2958454653      -10.7539252188        2.4196348647  MEMB      21              0.0000000000
      2506        21  CHL1      H26B           13.8525788609       -9.3551500353        1.3728992292  MEMB      21              0.0000000000
      2507        21  CHL1      H26C           14.7649819506       -8.9964959534        2.9055173232  MEMB      21              0.0000000000
      2508        21  CHL1      C27            12.1123964246      -10.3369303036        2.4982530696  MEMB      21              0.0000000000
      2509        21  CHL1      H27A           11.9988648295      -11.4315144302        2.6394474343  MEMB      21              0.0000000000
      2510        21  CHL1      H27B           11.1889960002       -9.8653329928        2.6611961287  MEMB      21              0.0000000000
      2511        21  CHL1      H27C           12.2194105328      -10.0460210993        1.4711446464  MEMB      21              0.0000000000
      2512        22  SAPE      N             -12.2438156575      -14.5256450187       20.9296504754  MEMB      22              0.0000000000
      2513        22  SAPE      HN1           -12.4966612567      -14.4305289612       21.9346544777  MEMB      22              0.0000000000
      2514        22  SAPE      HN2           -12.1415039545      -15.5441126982       20.7351221619  MEMB      22              0.0000000000
      2515        22  SAPE      HN3           -11.3290883698      -14.0558454989       20.7735785784  MEMB      22              0.0000000000
      2516        22  SAPE      C12           -13.2574050153      -13.8949708836       19.9826278668  MEMB      22              0.0000000000
      2517        22  SAPE      H12A          -13.2444522186      -14.4979878518       19.0498481389  MEMB      22              0.0000000000
      2518        22  SAPE      H12B          -12.9123301211      -12.8616131749       19.7645319002  MEMB      22              0.0000000000
      2519        22  SAPE      C11           -14.6877054749      -13.8246086616       20.5623716491  MEMB      22              0.0000000000
      2520        22  SAPE      H11A          -14.6651642254      -13.2630515681       21.5290399831  MEMB      22              0.0000000000
      2521        22  SAPE      H11B          -15.0279012322      -14.8572016223       20.7767074207  MEMB      22              0.0000000000
      2522        22  SAPE      P             -15.8501094755      -11.6622177075       19.7084860960  MEMB      22              0.0000000000
      2523        22  SAPE      O13           -16.2888261189      -11.4549693909       21.1148424365  MEMB      22              0.0000000000
      2524        22  SAPE      O14           -14.6060749583      -11.0219057064       19.2347331689  MEMB      22              0.0000000000
      2525        22  SAPE      O12           -15.6223503359      -13.2462941353       19.6359776290  MEMB      22              0.0000000000
      2526        22  SAPE      O11           -17.1113478310      -11.3280721725       18.8107863003  MEMB      22              0.0000000000
      2527        22  SAPE      C1            -18.2964242383      -12.1091493369       19.0141585988  MEMB      22              0.0000000000
      2528        22  SAPE      HA            -18.2174424207      -12.7982567086       19.8889573268  MEMB      22              0.0000000000
      2529        22  SAPE      HB            -19.1317549943      -11.4179243809       19.2296088334  MEMB      22              0.0000000000
      2530        22  SAPE      C2            -18.6240923533      -13.0437599821       17.8102921261  MEMB      22              0.0000000000
      2531        22  SAPE      HS            -19.4142612172      -13.7486916679       18.1519251186  MEMB      22              0.0000000000
      2532        22  SAPE      O21           -17.4305406589      -13.7413798465       17.4525609015  MEMB      22              0.0000000000
      2533        22  SAPE      C21           -17.5815709023      -14.5077678652       16.4180880021  MEMB      22              0.0000000000
      2534        22  SAPE      O22           -18.6134687865      -15.0492803467       16.0503355781  MEMB      22              0.0000000000
      2535        22  SAPE      C22           -16.3032120323      -14.5978290866       15.6588356798  MEMB      22              0.0000000000
      2536        22  SAPE      H2R           -16.5655943341      -15.2914650861       14.8269625145  MEMB      22              0.0000000000
      2537        22  SAPE      H2S           -16.0374914432      -13.6290179169       15.1939872536  MEMB      22              0.0000000000
      2538        22  SAPE      C3            -19.1949891779      -12.2809888118       16.5902769709  MEMB      22              0.0000000000
      2539        22  SAPE      HX            -20.1310173690      -11.8553066964       17.0166901579  MEMB      22              0.0000000000
      2540        22  SAPE      HY            -19.5798132602      -12.9017359727       15.7551968413  MEMB      22              0.0000000000
      2541        22  SAPE      O31           -18.2534339135      -11.2666119426       16.1718441215  MEMB      22              0.0000000000
      2542        22  SAPE      C31           -17.6337364563      -11.3337452985       14.9983771610  MEMB      22              0.0000000000
      2543        22  SAPE      O32           -17.7912693312      -12.1965308837       14.1568214226  MEMB      22              0.0000000000
      2544        22  SAPE      C32           -16.9692365452       -9.9564422355       14.7695931659  MEMB      22              0.0000000000
      2545        22  SAPE      H2X           -17.6519680771       -9.0945061002       14.9406085317  MEMB      22              0.0000000000
      2546        22  SAPE      H2Y           -16.6222180403       -9.8697949326       13.7229389986  MEMB      22              0.0000000000
      2547        22  SAPE      C23           -15.0996874388      -15.0917509297       16.4890398781  MEMB      22              0.0000000000
      2548        22  SAPE      H3R           -15.3150481543      -16.1534116109       16.8042474809  MEMB      22              0.0000000000
      2549        22  SAPE      H3S           -14.9232483055      -14.4897575283       17.3996889697  MEMB      22              0.0000000000
      2550        22  SAPE      C24           -13.8077047275      -14.9866041022       15.6806253881  MEMB      22              0.0000000000
      2551        22  SAPE      H4R           -13.1134913550      -15.6285792917       16.3197677839  MEMB      22              0.0000000000
      2552        22  SAPE      H4S           -13.2266650221      -14.0867255476       15.5676168687  MEMB      22              0.0000000000
      2553        22  SAPE      C25           -14.2866535769      -15.4539061960       14.3170850279  MEMB      22              0.0000000000
      2554        22  SAPE      H5R           -14.5828237327      -16.4353424731       14.6643940952  MEMB      22              0.0000000000
      2555        22  SAPE      C26           -13.9371781554      -15.2718297793       12.9850131058  MEMB      22              0.0000000000
      2556        22  SAPE      H6R           -13.8422402502      -16.1404560567       12.2526413165  MEMB      22              0.0000000000
      2557        22  SAPE      C27           -12.8240581631      -14.4181935915       12.5990373665  MEMB      22              0.0000000000
      2558        22  SAPE      H7R           -12.0618288659      -14.4410699719       13.3336821323  MEMB      22              0.0000000000
      2559        22  SAPE      H7S           -13.2403044510      -13.5005519313       12.9698199588  MEMB      22              0.0000000000
      2560        22  SAPE      C28           -12.3345812747      -14.6125936252       11.1519588659  MEMB      22              0.0000000000
      2561        22  SAPE      H8R           -11.4766295951      -15.2570510876       10.8587400692  MEMB      22              0.0000000000
      2562        22  SAPE      C29           -12.9914279617      -14.1311219818       10.1657576618  MEMB      22              0.0000000000
      2563        22  SAPE      H9R           -12.7916620799      -14.6023853088        9.1942994177  MEMB      22              0.0000000000
      2564        22  SAPE      C210          -14.2173325357      -13.3743246696       10.5470556072  MEMB      22              0.0000000000
      2565        22  SAPE      H10R          -14.3121293597      -12.7043245116        9.7020600078  MEMB      22              0.0000000000
      2566        22  SAPE      H10S          -13.9516899403      -12.7107636702       11.3971106762  MEMB      22              0.0000000000
      2567        22  SAPE      C211          -15.5652136556      -13.9596212295       10.9129804909  MEMB      22              0.0000000000
      2568        22  SAPE      H11R          -15.8195996135      -14.0076968225       11.9893642940  MEMB      22              0.0000000000
      2569        22  SAPE      C212          -16.4320760584      -14.4341476459       10.0272134383  MEMB      22              0.0000000000
      2570        22  SAPE      H12R          -17.4310460633      -14.7456614795       10.3691447444  MEMB      22              0.0000000000
      2571        22  SAPE      C213          -16.1303597731      -14.4306491231        8.5571311932  MEMB      22              0.0000000000
      2572        22  SAPE      H13R          -15.0894206397      -14.7911391215        8.4111729728  MEMB      22              0.0000000000
      2573        22  SAPE      H13S          -16.1444083572      -13.3816944647        8.1863137924  MEMB      22              0.0000000000
      2574        22  SAPE      C214          -17.0970394253      -15.2878466601        7.7840305189  MEMB      22              0.0000000000
      2575        22  SAPE      H14R          -18.0515580666      -15.4803495992        8.3022324041  MEMB      22              0.0000000000
      2576        22  SAPE      C215          -16.8185242018      -15.9581567105        6.6465526775  MEMB      22              0.0000000000
      2577        22  SAPE      H15R          -17.5856048401      -16.6182245022        6.2114382245  MEMB      22              0.0000000000
      2578        22  SAPE      C216          -15.4844464004      -15.9722873394        5.9354919342  MEMB      22              0.0000000000
      2579        22  SAPE      H16R          -15.1624459005      -17.0170185673        5.7527281160  MEMB      22              0.0000000000
      2580        22  SAPE      H16S          -14.7000540208      -15.5099469020        6.5741448096  MEMB      22              0.0000000000
      2581        22  SAPE      C217          -15.4578571434      -15.1612792396        4.6245480069  MEMB      22              0.0000000000
      2582        22  SAPE      H17R          -15.8821833434      -14.1714995488        4.8924292873  MEMB      22              0.0000000000
      2583        22  SAPE      H17S          -16.0273493743      -15.6353598150        3.7935644562  MEMB      22              0.0000000000
      2584        22  SAPE      C218          -14.0485709409      -14.8601092482        4.1144348026  MEMB      22              0.0000000000
      2585        22  SAPE      H18R          -13.7317827768      -15.7460197398        3.5310040043  MEMB      22              0.0000000000
      2586        22  SAPE      H18S          -13.3977427391      -14.7786540317        5.0160545747  MEMB      22              0.0000000000
      2587        22  SAPE      C219          -13.9124994263      -13.5675640706        3.2689472888  MEMB      22              0.0000000000
      2588        22  SAPE      H19R          -12.9500220791      -13.0861317234        3.5573427920  MEMB      22              0.0000000000
      2589        22  SAPE      H19S          -14.6994465654      -12.8465223017        3.5155906008  MEMB      22              0.0000000000
      2590        22  SAPE      C220          -13.9394277580      -13.7687978692        1.7534519028  MEMB      22              0.0000000000
      2591        22  SAPE      H20R          -14.9107662511      -14.0901899623        1.3361636895  MEMB      22              0.0000000000
      2592        22  SAPE      H20S          -13.3327758871      -14.6110887052        1.5766751314  MEMB      22              0.0000000000
      2593        22  SAPE      H20T          -13.4115803514      -13.0173452990        1.1372698555  MEMB      22              0.0000000000
      2594        22  SAPE      C33           -15.8837693198       -9.8065232006       15.7919004601  MEMB      22              0.0000000000
      2595        22  SAPE      H3X           -16.2440292797       -9.5289772664       16.8084909455  MEMB      22              0.0000000000
      2596        22  SAPE      H3Y           -15.3293715287       -8.9035250403       15.6046741245  MEMB      22              0.0000000000
      2597        22  SAPE      C34           -15.0185826129      -11.0739920830       15.8404371977  MEMB      22              0.0000000000
      2598        22  SAPE      H4X           -15.6301532087      -11.9141688020       16.1991572393  MEMB      22              0.0000000000
      2599        22  SAPE      H4Y           -14.4542948516      -10.9289438673       16.7818932677  MEMB      22              0.0000000000
      2600        22  SAPE      C35           -14.1397157608      -11.5035110088       14.5652228269  MEMB      22              0.0000000000
      2601        22  SAPE      H5X           -14.8049148174      -11.7163439770       13.7068046409  MEMB      22              0.0000000000
      2602        22  SAPE      H5Y           -13.5864284230      -12.3695217509       14.9248924559  MEMB      22              0.0000000000
      2603        22  SAPE      C36           -12.8664575037      -10.8655512667       13.8623010603  MEMB      22              0.0000000000
      2604        22  SAPE      H6X           -12.4924285544      -11.6456705575       13.2439685046  MEMB      22              0.0000000000
      2605        22  SAPE      H6Y           -11.9302113208      -10.4739620061       14.3610462015  MEMB      22              0.0000000000
      2606        22  SAPE      C37           -13.2418557117       -9.6549844763       13.1692553171  MEMB      22              0.0000000000
      2607        22  SAPE      H7X           -12.5272333119       -8.7882946664       13.3971703590  MEMB      22              0.0000000000
      2608        22  SAPE      H7Y           -14.2755773841       -9.5052736705       13.5214078143  MEMB      22              0.0000000000
      2609        22  SAPE      C38           -13.5171550882       -9.9146359819       11.7116431119  MEMB      22              0.0000000000
      2610        22  SAPE      H8X           -14.1634624463      -10.7638832521       11.5961869558  MEMB      22              0.0000000000
      2611        22  SAPE      H8Y           -12.4452571257      -10.0596882738       11.4227905415  MEMB      22              0.0000000000
      2612        22  SAPE      C39           -14.5039781273       -8.9027151418       11.0034096550  MEMB      22              0.0000000000
      2613        22  SAPE      H9X           -13.6776545990       -8.4912940996       11.5573068738  MEMB      22              0.0000000000
      2614        22  SAPE      H9Y           -14.7334047960       -7.9124882668       11.2219279968  MEMB      22              0.0000000000
      2615        22  SAPE      C310          -14.6470933480       -8.5950117783        9.4229105737  MEMB      22              0.0000000000
      2616        22  SAPE      H10X          -13.9298103430       -8.8531613307        8.7664429484  MEMB      22              0.0000000000
      2617        22  SAPE      H10Y          -14.3699721426       -7.7116799399        8.7582484855  MEMB      22              0.0000000000
      2618        22  SAPE      C311          -15.7042436358       -9.2296799299        8.8292928988  MEMB      22              0.0000000000
      2619        22  SAPE      H11X          -16.1023055969       -8.1975963611        8.7954101170  MEMB      22              0.0000000000
      2620        22  SAPE      H11Y          -15.8771747506       -9.9152592090        9.6794971140  MEMB      22              0.0000000000
      2621        22  SAPE      C312          -15.2892648607       -9.8237282762        7.5088156372  MEMB      22              0.0000000000
      2622        22  SAPE      H12X          -14.5870882566      -10.6884002543        7.5854540288  MEMB      22              0.0000000000
      2623        22  SAPE      H12Y          -14.8255361356       -9.0749537780        6.8131599786  MEMB      22              0.0000000000
      2624        22  SAPE      C313          -16.5574627005      -10.3335564986        6.9977771965  MEMB      22              0.0000000000
      2625        22  SAPE      H13X          -17.2919899892       -9.5164484905        7.1806179213  MEMB      22              0.0000000000
      2626        22  SAPE      H13Y          -16.8331395914      -11.1878766775        7.6623469274  MEMB      22              0.0000000000
      2627        22  SAPE      C314          -16.3082267712      -10.7185779387        5.5589185836  MEMB      22              0.0000000000
      2628        22  SAPE      H14X          -15.4313602791      -11.3964126411        5.5045667211  MEMB      22              0.0000000000
      2629        22  SAPE      H14Y          -16.0762599166       -9.8078013908        4.9565416068  MEMB      22              0.0000000000
      2630        22  SAPE      C315          -17.5106182432      -11.4635004481        5.0376072512  MEMB      22              0.0000000000
      2631        22  SAPE      H15X          -18.3002732272      -10.7339395434        5.2658069056  MEMB      22              0.0000000000
      2632        22  SAPE      H15Y          -17.7593282600      -12.3073231823        5.7016650353  MEMB      22              0.0000000000
      2633        22  SAPE      C316          -17.3974907274      -11.9414758379        3.5614220541  MEMB      22              0.0000000000
      2634        22  SAPE      H16X          -16.5570855999      -12.6280352549        3.4952919030  MEMB      22              0.0000000000
      2635        22  SAPE      H16Y          -17.1566424087      -11.0897014643        2.8787860011  MEMB      22              0.0000000000
      2636        22  SAPE      C317          -18.6440052117      -12.6829907841        3.0244568278  MEMB      22              0.0000000000
      2637        22  SAPE      H17X          -19.3515139495      -11.9928472568        2.5283399920  MEMB      22              0.0000000000
      2638        22  SAPE      H17Y          -19.1956130072      -13.0901258854        3.8970125194  MEMB      22              0.0000000000
      2639        22  SAPE      C318          -18.3794497898      -13.7566694757        1.9669372666  MEMB      22              0.0000000000
      2640        22  SAPE      H18X          -17.5210714768      -14.4105348392        2.2224417753  MEMB      22              0.0000000000
      2641        22  SAPE      H18Y          -18.1734424261      -13.2582445671        0.9947331611  MEMB      22              0.0000000000
      2642        22  SAPE      H18Z          -19.2842816962      -14.3902704281        1.8378202101  MEMB      22              0.0000000000
      2643        23  OSM       N              -8.9602092284      -16.6955065648       20.3424299113  MEMB      23              0.0000000000
      2644        23  OSM       C15            -8.9760140442      -15.6886453027       21.4498874024  MEMB      23              0.0000000000
      2645        23  OSM       H15A           -9.1224237046      -16.1975223672       22.4124863206  MEMB      23              0.0000000000
      2646        23  OSM       H15B           -9.7458139311      -14.9604165320       21.3039588945  MEMB      23              0.0000000000
      2647        23  OSM       H15C           -8.0038936031      -15.1925315076       21.4778260623  MEMB      23              0.0000000000
      2648        23  OSM       C14            -8.6685898788      -16.0443526368       19.0397917131  MEMB      23              0.0000000000
      2649        23  OSM       H14A           -8.7348070719      -16.7993327347       18.2600317518  MEMB      23              0.0000000000
      2650        23  OSM       H14B           -7.6459586510      -15.6572338543       19.0115448014  MEMB      23              0.0000000000
      2651        23  OSM       H14C           -9.3607198952      -15.2579974666       18.8227503701  MEMB      23              0.0000000000
      2652        23  OSM       C13            -7.8215885840      -17.6546276621       20.5845095718  MEMB      23              0.0000000000
      2653        23  OSM       H13A           -6.8554044047      -17.1585219886       20.5458313692  MEMB      23              0.0000000000
      2654        23  OSM       H13B           -7.8125772912      -18.4509211503       19.8480055613  MEMB      23              0.0000000000
      2655        23  OSM       H13C           -7.9293379121      -18.1328594803       21.5616294253  MEMB      23              0.0000000000
      2656        23  OSM       C12           -10.2773138551      -17.4495565468       20.1892560848  MEMB      23              0.0000000000
      2657        23  OSM       H12A          -10.1986996369      -18.1669347004       19.3667644975  MEMB      23              0.0000000000
      2658        23  OSM       H12B          -11.0310671981      -16.7575400028       19.8618082779  MEMB      23              0.0000000000
      2659        23  OSM       C11           -10.8833631120      -18.1754543888       21.4082898904  MEMB      23              0.0000000000
      2660        23  OSM       H11A          -11.8429056750      -18.6837397550       21.1450405484  MEMB      23              0.0000000000
      2661        23  OSM       H11B          -11.1377233001      -17.3841421918       22.1440624552  MEMB      23              0.0000000000
      2662        23  OSM       P              -9.7914655271      -20.5857839708       21.5743267299  MEMB      23              0.0000000000
      2663        23  OSM       O13            -8.5250260528      -21.1101081010       22.1251218243  MEMB      23              0.0000000000
      2664        23  OSM       O14           -11.0253216156      -21.3577497118       21.8612139954  MEMB      23              0.0000000000
      2665        23  OSM       O11            -9.6411284686      -20.4263381092       19.9843689662  MEMB      23              0.0000000000
      2666        23  OSM       O12            -9.9757080671      -19.0791491639       22.0032948729  MEMB      23              0.0000000000
      2667        23  OSM       C1S           -10.7627869051      -20.9007031630       19.2165904896  MEMB      23              0.0000000000
      2668        23  OSM       H1S           -11.6915269649      -20.3494230291       19.4619281696  MEMB      23              0.0000000000
      2669        23  OSM       H1T           -10.9573162181      -21.9843227240       19.4141154431  MEMB      23              0.0000000000
      2670        23  OSM       NF            -11.6590904098      -20.5287138695       16.9834586167  MEMB      23              0.0000000000
      2671        23  OSM       HNF           -11.8657475545      -21.2609551171       16.3297650263  MEMB      23              0.0000000000
      2672        23  OSM       C2S           -10.5541566103      -20.7726837034       17.6697215311  MEMB      23              0.0000000000
      2673        23  OSM       H2S            -9.8338140032      -19.9178889507       17.5022332922  MEMB      23              0.0000000000
      2674        23  OSM       C3S           -10.1077705124      -21.9772295801       17.0223656520  MEMB      23              0.0000000000
      2675        23  OSM       H3S           -10.4925569493      -22.9521980878       17.3536650785  MEMB      23              0.0000000000
      2676        23  OSM       O3             -9.2008001847      -22.2629045262       17.7911552307  MEMB      23              0.0000000000
      2677        23  OSM       HO3            -8.8916741939      -21.4441314011       18.2261003103  MEMB      23              0.0000000000
      2678        23  OSM       C4S            -9.5063348288      -21.8712827189       15.7080365605  MEMB      23              0.0000000000
      2679        23  OSM       H4S            -8.4651931447      -21.5323815550       15.5582946609  MEMB      23              0.0000000000
      2680        23  OSM       C5S           -10.1493248100      -22.5187101430       14.7801964569  MEMB      23              0.0000000000
      2681        23  OSM       H5S           -10.8806737514      -23.2646477259       15.1368237043  MEMB      23              0.0000000000
      2682        23  OSM       C6S            -9.7060521418      -22.5431514189       13.3807050048  MEMB      23              0.0000000000
      2683        23  OSM       H6S           -10.5606890466      -22.9860600652       12.8343834081  MEMB      23              0.0000000000
      2684        23  OSM       H6T            -8.7595465430      -23.1019375782       13.2521051035  MEMB      23              0.0000000000
      2685        23  OSM       C7S            -9.1963144791      -21.2903589421       12.7506478810  MEMB      23              0.0000000000
      2686        23  OSM       H7S            -8.2972480747      -20.9384273391       13.3095372255  MEMB      23              0.0000000000
      2687        23  OSM       H7T           -10.0251309361      -20.5697552504       12.8044557246  MEMB      23              0.0000000000
      2688        23  OSM       C8S            -8.9260113745      -21.5158556444       11.2774800786  MEMB      23              0.0000000000
      2689        23  OSM       H8S            -8.0879844363      -22.2307650721       11.0790812636  MEMB      23              0.0000000000
      2690        23  OSM       H8T            -8.5890272105      -20.5368484716       10.8757327349  MEMB      23              0.0000000000
      2691        23  OSM       C9S           -10.2394938583      -21.8956013231       10.5714920011  MEMB      23              0.0000000000
      2692        23  OSM       H9S           -10.9981187508      -21.1028540305       10.6210276741  MEMB      23              0.0000000000
      2693        23  OSM       H9T           -10.6696138924      -22.8851769786       10.8896342835  MEMB      23              0.0000000000
      2694        23  OSM       C10S           -9.9613194221      -22.0568772858        9.1353716685  MEMB      23              0.0000000000
      2695        23  OSM       H10S           -9.7405843145      -23.1459704091        9.2507678381  MEMB      23              0.0000000000
      2696        23  OSM       H10T           -9.0817460514      -21.4284474217        8.8503591345  MEMB      23              0.0000000000
      2697        23  OSM       C11S          -10.9321803289      -21.6122849623        8.0687562133  MEMB      23              0.0000000000
      2698        23  OSM       H11S          -11.0140776575      -20.5205244641        8.2381601218  MEMB      23              0.0000000000
      2699        23  OSM       H11T          -11.9198615382      -22.0928647149        8.2059987315  MEMB      23              0.0000000000
      2700        23  OSM       C12S          -10.4082775060      -21.8377586368        6.6305704371  MEMB      23              0.0000000000
      2701        23  OSM       H12S          -10.4877586785      -22.9297707497        6.4621757912  MEMB      23              0.0000000000
      2702        23  OSM       H12T           -9.4090887076      -21.4260619923        6.3825952919  MEMB      23              0.0000000000
      2703        23  OSM       C13S          -11.3777162186      -21.4150299972        5.6057772039  MEMB      23              0.0000000000
      2704        23  OSM       H13S          -11.5486947369      -20.3496064439        5.8144853330  MEMB      23              0.0000000000
      2705        23  OSM       H13T          -12.1557319311      -22.1397847726        5.9299374378  MEMB      23              0.0000000000
      2706        23  OSM       C14S          -11.1089717410      -21.4962012891        4.1247365385  MEMB      23              0.0000000000
      2707        23  OSM       H14S          -11.0116387909      -22.5774108871        3.8721503616  MEMB      23              0.0000000000
      2708        23  OSM       H14T          -10.1828188969      -20.9069076123        3.9898309935  MEMB      23              0.0000000000
      2709        23  OSM       C15S          -12.1174141299      -20.8313000500        3.1450444126  MEMB      23              0.0000000000
      2710        23  OSM       H15S          -12.3766679575      -19.8248822917        3.5005636183  MEMB      23              0.0000000000
      2711        23  OSM       H15T          -12.9759810246      -21.4910206858        3.0600801789  MEMB      23              0.0000000000
      2712        23  OSM       C16S          -11.7776584905      -20.6557861502        1.6605357528  MEMB      23              0.0000000000
      2713        23  OSM       H16S          -10.9199663884      -19.9411636245        1.6321023564  MEMB      23              0.0000000000
      2714        23  OSM       H16T          -12.6199698628      -20.3109641295        1.0438983840  MEMB      23              0.0000000000
      2715        23  OSM       C17S          -11.3718263351      -21.9510204867        1.0454787774  MEMB      23              0.0000000000
      2716        23  OSM       H17S          -11.9042396649      -22.9215796214        1.1042970338  MEMB      23              0.0000000000
      2717        23  OSM       H17T          -10.7896333263      -22.0365999228        1.9177598279  MEMB      23              0.0000000000
      2718        23  OSM       C18S          -10.4536580845      -21.8387000549       -0.1420472678  MEMB      23              0.0000000000
      2719        23  OSM       H18S          -11.0899061026      -21.8868750533       -1.0027286624  MEMB      23              0.0000000000
      2720        23  OSM       H18T           -9.9699639313      -22.7738224646       -0.3381069672  MEMB      23              0.0000000000
      2721        23  OSM       H18U           -9.6536329598      -21.0568799700       -0.0808284858  MEMB      23              0.0000000000
      2722        23  OSM       C1F           -12.3076747255      -19.4537500772       17.1942042902  MEMB      23              0.0000000000
      2723        23  OSM       OF            -11.9051960884      -18.5218003847       17.8816061413  MEMB      23              0.0000000000
      2724        23  OSM       C2F           -13.4328259805      -19.4803684061       16.3573620397  MEMB      23              0.0000000000
      2725        23  OSM       H2F           -14.4175093230      -19.7204956121       16.8023130444  MEMB      23              0.0000000000
      2726        23  OSM       H2G           -13.0771553276      -20.1319241014       15.5078170788  MEMB      23              0.0000000000
      2727        23  OSM       C3F           -13.5324928099      -18.2038865560       15.6746116411  MEMB      23              0.0000000000
      2728        23  OSM       H3F           -13.7640411089      -17.4675809269       16.4536193566  MEMB      23              0.0000000000
      2729        23  OSM       H3G           -14.4614827592      -18.2707508631       15.0416387607  MEMB      23              0.0000000000
      2730        23  OSM       C4F           -12.1542277616      -17.9687093079       15.0091346724  MEMB      23              0.0000000000
      2731        23  OSM       H4F           -11.7737135527      -18.7498349046       14.3600866476  MEMB      23              0.0000000000
      2732        23  OSM       H4G           -11.4320063601      -17.4182598232       15.6210795407  MEMB      23              0.0000000000
      2733        23  OSM       C5F           -12.1599013674      -17.0376600123       13.9663142045  MEMB      23              0.0000000000
      2734        23  OSM       H5F           -12.0882522038      -16.0388290716       14.4370143213  MEMB      23              0.0000000000
      2735        23  OSM       H5G           -13.1930930978      -17.3548386648       13.6992529583  MEMB      23              0.0000000000
      2736        23  OSM       C6F           -11.1349833808      -16.8784897325       12.9013283747  MEMB      23              0.0000000000
      2737        23  OSM       H6F           -11.7298997611      -16.5356968327       12.0975230938  MEMB      23              0.0000000000
      2738        23  OSM       H6G           -10.8605961326      -17.6578807650       12.1932564521  MEMB      23              0.0000000000
      2739        23  OSM       C7F           -10.1604187061      -15.7990961804       13.3449291954  MEMB      23              0.0000000000
      2740        23  OSM       H7F           -10.0921455260      -16.0234710732       14.4197557433  MEMB      23              0.0000000000
      2741        23  OSM       H7G           -10.3093860042      -14.6845587130       13.3625292407  MEMB      23              0.0000000000
      2742        23  OSM       C8F            -8.8667996474      -16.0853203817       12.7590386594  MEMB      23              0.0000000000
      2743        23  OSM       H8F            -8.6775985660      -17.1281868099       12.6587686557  MEMB      23              0.0000000000
      2744        23  OSM       H8G            -8.2245586862      -15.3925722670       13.3696895018  MEMB      23              0.0000000000
      2745        23  OSM       C9F            -8.8459743114      -15.7321922987       11.3899264219  MEMB      23              0.0000000000
      2746        23  OSM       H9F            -8.7509783965      -14.7358109642       11.5648657644  MEMB      23              0.0000000000
      2747        23  OSM       C10F           -8.7136747919      -16.1625720707       10.1566042276  MEMB      23              0.0000000000
      2748        23  OSM       H10F           -8.9464778642      -15.5079492446        9.3138508497  MEMB      23              0.0000000000
      2749        23  OSM       C11F           -8.4958483841      -17.4428521398        9.6276211359  MEMB      23              0.0000000000
      2750        23  OSM       H11F           -8.5916872711      -18.0329570094       10.5431259281  MEMB      23              0.0000000000
      2751        23  OSM       H11G           -7.4813620810      -17.3691197459        9.1851784914  MEMB      23              0.0000000000
      2752        23  OSM       C12F           -9.6226092456      -17.6534903202        8.6210007349  MEMB      23              0.0000000000
      2753        23  OSM       H12F          -10.5673316462      -17.0846808289        8.8255902142  MEMB      23              0.0000000000
      2754        23  OSM       H12G           -9.8154839542      -18.7245692192        8.7993629442  MEMB      23              0.0000000000
      2755        23  OSM       C13F           -9.2140946450      -17.4214048870        7.1622799136  MEMB      23              0.0000000000
      2756        23  OSM       H13F           -8.4382563130      -18.1661209054        6.8728401168  MEMB      23              0.0000000000
      2757        23  OSM       H13G           -8.7781744740      -16.4018238074        7.0682333516  MEMB      23              0.0000000000
      2758        23  OSM       C14F          -10.3556307429      -17.5199857958        6.1474830535  MEMB      23              0.0000000000
      2759        23  OSM       H14F          -11.3500544087      -17.3554928825        6.6190519549  MEMB      23              0.0000000000
      2760        23  OSM       H14G          -10.3437804330      -18.5542744998        5.7297957115  MEMB      23              0.0000000000
      2761        23  OSM       C15F          -10.1712740879      -16.4970900287        5.0163406347  MEMB      23              0.0000000000
      2762        23  OSM       H15F           -9.1472056350      -16.5994492834        4.5986686442  MEMB      23              0.0000000000
      2763        23  OSM       H15G          -10.2697797713      -15.4496000335        5.3832118948  MEMB      23              0.0000000000
      2764        23  OSM       C16F          -11.1813990257      -16.7367411880        3.9035706095  MEMB      23              0.0000000000
      2765        23  OSM       H16F          -12.1837546937      -16.5807378779        4.3392813083  MEMB      23              0.0000000000
      2766        23  OSM       H16G          -11.1493857056      -17.8029500473        3.5949506149  MEMB      23              0.0000000000
      2767        23  OSM       C17F          -11.0375091509      -15.7762227525        2.7232566338  MEMB      23              0.0000000000
      2768        23  OSM       H17F           -9.9854535673      -15.6206544107        2.4172074333  MEMB      23              0.0000000000
      2769        23  OSM       H17G          -11.4210666886      -14.7835996030        3.0676987599  MEMB      23              0.0000000000
      2770        23  OSM       C18F          -11.8040422596      -16.2521279435        1.4936255065  MEMB      23              0.0000000000
      2771        23  OSM       H18F          -11.7231964195      -15.4670665465        0.6992415356  MEMB      23              0.0000000000
      2772        23  OSM       H18G          -12.8761379131      -16.3864073803        1.7636280231  MEMB      23              0.0000000000
      2773        23  OSM       H18H          -11.4998240455      -17.2330907909        1.1130335504  MEMB      23              0.0000000000
      2774        24  CHL1      C3             -5.9956780057       20.1551472778       17.4077283267  MEMB      24              0.0000000000
      2775        24  CHL1      H3             -4.9144312930       20.0264372669       17.5115455449  MEMB      24              0.0000000000
      2776        24  CHL1      O3             -6.5784590962       19.8341129867       18.6579345470  MEMB      24              0.0000000000
      2777        24  CHL1      H3'            -6.4701999541       18.8701009375       18.7078902221  MEMB      24              0.0000000000
      2778        24  CHL1      C4             -6.2504257340       21.6319610982       17.1061054468  MEMB      24              0.0000000000
      2779        24  CHL1      H4A            -7.3369395229       21.7874369283       17.1995754546  MEMB      24              0.0000000000
      2780        24  CHL1      H4B            -5.7473047640       22.2401023530       17.8871926252  MEMB      24              0.0000000000
      2781        24  CHL1      C5             -5.8582557953       22.0655295920       15.7296650110  MEMB      24              0.0000000000
      2782        24  CHL1      C6             -5.0077650713       23.0784738382       15.5229756040  MEMB      24              0.0000000000
      2783        24  CHL1      H6             -4.5300974534       23.5678726205       16.3816975333  MEMB      24              0.0000000000
      2784        24  CHL1      C7             -4.7519665855       23.6873120615       14.1751616394  MEMB      24              0.0000000000
      2785        24  CHL1      H7A            -4.6876764489       24.7457052871       14.1394242754  MEMB      24              0.0000000000
      2786        24  CHL1      H7B            -3.6725570272       23.8189542714       13.9727963808  MEMB      24              0.0000000000
      2787        24  CHL1      C8             -5.7276460678       23.1200922664       13.0774780414  MEMB      24              0.0000000000
      2788        24  CHL1      H8             -6.6891369807       23.6286059449       13.1343154165  MEMB      24              0.0000000000
      2789        24  CHL1      C14            -5.1804087963       23.4186740318       11.6942450346  MEMB      24              0.0000000000
      2790        24  CHL1      H14            -4.4535672760       22.8229979720       12.0772713668  MEMB      24              0.0000000000
      2791        24  CHL1      C15            -4.1051767041       24.5031798513       11.3228259257  MEMB      24              0.0000000000
      2792        24  CHL1      H15A           -4.3687560001       25.3268638828       11.9283095436  MEMB      24              0.0000000000
      2793        24  CHL1      H15B           -3.0849092794       24.3935666170       11.7283955572  MEMB      24              0.0000000000
      2794        24  CHL1      C16            -4.0555093783       24.4551104551        9.7565100629  MEMB      24              0.0000000000
      2795        24  CHL1      H16A           -4.5524011027       25.2564133395        9.3685049294  MEMB      24              0.0000000000
      2796        24  CHL1      H16B           -3.1011527305       24.7224676074        9.2968085751  MEMB      24              0.0000000000
      2797        24  CHL1      C17            -4.8143710608       23.1624812409        9.2215673320  MEMB      24              0.0000000000
      2798        24  CHL1      H17            -4.0564143297       22.4946778568        8.8323589509  MEMB      24              0.0000000000
      2799        24  CHL1      C13            -5.6473197081       22.6183062741       10.4666574270  MEMB      24              0.0000000000
      2800        24  CHL1      C18            -6.9211091969       23.1579689549       10.3707245442  MEMB      24              0.0000000000
      2801        24  CHL1      H18A           -7.0942002542       22.8869269932        9.3438515356  MEMB      24              0.0000000000
      2802        24  CHL1      H18B           -7.7532384286       22.9437911207       11.0656461050  MEMB      24              0.0000000000
      2803        24  CHL1      H18C           -6.7754101371       24.1912836939       10.4213677372  MEMB      24              0.0000000000
      2804        24  CHL1      C12            -6.1055970347       21.1534703305       10.6080382091  MEMB      24              0.0000000000
      2805        24  CHL1      H12A           -6.9267605898       20.9168462176        9.8890035089  MEMB      24              0.0000000000
      2806        24  CHL1      H12B           -5.3211025992       20.4604546973       10.3034499660  MEMB      24              0.0000000000
      2807        24  CHL1      C11            -6.6517793023       20.8444662964       12.0262504954  MEMB      24              0.0000000000
      2808        24  CHL1      H11A           -7.7144172891       21.1331709156       12.0353993206  MEMB      24              0.0000000000
      2809        24  CHL1      H11B           -6.5776279963       19.7405725485       12.1507209967  MEMB      24              0.0000000000
      2810        24  CHL1      C9             -5.9969915376       21.5849375705       13.2489913631  MEMB      24              0.0000000000
      2811        24  CHL1      H9             -5.0801388775       21.0483307202       13.3806787329  MEMB      24              0.0000000000
      2812        24  CHL1      C10            -6.4807896425       21.1900297108       14.6345334363  MEMB      24              0.0000000000
      2813        24  CHL1      C19            -7.9675851258       21.4980179645       14.5705705391  MEMB      24              0.0000000000
      2814        24  CHL1      H19A           -8.0822864157       22.4851729624       14.0768251495  MEMB      24              0.0000000000
      2815        24  CHL1      H19B           -8.4812458263       20.7157427874       13.9811671087  MEMB      24              0.0000000000
      2816        24  CHL1      H19C           -8.4425043000       21.5623246288       15.5581169671  MEMB      24              0.0000000000
      2817        24  CHL1      C1             -6.1230151272       19.6721585747       14.9212578615  MEMB      24              0.0000000000
      2818        24  CHL1      H1A            -6.5467982684       19.0099138707       14.1467502102  MEMB      24              0.0000000000
      2819        24  CHL1      H1B            -5.0423894878       19.4320820518       14.8457415975  MEMB      24              0.0000000000
      2820        24  CHL1      C2             -6.5663065811       19.2319801207       16.3170100749  MEMB      24              0.0000000000
      2821        24  CHL1      H2A            -6.3023640268       18.1662574646       16.5026302125  MEMB      24              0.0000000000
      2822        24  CHL1      H2B            -7.6708642508       19.3350728719       16.3416368854  MEMB      24              0.0000000000
      2823        24  CHL1      C20            -5.2872518221       23.0991347953        7.7863358533  MEMB      24              0.0000000000
      2824        24  CHL1      H20            -6.1012669405       23.7034557534        7.8589468255  MEMB      24              0.0000000000
      2825        24  CHL1      C21            -5.8183341349       21.6857920828        7.3668962929  MEMB      24              0.0000000000
      2826        24  CHL1      H21A           -6.6756129071       21.3589328193        7.9649875434  MEMB      24              0.0000000000
      2827        24  CHL1      H21B           -5.1500620788       20.8685354136        7.6322891963  MEMB      24              0.0000000000
      2828        24  CHL1      H21C           -6.0609639580       21.6140585523        6.2887647718  MEMB      24              0.0000000000
      2829        24  CHL1      C22            -4.3311482721       23.8304899256        6.8208492505  MEMB      24              0.0000000000
      2830        24  CHL1      H22A           -3.8481887109       24.7420293559        7.1967885590  MEMB      24              0.0000000000
      2831        24  CHL1      H22B           -3.5560779814       23.1200199212        6.8937814371  MEMB      24              0.0000000000
      2832        24  CHL1      C23            -4.8065699228       24.0234796047        5.3699673575  MEMB      24              0.0000000000
      2833        24  CHL1      H23A           -5.1798052574       23.0482209142        5.0168688110  MEMB      24              0.0000000000
      2834        24  CHL1      H23B           -5.6909482609       24.6029477574        5.4304644536  MEMB      24              0.0000000000
      2835        24  CHL1      C24            -3.8057553047       24.6758019764        4.3635454292  MEMB      24              0.0000000000
      2836        24  CHL1      H24A           -3.4377018658       25.6108596806        4.8060954219  MEMB      24              0.0000000000
      2837        24  CHL1      H24B           -2.8686613066       24.1239547535        4.2513280028  MEMB      24              0.0000000000
      2838        24  CHL1      C25            -4.2846103794       24.8656697438        2.8956990702  MEMB      24              0.0000000000
      2839        24  CHL1      H25            -4.8793864853       23.9602181244        2.6118397501  MEMB      24              0.0000000000
      2840        24  CHL1      C26            -5.1356767537       26.1283923932        2.8376731400  MEMB      24              0.0000000000
      2841        24  CHL1      H26A           -4.5280174497       26.9731957598        3.2228559292  MEMB      24              0.0000000000
      2842        24  CHL1      H26B           -5.4318528988       26.3612378257        1.7960129831  MEMB      24              0.0000000000
      2843        24  CHL1      H26C           -6.0315760981       26.0419679952        3.4759917779  MEMB      24              0.0000000000
      2844        24  CHL1      C27            -3.1270276132       25.0497016278        1.8625891128  MEMB      24              0.0000000000
      2845        24  CHL1      H27A           -2.5987566369       24.1497576439        1.5188412940  MEMB      24              0.0000000000
      2846        24  CHL1      H27B           -3.5129622771       25.4173857824        0.8982687636  MEMB      24              0.0000000000
      2847        24  CHL1      H27C           -2.3446675933       25.7175943051        2.2673340416  MEMB      24              0.0000000000
      2848        25  OSM       N               1.8975792914       23.0715218910       19.5990803395  MEMB      25              0.0000000000
      2849        25  OSM       C15             2.3985300810       24.1623973798       20.4726219917  MEMB      25              0.0000000000
      2850        25  OSM       H15A            2.0819824357       23.9669067036       21.4974762758  MEMB      25              0.0000000000
      2851        25  OSM       H15B            1.9624507864       25.0910217837       20.1316862429  MEMB      25              0.0000000000
      2852        25  OSM       H15C            3.4775120036       24.2076522303       20.4508259193  MEMB      25              0.0000000000
      2853        25  OSM       C14             0.4008364187       23.0769169668       19.7542110870  MEMB      25              0.0000000000
      2854        25  OSM       H14A           -0.0765236486       23.7948137254       19.0976186647  MEMB      25              0.0000000000
      2855        25  OSM       H14B            0.1344782901       23.3332077836       20.7746568092  MEMB      25              0.0000000000
      2856        25  OSM       H14C           -0.0523103304       22.1026161272       19.5714433352  MEMB      25              0.0000000000
      2857        25  OSM       C13             2.2207135562       23.3703383290       18.1664872352  MEMB      25              0.0000000000
      2858        25  OSM       H13A            1.6739188523       24.2531060724       17.8269652395  MEMB      25              0.0000000000
      2859        25  OSM       H13B            1.9453896918       22.5493088629       17.5096906713  MEMB      25              0.0000000000
      2860        25  OSM       H13C            3.2712270881       23.6041783788       18.0556506984  MEMB      25              0.0000000000
      2861        25  OSM       C12             2.5508314337       21.7668184493       20.0518306576  MEMB      25              0.0000000000
      2862        25  OSM       H12A            3.6004158478       21.7598193343       19.7664865904  MEMB      25              0.0000000000
      2863        25  OSM       H12B            2.0905797300       20.9720671555       19.5020638119  MEMB      25              0.0000000000
      2864        25  OSM       C11             2.5077575577       21.3082844617       21.5438335567  MEMB      25              0.0000000000
      2865        25  OSM       H11A            2.7400945580       22.1305036767       22.2250004595  MEMB      25              0.0000000000
      2866        25  OSM       H11B            3.3168035899       20.5316398246       21.6443015205  MEMB      25              0.0000000000
      2867        25  OSM       P               1.1191632513       19.3639536937       22.4727336296  MEMB      25              0.0000000000
      2868        25  OSM       O13             2.1957136242       18.9260865582       23.3872093842  MEMB      25              0.0000000000
      2869        25  OSM       O14            -0.2651085443       19.0654988745       22.8803426028  MEMB      25              0.0000000000
      2870        25  OSM       O11             1.4692423103       18.8274518732       21.0019434631  MEMB      25              0.0000000000
      2871        25  OSM       O12             1.2397328063       20.8580274931       22.0016714007  MEMB      25              0.0000000000
      2872        25  OSM       C1S             0.6305847780       19.2748281453       19.8954893502  MEMB      25              0.0000000000
      2873        25  OSM       H1S            -0.2594677809       19.7393040580       20.2178427927  MEMB      25              0.0000000000
      2874        25  OSM       H1T            -0.1516818618       18.6269617632       19.6240460007  MEMB      25              0.0000000000
      2875        25  OSM       NF             -0.1868304208       19.1091526675       17.5094366061  MEMB      25              0.0000000000
      2876        25  OSM       HNF            -0.1073348214       18.4233113947       16.7831547085  MEMB      25              0.0000000000
      2877        25  OSM       C2S             0.9749245764       19.2905969376       18.3810826576  MEMB      25              0.0000000000
      2878        25  OSM       H2S             1.3558434673       20.3063164575       18.3566312136  MEMB      25              0.0000000000
      2879        25  OSM       C3S             1.9461697319       18.3103110118       17.9276662810  MEMB      25              0.0000000000
      2880        25  OSM       H3S             1.2759763180       17.4321914825       17.6864726294  MEMB      25              0.0000000000
      2881        25  OSM       O3              3.1447234653       18.2134524590       18.7298914301  MEMB      25              0.0000000000
      2882        25  OSM       HO3             2.8648103686       18.2252196724       19.6491287632  MEMB      25              0.0000000000
      2883        25  OSM       C4S             2.3435391085       18.5856197405       16.6097531496  MEMB      25              0.0000000000
      2884        25  OSM       H4S             2.1081835659       17.9320607278       15.7716896061  MEMB      25              0.0000000000
      2885        25  OSM       C5S             3.0845712092       19.5706937809       16.4436385130  MEMB      25              0.0000000000
      2886        25  OSM       H5S             3.2949445328       20.2465539808       17.2796667505  MEMB      25              0.0000000000
      2887        25  OSM       C6S             3.4612047151       19.7672316761       15.1258406894  MEMB      25              0.0000000000
      2888        25  OSM       H6S             4.5198610702       19.5131272775       15.1620988490  MEMB      25              0.0000000000
      2889        25  OSM       H6T             3.0906521497       20.7917983682       15.2036703909  MEMB      25              0.0000000000
      2890        25  OSM       C7S             3.0920388116       19.0817276277       13.8412077846  MEMB      25              0.0000000000
      2891        25  OSM       H7S             3.4135804878       18.0183892164       13.8726527578  MEMB      25              0.0000000000
      2892        25  OSM       H7T             3.6856790379       19.6113739373       13.0726085126  MEMB      25              0.0000000000
      2893        25  OSM       C8S             1.6528881283       19.2789749475       13.4739717202  MEMB      25              0.0000000000
      2894        25  OSM       H8S             1.3445835914       20.3428143542       13.6112219407  MEMB      25              0.0000000000
      2895        25  OSM       H8T             1.0819696666       18.6332218173       14.1641405212  MEMB      25              0.0000000000
      2896        25  OSM       C9S             1.4019542778       18.8088930319       12.0584834507  MEMB      25              0.0000000000
      2897        25  OSM       H9S             0.3121173025       18.8738211673       11.8543679497  MEMB      25              0.0000000000
      2898        25  OSM       H9T             1.7256680544       17.7430369613       12.0089158252  MEMB      25              0.0000000000
      2899        25  OSM       C10S            2.1590987599       19.5766744180       10.9737761143  MEMB      25              0.0000000000
      2900        25  OSM       H10S            3.2403108466       19.3443973321       11.0588263477  MEMB      25              0.0000000000
      2901        25  OSM       H10T            2.0255139912       20.6763718063       11.0648729586  MEMB      25              0.0000000000
      2902        25  OSM       C11S            1.6288611691       19.1113594565        9.6270235464  MEMB      25              0.0000000000
      2903        25  OSM       H11S            0.5864943348       19.4696240956        9.5364504846  MEMB      25              0.0000000000
      2904        25  OSM       H11T            1.6177430782       18.0033112667        9.6724572681  MEMB      25              0.0000000000
      2905        25  OSM       C12S            2.4374505297       19.5653770942        8.4228408355  MEMB      25              0.0000000000
      2906        25  OSM       H12S            1.9956912260       19.1247094042        7.5016189031  MEMB      25              0.0000000000
      2907        25  OSM       H12T            3.4872414282       19.2193379548        8.5246311955  MEMB      25              0.0000000000
      2908        25  OSM       C13S            2.4847389506       21.0615878286        8.2100767755  MEMB      25              0.0000000000
      2909        25  OSM       H13S            3.0406498969       21.5631388712        9.0447272161  MEMB      25              0.0000000000
      2910        25  OSM       H13T            1.4621171592       21.4990687109        8.2146941898  MEMB      25              0.0000000000
      2911        25  OSM       C14S            3.2184734290       21.3434510222        6.8891563059  MEMB      25              0.0000000000
      2912        25  OSM       H14S            4.3009079886       21.1486539648        6.9493199677  MEMB      25              0.0000000000
      2913        25  OSM       H14T            3.2967310832       22.3960253658        6.9728177583  MEMB      25              0.0000000000
      2914        25  OSM       C15S            2.5754458890       20.9220241715        5.5239084592  MEMB      25              0.0000000000
      2915        25  OSM       H15S            1.7214288595       20.2397693595        5.7021337623  MEMB      25              0.0000000000
      2916        25  OSM       H15T            3.3472588637       20.4518778089        4.8796341503  MEMB      25              0.0000000000
      2917        25  OSM       C16S            1.9851797218       22.0104806128        4.6191814368  MEMB      25              0.0000000000
      2918        25  OSM       H16S            2.7486958602       22.6281409305        4.1038602986  MEMB      25              0.0000000000
      2919        25  OSM       H16T            1.2520565142       22.5843792949        5.2050656681  MEMB      25              0.0000000000
      2920        25  OSM       C17S            1.3839579878       21.6436569780        3.3047279685  MEMB      25              0.0000000000
      2921        25  OSM       H17S            0.5053451397       21.0154947636        3.5136403204  MEMB      25              0.0000000000
      2922        25  OSM       H17T            2.1745674835       21.0698936322        2.7664390811  MEMB      25              0.0000000000
      2923        25  OSM       C18S            1.0419540254       22.9449537990        2.5595099629  MEMB      25              0.0000000000
      2924        25  OSM       H18S            0.6259588180       22.7056559055        1.5670091692  MEMB      25              0.0000000000
      2925        25  OSM       H18T            1.9522973832       23.5680735831        2.4124471078  MEMB      25              0.0000000000
      2926        25  OSM       H18U            0.3098688701       23.5663122444        3.1255019643  MEMB      25              0.0000000000
      2927        25  OSM       C1F            -1.2476307961       19.8768490100       17.5908712665  MEMB      25              0.0000000000
      2928        25  OSM       OF             -1.3518206535       20.7357672604       18.4471719699  MEMB      25              0.0000000000
      2929        25  OSM       C2F            -2.2200979467       19.7356254510       16.5091589903  MEMB      25              0.0000000000
      2930        25  OSM       H2F            -3.2198539035       19.5597345366       16.9190883173  MEMB      25              0.0000000000
      2931        25  OSM       H2G            -1.9945634939       18.8929117383       15.8262561188  MEMB      25              0.0000000000
      2932        25  OSM       C3F            -2.1147216558       21.0146015106       15.6967357089  MEMB      25              0.0000000000
      2933        25  OSM       H3F            -1.0750342444       21.2123296970       15.3781850097  MEMB      25              0.0000000000
      2934        25  OSM       H3G            -2.5099630853       21.8854672888       16.2853416753  MEMB      25              0.0000000000
      2935        25  OSM       C4F            -2.8923354454       20.7783221436       14.4450676312  MEMB      25              0.0000000000
      2936        25  OSM       H4F            -3.8930532403       20.9446986367       14.8560118207  MEMB      25              0.0000000000
      2937        25  OSM       H4G            -2.9207522323       19.7672756340       14.0155056503  MEMB      25              0.0000000000
      2938        25  OSM       C5F            -2.5493190933       21.5841099141       13.2209593913  MEMB      25              0.0000000000
      2939        25  OSM       H5F            -1.7411067768       22.3193192634       13.2130564260  MEMB      25              0.0000000000
      2940        25  OSM       H5G            -3.3656285372       22.2065670305       13.3512633836  MEMB      25              0.0000000000
      2941        25  OSM       C6F            -3.0225429459       20.9593998546       11.9268765773  MEMB      25              0.0000000000
      2942        25  OSM       H6F            -4.1215532572       20.9021991567       11.9010112564  MEMB      25              0.0000000000
      2943        25  OSM       H6G            -2.8067464182       19.9392107598       11.7003338026  MEMB      25              0.0000000000
      2944        25  OSM       C7F            -2.8552798581       21.7029901742       10.6603285153  MEMB      25              0.0000000000
      2945        25  OSM       H7F            -3.2951420091       22.5909577743       10.7790751950  MEMB      25              0.0000000000
      2946        25  OSM       H7G            -3.6375661893       21.2736213030       10.0441116781  MEMB      25              0.0000000000
      2947        25  OSM       C8F            -1.7254640500       22.5705075237       10.2092650408  MEMB      25              0.0000000000
      2948        25  OSM       H8F            -1.2962057758       23.0503001684       11.1147594400  MEMB      25              0.0000000000
      2949        25  OSM       H8G            -1.9404997744       23.3042025926        9.4264447939  MEMB      25              0.0000000000
      2950        25  OSM       C9F            -1.2461466296       21.3572746881        9.5924211568  MEMB      25              0.0000000000
      2951        25  OSM       H9F            -0.9647581083       20.6499025667       10.3727955001  MEMB      25              0.0000000000
      2952        25  OSM       C10F           -1.2153734484       21.0483707232        8.2904713329  MEMB      25              0.0000000000
      2953        25  OSM       H10F           -0.8746890816       20.0507736818        8.0633993820  MEMB      25              0.0000000000
      2954        25  OSM       C11F           -1.6110606054       21.7687797222        7.0322652869  MEMB      25              0.0000000000
      2955        25  OSM       H11F           -0.7615674722       21.7617666643        6.3414590791  MEMB      25              0.0000000000
      2956        25  OSM       H11G           -1.7880872947       22.8553093892        7.1994763808  MEMB      25              0.0000000000
      2957        25  OSM       C12F           -2.7417231825       20.9649704867        6.3383691202  MEMB      25              0.0000000000
      2958        25  OSM       H12F           -3.4918874534       21.0256440120        7.1031701055  MEMB      25              0.0000000000
      2959        25  OSM       H12G           -2.5755385625       19.8972478406        6.1603402800  MEMB      25              0.0000000000
      2960        25  OSM       C13F           -3.2649709051       21.5302580042        5.0349746227  MEMB      25              0.0000000000
      2961        25  OSM       H13F           -3.0747422614       22.5768814483        5.1819533055  MEMB      25              0.0000000000
      2962        25  OSM       H13G           -4.3269178867       21.3188754944        4.7701302611  MEMB      25              0.0000000000
      2963        25  OSM       C14F           -2.3661197054       21.2800455515        3.8856302013  MEMB      25              0.0000000000
      2964        25  OSM       H14F           -2.3712963155       20.1930749536        3.7901626827  MEMB      25              0.0000000000
      2965        25  OSM       H14G           -1.3920992489       21.7446879879        4.1989118366  MEMB      25              0.0000000000
      2966        25  OSM       C15F           -2.8289753433       21.8955116088        2.5897754173  MEMB      25              0.0000000000
      2967        25  OSM       H15F           -2.5689707716       22.9186589676        2.8279495306  MEMB      25              0.0000000000
      2968        25  OSM       H15G           -3.9181134588       21.8305159995        2.3767235519  MEMB      25              0.0000000000
      2969        25  OSM       C16F           -2.0089160882       21.4501449987        1.3947259943  MEMB      25              0.0000000000
      2970        25  OSM       H16F           -0.9388583879       21.4850541544        1.6732863353  MEMB      25              0.0000000000
      2971        25  OSM       H16G           -2.2138877879       22.1198975328        0.5295072495  MEMB      25              0.0000000000
      2972        25  OSM       C17F           -2.3529074932       20.0287571979        0.9978843426  MEMB      25              0.0000000000
      2973        25  OSM       H17F           -3.4560413220       20.0116815113        0.8529692844  MEMB      25              0.0000000000
      2974        25  OSM       H17G           -2.1402325173       19.3666014712        1.8672283724  MEMB      25              0.0000000000
      2975        25  OSM       C18F           -1.6291925472       19.5728814571       -0.2752084828  MEMB      25              0.0000000000
      2976        25  OSM       H18F           -1.9473011673       20.1884496414       -1.1420651070  MEMB      25              0.0000000000
      2977        25  OSM       H18G           -1.8573816264       18.5059122661       -0.4835807992  MEMB      25              0.0000000000
      2978        25  OSM       H18H           -0.5272201447       19.6944295807       -0.2224648336  MEMB      25              0.0000000000
      2979        26  OSM       N             -18.8994834687       -7.2196732541       22.4600855652  MEMB      26              0.0000000000
      2980        26  OSM       C15           -18.0862667100       -6.0321547084       22.0252739499  MEMB      26              0.0000000000
      2981        26  OSM       H15A          -17.1589856187       -6.3054324457       21.5382386197  MEMB      26              0.0000000000
      2982        26  OSM       H15B          -17.8431495060       -5.4814688925       22.9224669327  MEMB      26              0.0000000000
      2983        26  OSM       H15C          -18.6393412439       -5.3566225967       21.3660860157  MEMB      26              0.0000000000
      2984        26  OSM       C14           -18.9960007740       -8.2266226272       21.3391125370  MEMB      26              0.0000000000
      2985        26  OSM       H14A          -18.0772802381       -8.6909036293       21.0294228349  MEMB      26              0.0000000000
      2986        26  OSM       H14B          -19.4093014466       -7.7249704412       20.4504696242  MEMB      26              0.0000000000
      2987        26  OSM       H14C          -19.7375827934       -8.9660235986       21.6027810603  MEMB      26              0.0000000000
      2988        26  OSM       C13           -18.2840380074       -7.8486137644       23.6355140724  MEMB      26              0.0000000000
      2989        26  OSM       H13A          -17.5506621752       -8.5823294664       23.3496448874  MEMB      26              0.0000000000
      2990        26  OSM       H13B          -19.0572367089       -8.3146679985       24.2450452662  MEMB      26              0.0000000000
      2991        26  OSM       H13C          -17.7949299600       -7.0723767724       24.2197604824  MEMB      26              0.0000000000
      2992        26  OSM       C12           -20.2994199212       -6.7594494506       22.8822416674  MEMB      26              0.0000000000
      2993        26  OSM       H12A          -20.2540704888       -6.2022147503       23.8053853927  MEMB      26              0.0000000000
      2994        26  OSM       H12B          -20.9250607959       -7.6199501340       23.1254676745  MEMB      26              0.0000000000
      2995        26  OSM       C11           -21.0308545234       -5.9100705311       21.8519598377  MEMB      26              0.0000000000
      2996        26  OSM       H11A          -20.6611962101       -4.8568224776       21.8346941381  MEMB      26              0.0000000000
      2997        26  OSM       H11B          -22.1215074795       -5.8361737545       22.1437231607  MEMB      26              0.0000000000
      2998        26  OSM       P             -21.8231685161       -6.2207308356       19.5619228277  MEMB      26              0.0000000000
      2999        26  OSM       O13           -23.0611740938       -6.7051245548       20.2115932469  MEMB      26              0.0000000000
      3000        26  OSM       O14           -21.6178445443       -4.8002141804       19.2456105021  MEMB      26              0.0000000000
      3001        26  OSM       O11           -21.6624907072       -7.0893088324       18.2538430530  MEMB      26              0.0000000000
      3002        26  OSM       O12           -20.7720286840       -6.5424736528       20.5846146903  MEMB      26              0.0000000000
      3003        26  OSM       C1S           -20.4603429623       -6.9026409142       17.5180406517  MEMB      26              0.0000000000
      3004        26  OSM       H1S           -19.6773564783       -7.3895977016       18.1261752535  MEMB      26              0.0000000000
      3005        26  OSM       H1T           -20.1656974361       -5.8337822427       17.3838866196  MEMB      26              0.0000000000
      3006        26  OSM       NF            -21.5180702618       -7.0126134532       15.2381355748  MEMB      26              0.0000000000
      3007        26  OSM       HNF           -22.3827209551       -7.4825916572       15.1498573809  MEMB      26              0.0000000000
      3008        26  OSM       C2S           -20.5598347356       -7.6142869006       16.1345188133  MEMB      26              0.0000000000
      3009        26  OSM       H2S           -19.5468767810       -7.5468509346       15.6623940770  MEMB      26              0.0000000000
      3010        26  OSM       C3S           -20.9324571213       -9.0644276101       16.4241716206  MEMB      26              0.0000000000
      3011        26  OSM       H3S           -21.9433011863       -9.1480191893       16.8612918070  MEMB      26              0.0000000000
      3012        26  OSM       O3            -20.0301986381       -9.6635154480       17.3649545164  MEMB      26              0.0000000000
      3013        26  OSM       HO3           -19.3638808774       -9.0105656019       17.6067170448  MEMB      26              0.0000000000
      3014        26  OSM       C4S           -21.0961853371       -9.7799564160       15.0741242892  MEMB      26              0.0000000000
      3015        26  OSM       H4S           -22.1110264818       -9.9151845845       14.7377507126  MEMB      26              0.0000000000
      3016        26  OSM       C5S           -20.1670627049      -10.2004188385       14.2463035353  MEMB      26              0.0000000000
      3017        26  OSM       H5S           -19.2350377718       -9.9149009344       14.6187447296  MEMB      26              0.0000000000
      3018        26  OSM       C6S           -20.1564488083      -10.9092726668       12.9202322651  MEMB      26              0.0000000000
      3019        26  OSM       H6S           -20.3790871980      -11.9891353989       13.0855540416  MEMB      26              0.0000000000
      3020        26  OSM       H6T           -19.1354343853      -10.9165980221       12.4601230244  MEMB      26              0.0000000000
      3021        26  OSM       C7S           -21.0860388143      -10.2554772934       11.9118007902  MEMB      26              0.0000000000
      3022        26  OSM       H7S           -22.1267337759      -10.2479899012       12.3043808858  MEMB      26              0.0000000000
      3023        26  OSM       H7T           -21.0801680464      -10.8978010093       11.0035015225  MEMB      26              0.0000000000
      3024        26  OSM       C8S           -20.6752205624       -8.8126890321       11.5454510340  MEMB      26              0.0000000000
      3025        26  OSM       H8S           -20.6515382179       -8.1307331448       12.4234326844  MEMB      26              0.0000000000
      3026        26  OSM       H8T           -21.4852855144       -8.4288617267       10.8932598890  MEMB      26              0.0000000000
      3027        26  OSM       C9S           -19.3270617264       -8.6617875179       10.8139717487  MEMB      26              0.0000000000
      3028        26  OSM       H9S           -19.0937928529       -9.6089700574       10.2800174812  MEMB      26              0.0000000000
      3029        26  OSM       H9T           -18.5151366563       -8.4984053338       11.5604827531  MEMB      26              0.0000000000
      3030        26  OSM       C10S          -19.4167655353       -7.5087256461        9.7871492804  MEMB      26              0.0000000000
      3031        26  OSM       H10S          -19.7973983349       -6.5982630595       10.2914162065  MEMB      26              0.0000000000
      3032        26  OSM       H10T          -20.1626654932       -7.8023975935        9.0178217007  MEMB      26              0.0000000000
      3033        26  OSM       C11S          -18.1312471361       -7.1771922439        9.0385723413  MEMB      26              0.0000000000
      3034        26  OSM       H11S          -17.8603460751       -8.1167733568        8.5224106681  MEMB      26              0.0000000000
      3035        26  OSM       H11T          -17.3214647929       -6.9185850448        9.7641942180  MEMB      26              0.0000000000
      3036        26  OSM       C12S          -18.2345254043       -6.1010905412        7.9370665907  MEMB      26              0.0000000000
      3037        26  OSM       H12S          -17.1977390875       -5.8493699077        7.6091720532  MEMB      26              0.0000000000
      3038        26  OSM       H12T          -18.6693698057       -5.1975595230        8.4113881278  MEMB      26              0.0000000000
      3039        26  OSM       C13S          -19.0859015812       -6.5373040687        6.7183783707  MEMB      26              0.0000000000
      3040        26  OSM       H13S          -20.1636330448       -6.5651814657        6.9923267654  MEMB      26              0.0000000000
      3041        26  OSM       H13T          -18.8085944814       -7.5658208939        6.4121658954  MEMB      26              0.0000000000
      3042        26  OSM       C14S          -19.0233673232       -5.6724002785        5.4603486459  MEMB      26              0.0000000000
      3043        26  OSM       H14S          -19.5634965372       -6.1955854772        4.6380000704  MEMB      26              0.0000000000
      3044        26  OSM       H14T          -17.9801884215       -5.4909141686        5.1093473715  MEMB      26              0.0000000000
      3045        26  OSM       C15S          -19.8382696666       -4.4158133519        5.6431053815  MEMB      26              0.0000000000
      3046        26  OSM       H15S          -19.2911041931       -3.7400002119        6.2273330606  MEMB      26              0.0000000000
      3047        26  OSM       H15T          -20.7698132047       -4.4641499368        6.2050101093  MEMB      26              0.0000000000
      3048        26  OSM       C16S          -20.1241033181       -3.7637485440        4.3786395018  MEMB      26              0.0000000000
      3049        26  OSM       H16S          -20.6451146326       -2.7873650717        4.5447313116  MEMB      26              0.0000000000
      3050        26  OSM       H16T          -20.7007067508       -4.3737522524        3.6513542784  MEMB      26              0.0000000000
      3051        26  OSM       C17S          -18.9143090429       -3.3797425684        3.7399012966  MEMB      26              0.0000000000
      3052        26  OSM       H17S          -18.0231663836       -3.9710782026        3.4224957901  MEMB      26              0.0000000000
      3053        26  OSM       H17T          -18.5285871000       -2.4674345755        4.0531854234  MEMB      26              0.0000000000
      3054        26  OSM       C18S          -19.6223539422       -2.7506782716        2.7240175823  MEMB      26              0.0000000000
      3055        26  OSM       H18S          -18.6147584814       -2.5752529481        2.3181573298  MEMB      26              0.0000000000
      3056        26  OSM       H18T          -20.2100658165       -1.7990658287        2.8646111665  MEMB      26              0.0000000000
      3057        26  OSM       H18U          -20.1330781043       -3.3522546943        2.0163949901  MEMB      26              0.0000000000
      3058        26  OSM       C1F           -21.3113445843       -5.8043816881       14.7673753124  MEMB      26              0.0000000000
      3059        26  OSM       OF            -20.2584089262       -5.2584119096       15.0346742375  MEMB      26              0.0000000000
      3060        26  OSM       C2F           -22.3616466717       -5.1436204706       13.9208405101  MEMB      26              0.0000000000
      3061        26  OSM       H2F           -22.1561965755       -4.0582375583       13.8854855854  MEMB      26              0.0000000000
      3062        26  OSM       H2G           -23.3478192426       -5.2156280510       14.3806087569  MEMB      26              0.0000000000
      3063        26  OSM       C3F           -22.3403841609       -5.6459749112       12.4660897538  MEMB      26              0.0000000000
      3064        26  OSM       H3F           -22.6311269447       -6.7214568132       12.4346104628  MEMB      26              0.0000000000
      3065        26  OSM       H3G           -21.3335824660       -5.5044393935       12.0189467886  MEMB      26              0.0000000000
      3066        26  OSM       C4F           -23.2851662513       -4.8625053609       11.5718116775  MEMB      26              0.0000000000
      3067        26  OSM       H4F           -23.1984886130       -3.7621448385       11.7343875394  MEMB      26              0.0000000000
      3068        26  OSM       H4G           -24.2645604918       -5.2342849958       11.9006406136  MEMB      26              0.0000000000
      3069        26  OSM       C5F           -23.0559968397       -5.1581620842       10.0927729683  MEMB      26              0.0000000000
      3070        26  OSM       H5F           -21.9957292412       -5.0217040736        9.8597723093  MEMB      26              0.0000000000
      3071        26  OSM       H5G           -23.4291149556       -4.3885535925        9.4229285212  MEMB      26              0.0000000000
      3072        26  OSM       C6F           -23.6245037590       -6.5049311054        9.6533718052  MEMB      26              0.0000000000
      3073        26  OSM       H6F           -24.6515842835       -6.6774997305       10.0660302687  MEMB      26              0.0000000000
      3074        26  OSM       H6G           -22.9658997759       -7.2742812009       10.0909640495  MEMB      26              0.0000000000
      3075        26  OSM       C7F           -23.7040811558       -6.6332659329        8.1246240507  MEMB      26              0.0000000000
      3076        26  OSM       H7F           -22.8534933566       -6.2490239213        7.5450563286  MEMB      26              0.0000000000
      3077        26  OSM       H7G           -24.6813573081       -6.1823315087        7.8154395956  MEMB      26              0.0000000000
      3078        26  OSM       C8F           -23.7428944091       -8.0518882043        7.6486875098  MEMB      26              0.0000000000
      3079        26  OSM       H8F           -24.3460116593       -8.1222205361        6.7157740040  MEMB      26              0.0000000000
      3080        26  OSM       H8G           -24.3614390947       -8.3499649858        8.4122456845  MEMB      26              0.0000000000
      3081        26  OSM       C9F           -22.5958431357       -8.9874731355        7.7715894143  MEMB      26              0.0000000000
      3082        26  OSM       H9F           -22.5216903212       -9.5833087122        8.7045392628  MEMB      26              0.0000000000
      3083        26  OSM       C10F          -21.8013300798       -9.2097207691        6.7326177160  MEMB      26              0.0000000000
      3084        26  OSM       H10F          -20.9194019462       -9.8355005071        6.8725366220  MEMB      26              0.0000000000
      3085        26  OSM       C11F          -21.9410637056       -8.5879029872        5.3686419784  MEMB      26              0.0000000000
      3086        26  OSM       H11F          -21.1400106981       -7.8579699288        5.1438532138  MEMB      26              0.0000000000
      3087        26  OSM       H11G          -22.9245510829       -8.0696628750        5.2087836197  MEMB      26              0.0000000000
      3088        26  OSM       C12F          -21.8663536148       -9.7156009040        4.3503969928  MEMB      26              0.0000000000
      3089        26  OSM       H12F          -22.1693673548       -9.5051385036        3.3570428367  MEMB      26              0.0000000000
      3090        26  OSM       H12G          -22.4488846757      -10.5586637727        4.6725212204  MEMB      26              0.0000000000
      3091        26  OSM       C13F          -20.6300248393      -10.4335893889        4.0156051067  MEMB      26              0.0000000000
      3092        26  OSM       H13F          -20.9041205683      -11.0825040961        3.1433448617  MEMB      26              0.0000000000
      3093        26  OSM       H13G          -20.4259984397      -11.0774644970        4.8948585620  MEMB      26              0.0000000000
      3094        26  OSM       C14F          -19.4950202193       -9.4962165558        3.7406496410  MEMB      26              0.0000000000
      3095        26  OSM       H14F          -18.6832708046      -10.1261679522        3.4770450490  MEMB      26              0.0000000000
      3096        26  OSM       H14G          -19.2323667074       -8.9437335966        4.6602094291  MEMB      26              0.0000000000
      3097        26  OSM       C15F          -19.4106868365       -8.7196553666        2.4752943529  MEMB      26              0.0000000000
      3098        26  OSM       H15F          -20.2478659435       -8.0381384489        2.6509417159  MEMB      26              0.0000000000
      3099        26  OSM       H15G          -19.5292288282       -9.3969606006        1.5903423907  MEMB      26              0.0000000000
      3100        26  OSM       C16F          -18.0777208925       -7.9933196137        2.3761803452  MEMB      26              0.0000000000
      3101        26  OSM       H16F          -17.2522568952       -8.6869312161        2.6044296435  MEMB      26              0.0000000000
      3102        26  OSM       H16G          -18.0880976489       -7.0907159620        3.0367128784  MEMB      26              0.0000000000
      3103        26  OSM       C17F          -17.6313767603       -7.5848560348        1.0121064056  MEMB      26              0.0000000000
      3104        26  OSM       H17F          -18.5912309605       -7.5105762871        0.4734371941  MEMB      26              0.0000000000
      3105        26  OSM       H17G          -17.3731004922       -8.3262580639        0.2650603716  MEMB      26              0.0000000000
      3106        26  OSM       C18F          -16.5584506848       -6.4263317036        1.1593820843  MEMB      26              0.0000000000
      3107        26  OSM       H18F          -16.8203975100       -5.6434649223        1.9139470587  MEMB      26              0.0000000000
      3108        26  OSM       H18G          -16.3464764631       -5.7697649231        0.2884584683  MEMB      26              0.0000000000
      3109        26  OSM       H18H          -15.6129186998       -6.8944468455        1.3913914573  MEMB      26              0.0000000000
      3110        27  SOPE      N              13.9340109016       15.6647729605       23.9556384378  MEMB      27              0.0000000000
      3111        27  SOPE      HN1            13.4256207869       16.2357538385       24.6611213529  MEMB      27              0.0000000000
      3112        27  SOPE      HN2            13.7970784777       14.6552978200       24.1568000095  MEMB      27              0.0000000000
      3113        27  SOPE      HN3            14.9442409640       15.9108641899       23.9046971564  MEMB      27              0.0000000000
      3114        27  SOPE      C12            13.2747578622       15.9772243981       22.6509500776  MEMB      27              0.0000000000
      3115        27  SOPE      H12A           13.2747434820       17.0817530466       22.5290981705  MEMB      27              0.0000000000
      3116        27  SOPE      H12B           12.2338066936       15.6081521088       22.7559317218  MEMB      27              0.0000000000
      3117        27  SOPE      C11            13.9729609054       15.2718886352       21.4788187070  MEMB      27              0.0000000000
      3118        27  SOPE      H11A           13.2725587128       15.2645763261       20.6102398760  MEMB      27              0.0000000000
      3119        27  SOPE      H11B           14.1575456622       14.2005142748       21.7171980309  MEMB      27              0.0000000000
      3120        27  SOPE      P              15.3392679890       16.9708749817       19.9949082620  MEMB      27              0.0000000000
      3121        27  SOPE      O13            16.7700432943       17.3576267219       19.9145005099  MEMB      27              0.0000000000
      3122        27  SOPE      O14            14.3250514336       18.0202854262       20.2057493891  MEMB      27              0.0000000000
      3123        27  SOPE      O12            15.2164273564       15.8977461585       21.1760600154  MEMB      27              0.0000000000
      3124        27  SOPE      O11            14.9435802184       16.1524884215       18.7198726367  MEMB      27              0.0000000000
      3125        27  SOPE      C1             15.6241172615       14.9602729190       18.3498324470  MEMB      27              0.0000000000
      3126        27  SOPE      HA             15.4770695909       14.1464062064       19.1001151489  MEMB      27              0.0000000000
      3127        27  SOPE      HB             16.6840583068       15.1365022658       18.1037984815  MEMB      27              0.0000000000
      3128        27  SOPE      C2             15.0065215372       14.4548070458       17.0924389810  MEMB      27              0.0000000000
      3129        27  SOPE      HS             15.4293204853       13.4477402602       16.8016296077  MEMB      27              0.0000000000
      3130        27  SOPE      O21            15.0744976933       15.4215503066       16.0234899519  MEMB      27              0.0000000000
      3131        27  SOPE      C21            16.2944033858       15.6051841780       15.5293506187  MEMB      27              0.0000000000
      3132        27  SOPE      O22            17.2447955427       14.8672035598       15.7254497219  MEMB      27              0.0000000000
      3133        27  SOPE      C22            16.0917881537       16.4975642025       14.2644122655  MEMB      27              0.0000000000
      3134        27  SOPE      H2R            16.2177567203       17.5105568676       14.6522815039  MEMB      27              0.0000000000
      3135        27  SOPE      H2S            15.0696314081       16.3769440321       13.8265335855  MEMB      27              0.0000000000
      3136        27  SOPE      C3             13.5512739108       14.2155517568       17.4733178189  MEMB      27              0.0000000000
      3137        27  SOPE      HX             13.4507558258       13.3968010976       18.1949457256  MEMB      27              0.0000000000
      3138        27  SOPE      HY             13.3415165345       13.9471109687       16.5039873030  MEMB      27              0.0000000000
      3139        27  SOPE      O31            12.7118828825       15.3093380898       17.7723522044  MEMB      27              0.0000000000
      3140        27  SOPE      C31            11.7611043581       15.6062707166       16.9386737870  MEMB      27              0.0000000000
      3141        27  SOPE      O32            11.2713874506       14.9582767111       16.0474408100  MEMB      27              0.0000000000
      3142        27  SOPE      C32            11.3388041245       16.9305737119       17.2421981432  MEMB      27              0.0000000000
      3143        27  SOPE      H2X            12.0682202203       17.5655878696       17.7786161711  MEMB      27              0.0000000000
      3144        27  SOPE      H2Y            10.3725871824       16.8632259283       17.8132382273  MEMB      27              0.0000000000
      3145        27  SOPE      C23            17.0809177000       16.2269325245       13.1088322962  MEMB      27              0.0000000000
      3146        27  SOPE      H3R            16.7013129800       15.4534982564       12.3976168061  MEMB      27              0.0000000000
      3147        27  SOPE      H3S            18.0575604985       15.8512210033       13.4974932734  MEMB      27              0.0000000000
      3148        27  SOPE      C24            17.3303198053       17.4921367354       12.3155504213  MEMB      27              0.0000000000
      3149        27  SOPE      H4R            16.5263062435       17.7061100184       11.5794834297  MEMB      27              0.0000000000
      3150        27  SOPE      H4S            17.5090387274       18.3938994764       12.9364534162  MEMB      27              0.0000000000
      3151        27  SOPE      C25            18.6514490083       17.4388798128       11.6680759520  MEMB      27              0.0000000000
      3152        27  SOPE      H5R            18.7220611583       18.3340815438       11.0643476124  MEMB      27              0.0000000000
      3153        27  SOPE      H5S            19.4756234602       17.1814086797       12.3161855672  MEMB      27              0.0000000000
      3154        27  SOPE      C26            18.8184096891       16.5079163024       10.6588262786  MEMB      27              0.0000000000
      3155        27  SOPE      H6R            19.9247882680       16.4591880019       10.3691289338  MEMB      27              0.0000000000
      3156        27  SOPE      H6S            18.5804313056       15.5183044068       11.1491038305  MEMB      27              0.0000000000
      3157        27  SOPE      C27            17.8248383831       17.0221084858        9.5840948874  MEMB      27              0.0000000000
      3158        27  SOPE      H7R            18.4871314000       16.2133623323        9.4160281050  MEMB      27              0.0000000000
      3159        27  SOPE      H7S            16.7625588635       16.7505876466        9.6482961556  MEMB      27              0.0000000000
      3160        27  SOPE      C28            18.0405472790       17.2229641383        8.1188186502  MEMB      27              0.0000000000
      3161        27  SOPE      H8R            17.3121349514       17.6242925802        7.4216969877  MEMB      27              0.0000000000
      3162        27  SOPE      H8S            18.7552733798       17.8908675397        8.5768187120  MEMB      27              0.0000000000
      3163        27  SOPE      C29            18.8056332727       16.4386413312        7.3009648925  MEMB      27              0.0000000000
      3164        27  SOPE      H91            19.8095816791       16.5340504816        7.7318455682  MEMB      27              0.0000000000
      3165        27  SOPE      C210           18.5838200589       15.7496060619        6.2417883588  MEMB      27              0.0000000000
      3166        27  SOPE      H101           19.4803271555       15.2509683331        5.9948129117  MEMB      27              0.0000000000
      3167        27  SOPE      C211           17.5305972223       15.4047305220        5.3421028576  MEMB      27              0.0000000000
      3168        27  SOPE      H11R           16.7164078625       15.9794985681        5.7689566859  MEMB      27              0.0000000000
      3169        27  SOPE      H11S           17.4650066323       14.3245310733        5.4336023169  MEMB      27              0.0000000000
      3170        27  SOPE      C212           17.7959374647       15.6184779776        3.8657805558  MEMB      27              0.0000000000
      3171        27  SOPE      H12R           16.8971547964       15.3372801869        3.2984781927  MEMB      27              0.0000000000
      3172        27  SOPE      H12S           18.6591219867       15.0436090831        3.4360080319  MEMB      27              0.0000000000
      3173        27  SOPE      C213           17.9993463519       17.0341783833        3.5453425560  MEMB      27              0.0000000000
      3174        27  SOPE      H13R           18.8777493894       17.4880755811        4.0165590144  MEMB      27              0.0000000000
      3175        27  SOPE      H13S           17.1635233877       17.6847800488        3.8859494270  MEMB      27              0.0000000000
      3176        27  SOPE      C214           18.2004835317       17.1254740959        2.0832984940  MEMB      27              0.0000000000
      3177        27  SOPE      H14R           17.3512222065       16.6100116438        1.5733647873  MEMB      27              0.0000000000
      3178        27  SOPE      H14S           19.2109927460       16.8060724800        1.7263815626  MEMB      27              0.0000000000
      3179        27  SOPE      C215           18.0383412924       18.5594816262        1.8155999850  MEMB      27              0.0000000000
      3180        27  SOPE      H15R           18.9167143712       19.1996718708        1.7648468981  MEMB      27              0.0000000000
      3181        27  SOPE      H15S           17.1817838272       19.0295623464        2.2860224436  MEMB      27              0.0000000000
      3182        27  SOPE      C216           18.3971967644       18.9882099704        0.6859757993  MEMB      27              0.0000000000
      3183        27  SOPE      H16R           17.5236645384       18.2637445482        0.2939587375  MEMB      27              0.0000000000
      3184        27  SOPE      H16S           18.6565145737       17.9549496790        0.2087096742  MEMB      27              0.0000000000
      3185        27  SOPE      C217           18.6570914400       20.9243874393       -0.3734629710  MEMB      27              0.0000000000
      3186        27  SOPE      H17R           19.3952809702       21.3334512298        0.1912511904  MEMB      27              0.0000000000
      3187        27  SOPE      H17S           17.9389753633       21.6631061408       -0.4665385371  MEMB      27              0.0000000000
      3188        27  SOPE      C218           18.1691463771       20.9125189260       -2.7069148277  MEMB      27              0.0000000000
      3189        27  SOPE      H18R           18.8647473994       21.3799611460       -3.0565612512  MEMB      27              0.0000000000
      3190        27  SOPE      H18S           17.1858917099       20.5552956102       -3.2320374934  MEMB      27              0.0000000000
      3191        27  SOPE      H18T           18.1810875935       19.8777809456       -3.3181715515  MEMB      27              0.0000000000
      3192        27  SOPE      C33            11.0934209741       17.5729291001       15.9132927086  MEMB      27              0.0000000000
      3193        27  SOPE      H3X            10.5256960666       18.3658050804       16.4287070507  MEMB      27              0.0000000000
      3194        27  SOPE      H3Y            10.3280187207       17.3746243970       15.2140814006  MEMB      27              0.0000000000
      3195        27  SOPE      C34            12.1135161600       17.6932672028       14.7528512793  MEMB      27              0.0000000000
      3196        27  SOPE      H4X            12.5483285855       16.7226553574       14.5023888398  MEMB      27              0.0000000000
      3197        27  SOPE      H4Y            12.8286797458       18.3456644271       15.3004610378  MEMB      27              0.0000000000
      3198        27  SOPE      C35            11.6837181390       18.1194469907       13.2702736002  MEMB      27              0.0000000000
      3199        27  SOPE      H5X            10.8729223221       18.8767532417       13.2257229033  MEMB      27              0.0000000000
      3200        27  SOPE      H5Y            10.8736187809       17.7965845573       12.6276844976  MEMB      27              0.0000000000
      3201        27  SOPE      C36            12.9007514531       18.4186568503       12.3589262477  MEMB      27              0.0000000000
      3202        27  SOPE      H6X            13.4068835352       17.4689726250       12.2290909006  MEMB      27              0.0000000000
      3203        27  SOPE      H6Y            13.6950469245       19.1421451576       12.7032609898  MEMB      27              0.0000000000
      3204        27  SOPE      C37            12.4116920623       19.0015935116       11.0507445356  MEMB      27              0.0000000000
      3205        27  SOPE      H7X            12.2810960662       20.0122682256       11.3801961470  MEMB      27              0.0000000000
      3206        27  SOPE      H7Y            11.3848807520       18.7135027107       10.7698919415  MEMB      27              0.0000000000
      3207        27  SOPE      C38            13.4586878988       19.1378185705        9.9565469868  MEMB      27              0.0000000000
      3208        27  SOPE      H8X            13.9212806118       18.1388254478        9.9294321879  MEMB      27              0.0000000000
      3209        27  SOPE      H8Y            14.2063543552       19.9327035838       10.2487941543  MEMB      27              0.0000000000
      3210        27  SOPE      C39            12.8696832820       19.4432302159        8.5773777719  MEMB      27              0.0000000000
      3211        27  SOPE      H9X            12.6303313738       20.4532757680        8.3053405046  MEMB      27              0.0000000000
      3212        27  SOPE      H9Y            11.8964119249       18.9627326839        8.4266797989  MEMB      27              0.0000000000
      3213        27  SOPE      C310           13.9243572680       19.2663104299        7.5554507532  MEMB      27              0.0000000000
      3214        27  SOPE      H10X           14.1745141199       18.1946147027        7.6107517477  MEMB      27              0.0000000000
      3215        27  SOPE      H10Y           14.7707176560       19.8965412625        7.8791902432  MEMB      27              0.0000000000
      3216        27  SOPE      C311           13.5336374480       19.7348951798        6.1813337886  MEMB      27              0.0000000000
      3217        27  SOPE      H11X           13.5794210260       20.8482319812        6.0889432155  MEMB      27              0.0000000000
      3218        27  SOPE      H11Y           12.5005612453       19.4327833792        5.9282947414  MEMB      27              0.0000000000
      3219        27  SOPE      C312           14.5882266961       19.1791935088        5.2689816472  MEMB      27              0.0000000000
      3220        27  SOPE      H12X           14.5813283474       18.0690419675        5.1645553140  MEMB      27              0.0000000000
      3221        27  SOPE      H12Y           15.5322977496       19.4973363878        5.6614469053  MEMB      27              0.0000000000
      3222        27  SOPE      C313           14.5456886594       19.8433066018        3.9863190003  MEMB      27              0.0000000000
      3223        27  SOPE      H13X           15.3574002130       19.5090773149        3.3073968791  MEMB      27              0.0000000000
      3224        27  SOPE      H13Y           14.4472857771       20.9550392169        3.9543808879  MEMB      27              0.0000000000
      3225        27  SOPE      C314           13.3475370696       19.3196681709        3.4930617654  MEMB      27              0.0000000000
      3226        27  SOPE      H14X           12.3527908274       19.6461731486        3.9527791900  MEMB      27              0.0000000000
      3227        27  SOPE      H14Y           13.4470550606       18.2679300007        3.1162576181  MEMB      27              0.0000000000
      3228        27  SOPE      C315           13.4719737722       19.8712983649        2.2803357114  MEMB      27              0.0000000000
      3229        27  SOPE      H15X           13.5347706780       20.9721024218        2.2035903049  MEMB      27              0.0000000000
      3230        27  SOPE      H15Y           12.3334236470       20.0137571289        2.1990724799  MEMB      27              0.0000000000
      3231        27  SOPE      C316           14.3673025717       18.8578014822        1.2962440772  MEMB      27              0.0000000000
      3232        27  SOPE      H16X           14.1798779988       17.7638573503        1.2129165913  MEMB      27              0.0000000000
      3233        27  SOPE      H16Y           15.3233352414       18.5190933252        1.6918090274  MEMB      27              0.0000000000
      3234        27  SOPE      C317           14.5415961947       19.2153453895       -0.2964931925  MEMB      27              0.0000000000
      3235        27  SOPE      H17X           14.2265160732       18.3419047633       -0.7329644790  MEMB      27              0.0000000000
      3236        27  SOPE      H17Y           14.4468835314       18.1712575227       -0.4438130774  MEMB      27              0.0000000000
      3237        27  SOPE      C318           14.2896620146       20.8404007962       -1.2698587748  MEMB      27              0.0000000000
      3238        27  SOPE      H18X           14.0795745143       21.1201887155       -2.3202934860  MEMB      27              0.0000000000
      3239        27  SOPE      H18Y           15.0725208347       21.4651165465       -1.1268262710  MEMB      27              0.0000000000
      3240        27  SOPE      H18Z           13.4332549562       21.4951568509       -0.9569872959  MEMB      27              0.0000000000
      3241        28  OSM       N             -21.4123129445        3.7853424857       21.7308769208  MEMB      28              0.0000000000
      3242        28  OSM       C15           -21.5569640187        2.3038887904       21.5501356270  MEMB      28              0.0000000000
      3243        28  OSM       H15A          -20.6484496249        1.7874144010       21.8310876519  MEMB      28              0.0000000000
      3244        28  OSM       H15B          -21.7534759207        2.0220857997       20.5172264580  MEMB      28              0.0000000000
      3245        28  OSM       H15C          -22.3657796213        1.8878498917       22.1521519919  MEMB      28              0.0000000000
      3246        28  OSM       C14           -22.7139513522        4.4821999252       21.3905496569  MEMB      28              0.0000000000
      3247        28  OSM       H14A          -23.1686018757        4.1758917773       20.4553847348  MEMB      28              0.0000000000
      3248        28  OSM       H14B          -22.5311942672        5.5572723558       21.2425455009  MEMB      28              0.0000000000
      3249        28  OSM       H14C          -23.4581132490        4.3780230796       22.1638942399  MEMB      28              0.0000000000
      3250        28  OSM       C13           -21.0627013479        4.0793605140       23.1583413270  MEMB      28              0.0000000000
      3251        28  OSM       H13A          -21.9727986412        4.1427976803       23.7507075880  MEMB      28              0.0000000000
      3252        28  OSM       H13B          -20.5916312715        5.0568364056       23.2222272717  MEMB      28              0.0000000000
      3253        28  OSM       H13C          -20.4272569986        3.3193480801       23.5890444263  MEMB      28              0.0000000000
      3254        28  OSM       C12           -20.3154694890        4.2946513666       20.8191845959  MEMB      28              0.0000000000
      3255        28  OSM       H12A          -20.6168095664        4.1189868181       19.7965257513  MEMB      28              0.0000000000
      3256        28  OSM       H12B          -19.4466223284        3.6779777902       21.0176916280  MEMB      28              0.0000000000
      3257        28  OSM       C11           -19.8516446018        5.7811291245       20.9126570927  MEMB      28              0.0000000000
      3258        28  OSM       H11A          -19.3260924766        6.0751848196       19.9752957389  MEMB      28              0.0000000000
      3259        28  OSM       H11B          -19.1075066347        5.8026411746       21.7292400111  MEMB      28              0.0000000000
      3260        28  OSM       P             -21.5508486021        7.8038498642       20.3216433294  MEMB      28              0.0000000000
      3261        28  OSM       O13           -22.9153488893        7.2983253834       20.0655379977  MEMB      28              0.0000000000
      3262        28  OSM       O14           -21.4365978971        9.0511254444       21.0909726275  MEMB      28              0.0000000000
      3263        28  OSM       O11           -20.6727001278        7.8480717208       18.9556631923  MEMB      28              0.0000000000
      3264        28  OSM       O12           -20.8591276414        6.7013923226       21.2483568196  MEMB      28              0.0000000000
      3265        28  OSM       C1S           -21.2641588487        7.0825657757       17.8827160302  MEMB      28              0.0000000000
      3266        28  OSM       H1S           -22.3498398952        7.2960142250       17.8416459473  MEMB      28              0.0000000000
      3267        28  OSM       H1T           -21.1233737754        6.0051509528       18.0744589768  MEMB      28              0.0000000000
      3268        28  OSM       NF            -21.4801687574        6.5348335385       15.4294298302  MEMB      28              0.0000000000
      3269        28  OSM       HNF           -21.0533836510        5.8450375552       14.8885216562  MEMB      28              0.0000000000
      3270        28  OSM       C2S           -20.7138830618        7.2777606325       16.4165121725  MEMB      28              0.0000000000
      3271        28  OSM       H2S           -20.7444092853        8.3116286265       16.0995473261  MEMB      28              0.0000000000
      3272        28  OSM       C3S           -19.2506011292        6.8815176238       16.3470319580  MEMB      28              0.0000000000
      3273        28  OSM       H3S           -19.2433275773        5.8167208593       16.6740535434  MEMB      28              0.0000000000
      3274        28  OSM       O3            -18.4694875892        7.6865819525       17.2230807938  MEMB      28              0.0000000000
      3275        28  OSM       HO3           -19.1287197818        8.0918800616       17.8125498274  MEMB      28              0.0000000000
      3276        28  OSM       C4S           -18.7927032985        6.9857889366       14.8938113170  MEMB      28              0.0000000000
      3277        28  OSM       H4S           -19.1797415813        7.8650461201       14.4202511718  MEMB      28              0.0000000000
      3278        28  OSM       C5S           -18.0639123231        6.1868034733       14.0980820601  MEMB      28              0.0000000000
      3279        28  OSM       H5S           -17.6483351547        5.2644025708       14.5398283887  MEMB      28              0.0000000000
      3280        28  OSM       C6S           -17.7058144018        6.4492933192       12.6322733200  MEMB      28              0.0000000000
      3281        28  OSM       H6S           -17.5837164509        5.4723661823       12.1461603409  MEMB      28              0.0000000000
      3282        28  OSM       H6T           -16.7104859551        6.9476133751       12.5372839031  MEMB      28              0.0000000000
      3283        28  OSM       C7S           -18.5906865874        7.0467478048       11.5067748176  MEMB      28              0.0000000000
      3284        28  OSM       H7S           -18.0204261193        7.0363858949       10.5642336779  MEMB      28              0.0000000000
      3285        28  OSM       H7T           -18.6500576985        8.0897863848       11.5034466223  MEMB      28              0.0000000000
      3286        28  OSM       C8S           -20.0455373673        6.5951830088       11.3950116626  MEMB      28              0.0000000000
      3287        28  OSM       H8S           -20.5697984253        6.7247275769       12.3697836660  MEMB      28              0.0000000000
      3288        28  OSM       H8T           -20.0089572780        5.5327655724       11.1384762279  MEMB      28              0.0000000000
      3289        28  OSM       C9S           -20.8315554879        7.3344694282       10.2956628443  MEMB      28              0.0000000000
      3290        28  OSM       H9S           -20.8135567443        8.4071635018       10.5041481432  MEMB      28              0.0000000000
      3291        28  OSM       H9T           -21.9130978127        7.1218086610       10.3485079538  MEMB      28              0.0000000000
      3292        28  OSM       C10S          -20.3541877909        7.0230335738        8.8653880953  MEMB      28              0.0000000000
      3293        28  OSM       H10S          -20.1918411166        5.9412057789        8.7832090581  MEMB      28              0.0000000000
      3294        28  OSM       H10T          -19.3614429766        7.4570664248        8.6441805377  MEMB      28              0.0000000000
      3295        28  OSM       C11S          -21.3875050992        7.4706643248        7.8247900759  MEMB      28              0.0000000000
      3296        28  OSM       H11S          -21.4319412138        8.5643134714        7.7882595105  MEMB      28              0.0000000000
      3297        28  OSM       H11T          -22.3895445896        7.1241126868        8.1501383933  MEMB      28              0.0000000000
      3298        28  OSM       C12S          -21.1482613381        6.9766314806        6.4014606236  MEMB      28              0.0000000000
      3299        28  OSM       H12S          -21.0957216675        5.9099372813        6.5745707960  MEMB      28              0.0000000000
      3300        28  OSM       H12T          -20.1695676888        7.2866415176        5.9871416186  MEMB      28              0.0000000000
      3301        28  OSM       C13S          -22.3118402395        7.3975044172        5.5009622689  MEMB      28              0.0000000000
      3302        28  OSM       H13S          -22.4409066381        8.4988966510        5.6252273174  MEMB      28              0.0000000000
      3303        28  OSM       H13T          -23.2568004273        6.9366171229        5.8590091022  MEMB      28              0.0000000000
      3304        28  OSM       C14S          -22.2383685880        7.1063959019        4.0021523930  MEMB      28              0.0000000000
      3305        28  OSM       H14S          -22.2355554184        6.0140175436        3.7914511283  MEMB      28              0.0000000000
      3306        28  OSM       H14T          -21.3281555622        7.5350310008        3.5320880279  MEMB      28              0.0000000000
      3307        28  OSM       C15S          -23.4935701437        7.7556073466        3.4162740629  MEMB      28              0.0000000000
      3308        28  OSM       H15S          -23.6033702696        8.8051963072        3.7505082100  MEMB      28              0.0000000000
      3309        28  OSM       H15T          -24.3788523561        7.1794425940        3.7926427060  MEMB      28              0.0000000000
      3310        28  OSM       C16S          -23.5727548427        7.8203364077        1.9070412730  MEMB      28              0.0000000000
      3311        28  OSM       H16S          -24.3449060784        8.4999548957        1.5751204741  MEMB      28              0.0000000000
      3312        28  OSM       H16T          -24.1170231690        6.8552528753        1.7570422229  MEMB      28              0.0000000000
      3313        28  OSM       C17S          -22.2499919601        8.1781349845        1.0929917999  MEMB      28              0.0000000000
      3314        28  OSM       H17S          -21.5530862078        7.4288103796        1.5079570701  MEMB      28              0.0000000000
      3315        28  OSM       H17T          -21.7496087454        9.0895615576        1.4099616969  MEMB      28              0.0000000000
      3316        28  OSM       C18S          -22.2130001948        8.2583344130       -0.5013273764  MEMB      28              0.0000000000
      3317        28  OSM       H18S          -23.0691605690        8.5608260604       -1.0736277637  MEMB      28              0.0000000000
      3318        28  OSM       H18T          -22.2834631711        7.3034157119       -1.0121092020  MEMB      28              0.0000000000
      3319        28  OSM       H18U          -21.2809279061        8.5390044043       -0.9812943817  MEMB      28              0.0000000000
      3320        28  OSM       C1F           -22.7207752253        6.8357656095       15.2471500344  MEMB      28              0.0000000000
      3321        28  OSM       OF            -23.0863595810        7.7474693162       15.9191498643  MEMB      28              0.0000000000
      3322        28  OSM       C2F           -23.5645808235        5.9815164423       14.3549953606  MEMB      28              0.0000000000
      3323        28  OSM       H2F           -24.5385693369        5.7355806916       14.8378688212  MEMB      28              0.0000000000
      3324        28  OSM       H2G           -22.9783143098        5.0642366775       14.1744929538  MEMB      28              0.0000000000
      3325        28  OSM       C3F           -23.7866681858        6.5605912726       12.9664157788  MEMB      28              0.0000000000
      3326        28  OSM       H3F           -22.8606468627        6.9652731092       12.5182406837  MEMB      28              0.0000000000
      3327        28  OSM       H3G           -24.4195666441        7.4348830642       13.0596836609  MEMB      28              0.0000000000
      3328        28  OSM       C4F           -24.3308406311        5.5488889504       11.9760137127  MEMB      28              0.0000000000
      3329        28  OSM       H4F           -24.2434796505        5.9893390653       10.9732325865  MEMB      28              0.0000000000
      3330        28  OSM       H4G           -25.3957846398        5.2236635072       12.0584464833  MEMB      28              0.0000000000
      3331        28  OSM       C5F           -23.3614784340        4.4840736273       11.6482874218  MEMB      28              0.0000000000
      3332        28  OSM       H5F           -23.4076806240        3.6744638194       12.3969522783  MEMB      28              0.0000000000
      3333        28  OSM       H5G           -22.3135805293        4.8471590087       11.5105771550  MEMB      28              0.0000000000
      3334        28  OSM       C6F           -23.8384908638        3.9612701464       10.3238836429  MEMB      28              0.0000000000
      3335        28  OSM       H6F           -23.8542649256        4.6975246616        9.4938780126  MEMB      28              0.0000000000
      3336        28  OSM       H6G           -24.8455630375        3.5509807107       10.5507190066  MEMB      28              0.0000000000
      3337        28  OSM       C7F           -22.8013620564        2.9764058710        9.8921072850  MEMB      28              0.0000000000
      3338        28  OSM       H7F           -22.7510582456        2.3293363579       10.7068136858  MEMB      28              0.0000000000
      3339        28  OSM       H7G           -21.9950693489        3.6863035375        9.7928776806  MEMB      28              0.0000000000
      3340        28  OSM       C8F           -22.6232746836        2.1141589407        8.6576584242  MEMB      28              0.0000000000
      3341        28  OSM       H8F           -23.0568946370        1.1738637483        8.9294881879  MEMB      28              0.0000000000
      3342        28  OSM       H8G           -22.1636028404        1.0602381164        8.5932378452  MEMB      28              0.0000000000
      3343        28  OSM       C9F           -22.9944768662        3.0809763995        7.4185848532  MEMB      28              0.0000000000
      3344        28  OSM       H9F           -23.9686476492        3.4827799594        7.1590132101  MEMB      28              0.0000000000
      3345        28  OSM       C10F          -22.6268867099        2.6355092681        6.2276648587  MEMB      28              0.0000000000
      3346        28  OSM       H10F          -22.8597256020        3.0409408396        5.2079984932  MEMB      28              0.0000000000
      3347        28  OSM       C11F          -21.9717720820        1.3369319042        6.1136685152  MEMB      28              0.0000000000
      3348        28  OSM       H11F          -22.0909289239        0.9240084291        5.1655036471  MEMB      28              0.0000000000
      3349        28  OSM       H11G          -21.9693568290        0.2713572621        6.5060310202  MEMB      28              0.0000000000
      3350        28  OSM       C12F          -21.0592482156        2.3585178620        6.4321446213  MEMB      28              0.0000000000
      3351        28  OSM       H12F          -20.4608677759        1.4150853345        6.6841005052  MEMB      28              0.0000000000
      3352        28  OSM       H12G          -20.7557070023        1.7907676212        7.3288431793  MEMB      28              0.0000000000
      3353        28  OSM       C13F          -20.5967317275        3.8045800025        5.4610567369  MEMB      28              0.0000000000
      3354        28  OSM       H13F          -19.6287181141        4.3778861877        5.4375529123  MEMB      28              0.0000000000
      3355        28  OSM       H13G          -21.3570569951        4.5282746644        5.5246976575  MEMB      28              0.0000000000
      3356        28  OSM       C14F          -20.1861945570        3.8261743370        3.9844021066  MEMB      28              0.0000000000
      3357        28  OSM       H14F          -21.1292618187        3.6345710102        3.4830587786  MEMB      28              0.0000000000
      3358        28  OSM       H14G          -19.3282171127        3.0987371548        3.8809326694  MEMB      28              0.0000000000
      3359        28  OSM       C15F          -19.1800478684        4.4554694030        3.1462424883  MEMB      28              0.0000000000
      3360        28  OSM       H15F          -18.1251227396        4.2795792660        3.5354359717  MEMB      28              0.0000000000
      3361        28  OSM       H15G          -19.5328538001        5.4753088636        3.3079678152  MEMB      28              0.0000000000
      3362        28  OSM       C16F          -19.4968001062        3.9686769875        1.7099538941  MEMB      28              0.0000000000
      3363        28  OSM       H16F          -20.5547178204        4.1246798133        1.7406937607  MEMB      28              0.0000000000
      3364        28  OSM       H16G          -19.7761390177        3.0032771620        1.3408768327  MEMB      28              0.0000000000
      3365        28  OSM       C17F          -18.5530158874        4.2377196328        0.5698942598  MEMB      28              0.0000000000
      3366        28  OSM       H17F          -17.5512717297        3.7801084508        0.7104542676  MEMB      28              0.0000000000
      3367        28  OSM       H17G          -18.6334461587        5.3463637208        0.6569851815  MEMB      28              0.0000000000
      3368        28  OSM       C18F          -18.7642093871        3.8093165066       -0.8386564495  MEMB      28              0.0000000000
      3369        28  OSM       H18F          -18.5985470160        2.8031265749       -1.1548053213  MEMB      28              0.0000000000
      3370        28  OSM       H18G          -18.1753850584        4.5597802300       -1.4042050267  MEMB      28              0.0000000000
      3371        28  OSM       H18H          -19.8160153093        3.8788094625       -1.0365307806  MEMB      28              0.0000000000
      3372        29  OSM       N             -16.0898647698       13.4076312439       21.9269195012  MEMB      29              0.0000000000
      3373        29  OSM       C15           -15.9727942984       13.6945840904       20.4539857679  MEMB      29              0.0000000000
      3374        29  OSM       H15A          -15.4480158081       14.6168552297       20.2559759352  MEMB      29              0.0000000000
      3375        29  OSM       H15B          -16.9716857318       13.7540720580       19.9928581371  MEMB      29              0.0000000000
      3376        29  OSM       H15C          -15.4846849290       12.8921422413       19.9227966675  MEMB      29              0.0000000000
      3377        29  OSM       C14           -14.7659985013       13.1744199392       22.5566807835  MEMB      29              0.0000000000
      3378        29  OSM       H14A          -14.8870084547       13.1151856557       23.6371460510  MEMB      29              0.0000000000
      3379        29  OSM       H14B          -14.0792855159       13.9871915450       22.3379741749  MEMB      29              0.0000000000
      3380        29  OSM       H14C          -14.3175797323       12.2694321108       22.1940543759  MEMB      29              0.0000000000
      3381        29  OSM       C13           -16.6662086109       14.6077258171       22.5953163277  MEMB      29              0.0000000000
      3382        29  OSM       H13A          -17.3801987894       14.3101097891       23.3528145834  MEMB      29              0.0000000000
      3383        29  OSM       H13B          -17.2172140232       15.1875995783       21.8676151726  MEMB      29              0.0000000000
      3384        29  OSM       H13C          -15.8801964547       15.2387333049       22.9977183429  MEMB      29              0.0000000000
      3385        29  OSM       C12           -16.9657429351       12.1754713972       22.0689742196  MEMB      29              0.0000000000
      3386        29  OSM       H12A          -16.8123953368       11.7050331456       23.0273285522  MEMB      29              0.0000000000
      3387        29  OSM       H12B          -16.7057218282       11.5098522904       21.2532033524  MEMB      29              0.0000000000
      3388        29  OSM       C11           -18.4877043021       12.3046820824       21.9176429152  MEMB      29              0.0000000000
      3389        29  OSM       H11A          -18.8845851921       12.8253296992       22.8157101476  MEMB      29              0.0000000000
      3390        29  OSM       H11B          -18.8804477382       11.2518247368       21.9281697420  MEMB      29              0.0000000000
      3391        29  OSM       P             -20.0829658996       12.5182297852       19.8897174559  MEMB      29              0.0000000000
      3392        29  OSM       O13           -19.7714322874       11.1911688224       19.3318299114  MEMB      29              0.0000000000
      3393        29  OSM       O14           -21.2586387820       12.6778764072       20.7750879336  MEMB      29              0.0000000000
      3394        29  OSM       O11           -20.1781569488       13.5738816915       18.7048843556  MEMB      29              0.0000000000
      3395        29  OSM       O12           -18.8132206497       13.0006411833       20.7124392704  MEMB      29              0.0000000000
      3396        29  OSM       C1S           -20.8551194259       13.1817060501       17.5029338696  MEMB      29              0.0000000000
      3397        29  OSM       H1S           -21.2640468835       14.0859363010       17.0036746040  MEMB      29              0.0000000000
      3398        29  OSM       H1T           -21.7257908236       12.5241498066       17.7198506393  MEMB      29              0.0000000000
      3399        29  OSM       NF            -19.5100611470       13.3501799932       15.5630877594  MEMB      29              0.0000000000
      3400        29  OSM       HNF           -19.9501046949       13.5455334923       14.6940454545  MEMB      29              0.0000000000
      3401        29  OSM       C2S           -19.9949659331       12.4222978208       16.4524165636  MEMB      29              0.0000000000
      3402        29  OSM       H2S           -19.1279240583       11.8870627992       16.9073547138  MEMB      29              0.0000000000
      3403        29  OSM       C3S           -20.8875846578       11.4494631075       15.7442075676  MEMB      29              0.0000000000
      3404        29  OSM       H3S           -21.9222243215       11.8261766796       15.6223532734  MEMB      29              0.0000000000
      3405        29  OSM       O3            -20.9658917418       10.3280927742       16.5638601066  MEMB      29              0.0000000000
      3406        29  OSM       HO3           -20.1676202970       10.3322970211       17.1162763143  MEMB      29              0.0000000000
      3407        29  OSM       C4S           -20.3773104155       11.1043471773       14.3613460184  MEMB      29              0.0000000000
      3408        29  OSM       H4S           -20.8594510929       11.6087712320       13.5174065320  MEMB      29              0.0000000000
      3409        29  OSM       C5S           -19.3549356827       10.3066732013       14.0922030718  MEMB      29              0.0000000000
      3410        29  OSM       H5S           -18.8899714405        9.7179141535       14.9019652884  MEMB      29              0.0000000000
      3411        29  OSM       C6S           -18.8936539578        9.9771891942       12.7340871104  MEMB      29              0.0000000000
      3412        29  OSM       H6S           -19.0927130428        8.9353172814       12.9450930021  MEMB      29              0.0000000000
      3413        29  OSM       H6T           -17.8024115630       10.0832609923       12.5613950806  MEMB      29              0.0000000000
      3414        29  OSM       C7S           -19.6794720354       10.4042398248       11.4691572613  MEMB      29              0.0000000000
      3415        29  OSM       H7S           -19.7217098606       11.5004879792       11.5429585071  MEMB      29              0.0000000000
      3416        29  OSM       H7T           -20.7288345935       10.0327787209       11.5306517629  MEMB      29              0.0000000000
      3417        29  OSM       C8S           -19.0416176053       10.0784621493       10.0823742327  MEMB      29              0.0000000000
      3418        29  OSM       H8S           -19.0113761283        9.0057771754        9.8447381845  MEMB      29              0.0000000000
      3419        29  OSM       H8T           -17.9734571096       10.3624693708       10.0830932689  MEMB      29              0.0000000000
      3420        29  OSM       C9S           -19.8098092875       10.7238639341        8.9136282457  MEMB      29              0.0000000000
      3421        29  OSM       H9S           -19.5515584491       11.8009437719        8.9369031926  MEMB      29              0.0000000000
      3422        29  OSM       H9T           -20.9038748908       10.6286042947        9.1163163446  MEMB      29              0.0000000000
      3423        29  OSM       C10S          -19.4873901220       10.1473618890        7.5103970630  MEMB      29              0.0000000000
      3424        29  OSM       H10S          -19.4801827336        9.0483922039        7.5331499637  MEMB      29              0.0000000000
      3425        29  OSM       H10T          -18.4542504707       10.3988272195        7.2186494979  MEMB      29              0.0000000000
      3426        29  OSM       C11S          -20.5064269031       10.5695388809        6.4293535210  MEMB      29              0.0000000000
      3427        29  OSM       H11S          -20.5535127232       11.6770838064        6.3975838541  MEMB      29              0.0000000000
      3428        29  OSM       H11T          -21.5154302855       10.2294209868        6.7487572910  MEMB      29              0.0000000000
      3429        29  OSM       C12S          -20.2314544091       10.0612247185        4.9973096342  MEMB      29              0.0000000000
      3430        29  OSM       H12S          -21.0659844317       10.4190552226        4.3462305834  MEMB      29              0.0000000000
      3431        29  OSM       H12T          -20.2076844511        8.9600466476        4.9103859803  MEMB      29              0.0000000000
      3432        29  OSM       C13S          -18.9106720960       10.5608253605        4.4227970682  MEMB      29              0.0000000000
      3433        29  OSM       H13S          -18.0716814500        9.8912541202        4.7168942213  MEMB      29              0.0000000000
      3434        29  OSM       H13T          -18.7143491077       11.5675109104        4.8543328915  MEMB      29              0.0000000000
      3435        29  OSM       C14S          -18.9656697141       10.6949651155        2.9007492759  MEMB      29              0.0000000000
      3436        29  OSM       H14S          -19.8617698067       11.3121667207        2.6628863656  MEMB      29              0.0000000000
      3437        29  OSM       H14T          -19.1122787111        9.7020039731        2.4196043289  MEMB      29              0.0000000000
      3438        29  OSM       C15S          -17.6896203182       11.3676476248        2.3975367970  MEMB      29              0.0000000000
      3439        29  OSM       H15S          -16.8131291658       10.7101943899        2.5853686132  MEMB      29              0.0000000000
      3440        29  OSM       H15T          -17.5110514231       12.3011525774        2.9832825185  MEMB      29              0.0000000000
      3441        29  OSM       C16S          -17.7077309230       11.7850120010        0.9381261696  MEMB      29              0.0000000000
      3442        29  OSM       H16S          -18.6597505161       12.2948298541        0.6603062330  MEMB      29              0.0000000000
      3443        29  OSM       H16T          -17.5416759854       10.9297941786        0.2466781791  MEMB      29              0.0000000000
      3444        29  OSM       C17S          -16.6279203324       12.8111937241        0.7372050962  MEMB      29              0.0000000000
      3445        29  OSM       H17S          -15.6146053804       12.3805898200        0.9437430790  MEMB      29              0.0000000000
      3446        29  OSM       H17T          -16.8091591844       13.6798684354        1.4114933593  MEMB      29              0.0000000000
      3447        29  OSM       C18S          -16.6977675281       13.3380614404       -0.6529014301  MEMB      29              0.0000000000
      3448        29  OSM       H18S          -17.5409043209       14.0080604966       -0.8785355662  MEMB      29              0.0000000000
      3449        29  OSM       H18T          -16.6308936047       12.5128769440       -1.3870906081  MEMB      29              0.0000000000
      3450        29  OSM       H18U          -15.8679674028       14.0164702774       -0.6459231560  MEMB      29              0.0000000000
      3451        29  OSM       C1F           -18.5354681441       14.0781352330       15.8960213553  MEMB      29              0.0000000000
      3452        29  OSM       OF            -17.6791379067       13.9262142691       16.7514266228  MEMB      29              0.0000000000
      3453        29  OSM       C2F           -18.4578575827       14.9236160726       14.8382875129  MEMB      29              0.0000000000
      3454        29  OSM       H2F           -18.2443124153       15.9614020117       15.1825894305  MEMB      29              0.0000000000
      3455        29  OSM       H2G           -19.3499252421       15.0604824754       14.1787918879  MEMB      29              0.0000000000
      3456        29  OSM       C3F           -17.3006608442       14.0449748693       14.3058869862  MEMB      29              0.0000000000
      3457        29  OSM       H3F           -16.3397791507       14.2442092671       14.8300016570  MEMB      29              0.0000000000
      3458        29  OSM       H3G           -17.7645083782       14.6131992932       13.4332086880  MEMB      29              0.0000000000
      3459        29  OSM       C4F           -16.7224225372       12.8446858390       13.5384506314  MEMB      29              0.0000000000
      3460        29  OSM       H4F           -17.5645184246       12.6159050555       12.8725770130  MEMB      29              0.0000000000
      3461        29  OSM       H4G           -16.5511485794       12.1589985810       14.3851312901  MEMB      29              0.0000000000
      3462        29  OSM       C5F           -15.3005096028       12.8402381625       12.7996002242  MEMB      29              0.0000000000
      3463        29  OSM       H5F           -14.3475971656       12.8347990731       13.3609812295  MEMB      29              0.0000000000
      3464        29  OSM       H5G           -14.7692952274       13.4682965990       12.0680455504  MEMB      29              0.0000000000
      3465        29  OSM       C6F           -15.5977883527       11.9219587354       11.6920660948  MEMB      29              0.0000000000
      3466        29  OSM       H6F           -16.5594896195       11.9794116035       11.1471512168  MEMB      29              0.0000000000
      3467        29  OSM       H6G           -15.6330114205       10.9749996588       12.2888531802  MEMB      29              0.0000000000
      3468        29  OSM       C7F           -14.5064338396       12.0457370188       10.6594389466  MEMB      29              0.0000000000
      3469        29  OSM       H7F           -14.9984127994       11.1529992609       10.2293268337  MEMB      29              0.0000000000
      3470        29  OSM       H7G           -13.5264199803       11.9978873700       11.1951896512  MEMB      29              0.0000000000
      3471        29  OSM       C8F           -14.2662403618       12.8710827631        9.4271465908  MEMB      29              0.0000000000
      3472        29  OSM       H8F           -13.2192603931       12.6660122997        9.0749854851  MEMB      29              0.0000000000
      3473        29  OSM       H8G           -14.2919675633       13.8920494421        9.8265903882  MEMB      29              0.0000000000
      3474        29  OSM       C9F           -15.2452258441       12.4577037380        8.3618391321  MEMB      29              0.0000000000
      3475        29  OSM       H9F           -15.2530066641       11.4105687107        8.0645537877  MEMB      29              0.0000000000
      3476        29  OSM       C10F          -16.1398205432       13.2125813712        7.7905156346  MEMB      29              0.0000000000
      3477        29  OSM       H10F          -16.7387259072       12.7633224019        7.0001758769  MEMB      29              0.0000000000
      3478        29  OSM       C11F          -16.3109870412       14.6452929424        8.1214707268  MEMB      29              0.0000000000
      3479        29  OSM       H11F          -15.6855069293       15.2377171049        7.4339582346  MEMB      29              0.0000000000
      3480        29  OSM       H11G          -15.8557201480       14.8238993117        9.0958512131  MEMB      29              0.0000000000
      3481        29  OSM       C12F          -17.7505221288       15.1769654667        8.0864948585  MEMB      29              0.0000000000
      3482        29  OSM       H12F          -17.6932711820       16.2774489753        8.2740901236  MEMB      29              0.0000000000
      3483        29  OSM       H12G          -18.4236812410       14.7424785665        8.8662538255  MEMB      29              0.0000000000
      3484        29  OSM       C13F          -18.3889111641       14.8363148131        6.7915490332  MEMB      29              0.0000000000
      3485        29  OSM       H13F          -18.6338747687       13.7472311141        6.8083528093  MEMB      29              0.0000000000
      3486        29  OSM       H13G          -17.6172627521       15.0260017136        6.0147871935  MEMB      29              0.0000000000
      3487        29  OSM       C14F          -19.6348645831       15.6550227032        6.5584882325  MEMB      29              0.0000000000
      3488        29  OSM       H14F          -19.3399817820       16.7157160495        6.3982372412  MEMB      29              0.0000000000
      3489        29  OSM       H14G          -20.2900315851       15.6128989097        7.4603489840  MEMB      29              0.0000000000
      3490        29  OSM       C15F          -20.3429721888       15.1431637296        5.3158617375  MEMB      29              0.0000000000
      3491        29  OSM       H15F          -21.1838549258       15.8349719642        5.1162642043  MEMB      29              0.0000000000
      3492        29  OSM       H15G          -20.7617458051       14.1284831712        5.5085614834  MEMB      29              0.0000000000
      3493        29  OSM       C16F          -19.4064297930       15.0554502951        4.1021787599  MEMB      29              0.0000000000
      3494        29  OSM       H16F          -18.5267410134       14.4167393679        4.3179664337  MEMB      29              0.0000000000
      3495        29  OSM       H16G          -19.0499226896       16.0801275047        3.8479204390  MEMB      29              0.0000000000
      3496        29  OSM       C17F          -20.0858369436       14.4381534487        2.9003789716  MEMB      29              0.0000000000
      3497        29  OSM       H17F          -20.5672123729       13.4726421600        3.1730434267  MEMB      29              0.0000000000
      3498        29  OSM       H17G          -19.3715654332       14.2297574843        2.0696978118  MEMB      29              0.0000000000
      3499        29  OSM       C18F          -21.1729996854       15.3466570522        2.4268190591  MEMB      29              0.0000000000
      3500        29  OSM       H18F          -21.6648031628       14.8174154042        1.6127904314  MEMB      29              0.0000000000
      3501        29  OSM       H18G          -20.7884353397       16.3504450066        2.1342683290  MEMB      29              0.0000000000
      3502        29  OSM       H18H          -21.9648781342       15.4717930547        3.1727741043  MEMB      29              0.0000000000
      3503        30  SOPE      N              19.0722057431       12.6157990160       22.3708103534  MEMB      30              0.0000000000
      3504        30  SOPE      HN1            18.5580408766       12.5215148424       21.4740558691  MEMB      30              0.0000000000
      3505        30  SOPE      HN2            18.5628431494       13.2011278164       23.0590254263  MEMB      30              0.0000000000
      3506        30  SOPE      HN3            19.9962034175       13.0479288832       22.1881216325  MEMB      30              0.0000000000
      3507        30  SOPE      C12            19.3159108750       11.2741242563       22.9932409726  MEMB      30              0.0000000000
      3508        30  SOPE      H12A           18.3419434509       10.8151707808       23.2583726232  MEMB      30              0.0000000000
      3509        30  SOPE      H12B           19.9145652473       11.4668189262       23.9068775154  MEMB      30              0.0000000000
      3510        30  SOPE      C11            20.1529786727       10.3446680519       22.1109580821  MEMB      30              0.0000000000
      3511        30  SOPE      H11A           20.7007924144        9.7048553108       22.8434315077  MEMB      30              0.0000000000
      3512        30  SOPE      H11B           20.9075797537       10.9221239955       21.5264845824  MEMB      30              0.0000000000
      3513        30  SOPE      P              19.9658926138        8.7119083064       20.0775445791  MEMB      30              0.0000000000
      3514        30  SOPE      O13            18.8431372046        8.1940606263       19.2686070606  MEMB      30              0.0000000000
      3515        30  SOPE      O14            20.9376954479        7.7581056763       20.6657242072  MEMB      30              0.0000000000
      3516        30  SOPE      O12            19.3213455921        9.5351164022       21.2819814379  MEMB      30              0.0000000000
      3517        30  SOPE      O11            20.7267404888        9.8521807159       19.2951414626  MEMB      30              0.0000000000
      3518        30  SOPE      C1             20.0449360511       10.8624382672       18.5590179114  MEMB      30              0.0000000000
      3519        30  SOPE      HA             20.6846100196       11.7752356848       18.5265999381  MEMB      30              0.0000000000
      3520        30  SOPE      HB             19.0581198098       11.1271229338       18.9996343030  MEMB      30              0.0000000000
      3521        30  SOPE      C2             19.8431903055       10.5099020528       17.0781517023  MEMB      30              0.0000000000
      3522        30  SOPE      HS             19.1937757771        9.5981237241       17.0059911558  MEMB      30              0.0000000000
      3523        30  SOPE      O21            21.1281704617       10.3219357445       16.4728317694  MEMB      30              0.0000000000
      3524        30  SOPE      C21            21.3101976581        9.4326424148       15.5391433684  MEMB      30              0.0000000000
      3525        30  SOPE      O22            20.5466018583        8.5741343660       15.1401541205  MEMB      30              0.0000000000
      3526        30  SOPE      C22            22.6740278132        9.6371686500       14.9702795508  MEMB      30              0.0000000000
      3527        30  SOPE      H2R            23.0413752994        8.6643707994       14.5754933901  MEMB      30              0.0000000000
      3528        30  SOPE      H2S            23.3700386743        9.9548484355       15.7791256054  MEMB      30              0.0000000000
      3529        30  SOPE      C3             19.1526099566       11.7087639962       16.3662553632  MEMB      30              0.0000000000
      3530        30  SOPE      HX             19.6565665632       12.6366197577       16.7185003182  MEMB      30              0.0000000000
      3531        30  SOPE      HY             18.0842332529       11.8220190299       16.7217345225  MEMB      30              0.0000000000
      3532        30  SOPE      O31            19.3753024083       11.5862271192       14.9130626898  MEMB      30              0.0000000000
      3533        30  SOPE      C31            18.7418763142       10.4288745270       14.5097741885  MEMB      30              0.0000000000
      3534        30  SOPE      O32            17.8968644520        9.9256418862       15.2137292933  MEMB      30              0.0000000000
      3535        30  SOPE      C32            18.6834099448       10.0501004604       12.9560533082  MEMB      30              0.0000000000
      3536        30  SOPE      H2X            19.6450741109        9.8835759709       12.4709124608  MEMB      30              0.0000000000
      3537        30  SOPE      H2Y            18.9937408161       11.1511142372       12.6253998591  MEMB      30              0.0000000000
      3538        30  SOPE      C23            22.6313852051       10.5909064638       13.7827907131  MEMB      30              0.0000000000
      3539        30  SOPE      H3R            22.4855592287       11.6520487677       14.1069045979  MEMB      30              0.0000000000
      3540        30  SOPE      H3S            21.9403767792       10.3155497370       12.9731632073  MEMB      30              0.0000000000
      3541        30  SOPE      C24            23.9572292537       10.4424400958       13.1593199840  MEMB      30              0.0000000000
      3542        30  SOPE      H4R            24.4419956960       10.8428632118       14.0532870243  MEMB      30              0.0000000000
      3543        30  SOPE      H4S            24.3325186765        9.3994638196       13.0103603608  MEMB      30              0.0000000000
      3544        30  SOPE      C25            24.1718418298       11.2374634979       11.8956823036  MEMB      30              0.0000000000
      3545        30  SOPE      H5R            24.2024929712       12.3416310896       12.0494833237  MEMB      30              0.0000000000
      3546        30  SOPE      H5S            25.1663988481       10.8400594426       11.7156873993  MEMB      30              0.0000000000
      3547        30  SOPE      C26            23.2407578708       10.8669235548       10.7479456639  MEMB      30              0.0000000000
      3548        30  SOPE      H6R            22.7449423668        9.9089080416       11.0011030511  MEMB      30              0.0000000000
      3549        30  SOPE      H6S            22.5212688202       11.7136052608       10.7242244611  MEMB      30              0.0000000000
      3550        30  SOPE      C27            23.8352650617       10.7123555438        9.3426782568  MEMB      30              0.0000000000
      3551        30  SOPE      H7R            23.8570614260       11.7385844834        8.9058309909  MEMB      30              0.0000000000
      3552        30  SOPE      H7S            24.8437307007       10.2671439140        9.3629576544  MEMB      30              0.0000000000
      3553        30  SOPE      C28            23.0218580980        9.8685683373        8.3799644609  MEMB      30              0.0000000000
      3554        30  SOPE      H8R            21.9693041920       10.1093278251        8.6437858370  MEMB      30              0.0000000000
      3555        30  SOPE      H8S            23.2095225493       10.2390344144        7.3434653399  MEMB      30              0.0000000000
      3556        30  SOPE      C29            23.3037182828        8.3891670564        8.4238028611  MEMB      30              0.0000000000
      3557        30  SOPE      H91            24.1820444815        8.0017748281        8.9503256422  MEMB      30              0.0000000000
      3558        30  SOPE      C210           22.4419304773        7.5388364727        7.9023644395  MEMB      30              0.0000000000
      3559        30  SOPE      H101           22.5559661708        6.4445805665        7.9820845883  MEMB      30              0.0000000000
      3560        30  SOPE      C211           21.1977902639        8.0326287849        7.2825891341  MEMB      30              0.0000000000
      3561        30  SOPE      H11R           20.7636898905        8.9983129363        7.6183780520  MEMB      30              0.0000000000
      3562        30  SOPE      H11S           20.5363481383        7.4707486373        7.8941356188  MEMB      30              0.0000000000
      3563        30  SOPE      C212           21.2333149919        7.9202174152        5.7473847139  MEMB      30              0.0000000000
      3564        30  SOPE      H12R           21.4546167706        6.9586847538        5.2821744930  MEMB      30              0.0000000000
      3565        30  SOPE      H12S           21.9589029628        8.6723809282        5.3622991223  MEMB      30              0.0000000000
      3566        30  SOPE      C213           19.8861875485        8.1685388136        5.1376939750  MEMB      30              0.0000000000
      3567        30  SOPE      H13R           19.6490622388        9.0755434293        5.7436181176  MEMB      30              0.0000000000
      3568        30  SOPE      H13S           19.1211095956        7.4376028982        5.4192568925  MEMB      30              0.0000000000
      3569        30  SOPE      C214           19.8166976885        8.2446478792        3.5724627431  MEMB      30              0.0000000000
      3570        30  SOPE      H14R           20.4402503485        7.4323054271        3.1360153615  MEMB      30              0.0000000000
      3571        30  SOPE      H14S           20.5056219893        9.0954893626        3.2777879046  MEMB      30              0.0000000000
      3572        30  SOPE      C215           18.2408025664        8.3523596213        2.9741403807  MEMB      30              0.0000000000
      3573        30  SOPE      H15R           17.7398580551        7.4283841842        3.0771317714  MEMB      30              0.0000000000
      3574        30  SOPE      H15S           18.6217186381        8.1672003166        1.9055296131  MEMB      30              0.0000000000
      3575        30  SOPE      C216           16.9439868326        9.7321411864        3.2014722718  MEMB      30              0.0000000000
      3576        30  SOPE      H16R           16.8824001264        9.5453336062        4.2124391793  MEMB      30              0.0000000000
      3577        30  SOPE      H16S           16.0307880722        9.3758300211        3.2578516472  MEMB      30              0.0000000000
      3578        30  SOPE      C217           17.0609485910       11.6735591778        2.6532994323  MEMB      30              0.0000000000
      3579        30  SOPE      H17R           17.4415484064       11.8956606464        1.7573839435  MEMB      30              0.0000000000
      3580        30  SOPE      H17S           18.0367895190       12.2930840774        2.9115223849  MEMB      30              0.0000000000
      3581        30  SOPE      C218           16.3043151228       12.8738102570        2.4502131587  MEMB      30              0.0000000000
      3582        30  SOPE      H18R           16.2607902645       13.2371801459        3.4710975300  MEMB      30              0.0000000000
      3583        30  SOPE      H18S           15.4945474885       12.3038640810        1.9713669998  MEMB      30              0.0000000000
      3584        30  SOPE      H18T           17.0222284897       13.5954448460        1.8664327533  MEMB      30              0.0000000000
      3585        30  SOPE      C33            16.7844049165        9.4428224463       12.4483615338  MEMB      30              0.0000000000
      3586        30  SOPE      H3X            16.7058267702        8.8825176583       13.2889659501  MEMB      30              0.0000000000
      3587        30  SOPE      H3Y            17.5990497402        9.1322771875       11.7527101208  MEMB      30              0.0000000000
      3588        30  SOPE      C34            15.1595176958       10.9496230925       11.8738536226  MEMB      30              0.0000000000
      3589        30  SOPE      H4X            14.6855184457       11.1823102986       12.7697710436  MEMB      30              0.0000000000
      3590        30  SOPE      H4Y            14.5103602604       10.3331958952       11.4150796986  MEMB      30              0.0000000000
      3591        30  SOPE      C35            15.6560532849       12.8629001859       11.0724267324  MEMB      30              0.0000000000
      3592        30  SOPE      H5X            16.5805320823       13.4346338365       11.5891324593  MEMB      30              0.0000000000
      3593        30  SOPE      H5Y            15.0511139733       13.7685432396       11.0138657489  MEMB      30              0.0000000000
      3594        30  SOPE      C36            16.7287869715       13.0715538758        9.7587637384  MEMB      30              0.0000000000
      3595        30  SOPE      H6X            16.1848150009       12.4018734539        9.2567679861  MEMB      30              0.0000000000
      3596        30  SOPE      H6Y            17.6938199196       12.4698578838        9.4867424159  MEMB      30              0.0000000000
      3597        30  SOPE      C37            16.5528642900       13.6894505896        8.6115554325  MEMB      30              0.0000000000
      3598        30  SOPE      H7X            15.4489450885       13.9421653327        8.6782968656  MEMB      30              0.0000000000
      3599        30  SOPE      H7Y            17.1430513276       13.1249003844        7.8404448040  MEMB      30              0.0000000000
      3600        30  SOPE      C38            17.5553497437       14.4435452609        9.0917999508  MEMB      30              0.0000000000
      3601        30  SOPE      H8X            17.2060350949       14.8993006834       10.0772083480  MEMB      30              0.0000000000
      3602        30  SOPE      H8Y            17.0611061734       15.1594778363        8.4032466492  MEMB      30              0.0000000000
      3603        30  SOPE      C39            19.1568279965       14.0045925785        9.2603973725  MEMB      30              0.0000000000
      3604        30  SOPE      H9X            19.3845626284       13.1766017620        9.9619033837  MEMB      30              0.0000000000
      3605        30  SOPE      H9Y            19.7494305112       14.6347264208        9.8915115974  MEMB      30              0.0000000000
      3606        30  SOPE      C310           20.1646936725       13.9521706696        8.1411947667  MEMB      30              0.0000000000
      3607        30  SOPE      H10X           21.2107916415       13.9966297463        8.4902558211  MEMB      30              0.0000000000
      3608        30  SOPE      H10Y           20.3962034521       14.8846067687        7.7204334375  MEMB      30              0.0000000000
      3609        30  SOPE      C311           19.6449339594       13.1348411891        6.9911724583  MEMB      30              0.0000000000
      3610        30  SOPE      H11X           18.6112159346       13.4325105783        6.7662234126  MEMB      30              0.0000000000
      3611        30  SOPE      H11Y           19.5361612769       12.1289518050        7.3927053833  MEMB      30              0.0000000000
      3612        30  SOPE      C312           20.4616708789       13.2497740324        5.7113746141  MEMB      30              0.0000000000
      3613        30  SOPE      H12X           20.1945809577       13.9797196971        4.9159875225  MEMB      30              0.0000000000
      3614        30  SOPE      H12Y           20.2810793410       12.3430814295        5.1804604873  MEMB      30              0.0000000000
      3615        30  SOPE      C313           21.9132711547       13.3504771384        6.0437071796  MEMB      30              0.0000000000
      3616        30  SOPE      H13X           22.0861336155       12.8608330078        7.0244322343  MEMB      30              0.0000000000
      3617        30  SOPE      H13Y           22.2225865444       14.4190472557        6.1480377635  MEMB      30              0.0000000000
      3618        30  SOPE      C314           22.6887253209       12.5084447367        5.0315241030  MEMB      30              0.0000000000
      3619        30  SOPE      H14X           22.3829063028       11.4601658695        5.1227334735  MEMB      30              0.0000000000
      3620        30  SOPE      H14Y           23.7496099638       12.6250342974        5.3493493145  MEMB      30              0.0000000000
      3621        30  SOPE      C315           22.3747963113       12.6202236775        3.5166378803  MEMB      30              0.0000000000
      3622        30  SOPE      H15X           21.3483024466       12.7334512698        3.1144427050  MEMB      30              0.0000000000
      3623        30  SOPE      H15Y           23.0862184969       12.0179898178        2.9095928822  MEMB      30              0.0000000000
      3624        30  SOPE      C316           22.7976502394       13.8659224760        3.0763379726  MEMB      30              0.0000000000
      3625        30  SOPE      H16X           22.3787982035       14.3521960496        3.9801483231  MEMB      30              0.0000000000
      3626        30  SOPE      H16Y           22.2587266567       14.4861392168        2.3433718682  MEMB      30              0.0000000000
      3627        30  SOPE      C317           24.2965134825       13.7181088106        3.0997011414  MEMB      30              0.0000000000
      3628        30  SOPE      H17X           24.8666743716       13.5951904056        4.0695731385  MEMB      30              0.0000000000
      3629        30  SOPE      H17Y           24.5424709048       14.6509884378        2.5630813197  MEMB      30              0.0000000000
      3630        30  SOPE      C318           25.1447026599       13.3620827754        2.1626091198  MEMB      30              0.0000000000
      3631        30  SOPE      H18X           25.3260267599       12.3441114693        2.5262705441  MEMB      30              0.0000000000
      3632        30  SOPE      H18Y           26.0330322278       14.0051403967        2.4043322362  MEMB      30              0.0000000000
      3633        30  SOPE      H18Z           24.8077025354       13.7091965140        1.1725714938  MEMB      30              0.0000000000
      3634        31  OSM       N               4.7228108999      -24.6284702652       22.2355365067  MEMB      31              0.0000000000
      3635        31  OSM       C15             3.9111192076      -25.3768413830       21.2148553797  MEMB      31              0.0000000000
      3636        31  OSM       H15A            3.2564160608      -24.6584103945       20.7151048569  MEMB      31              0.0000000000
      3637        31  OSM       H15B            3.2940572425      -26.1724269622       21.6134923571  MEMB      31              0.0000000000
      3638        31  OSM       H15C            4.5372367698      -25.8091254017       20.4443529753  MEMB      31              0.0000000000
      3639        31  OSM       C14             3.8558663103      -24.0054277282       23.2917243082  MEMB      31              0.0000000000
      3640        31  OSM       H14A            3.2343367749      -24.7289860498       23.7923618163  MEMB      31              0.0000000000
      3641        31  OSM       H14B            3.2397643206      -23.2232320430       22.8325139130  MEMB      31              0.0000000000
      3642        31  OSM       H14C            4.4561101043      -23.4927087113       24.0373073128  MEMB      31              0.0000000000
      3643        31  OSM       C13             5.7145163562      -25.5323050289       22.8684160521  MEMB      31              0.0000000000
      3644        31  OSM       H13A            6.2843162850      -26.0453295527       22.0978659985  MEMB      31              0.0000000000
      3645        31  OSM       H13B            5.2161500643      -26.2993963705       23.4514680335  MEMB      31              0.0000000000
      3646        31  OSM       H13C            6.3796922563      -24.9487953220       23.4959587704  MEMB      31              0.0000000000
      3647        31  OSM       C12             5.4481340170      -23.4882407135       21.5365885915  MEMB      31              0.0000000000
      3648        31  OSM       H12A            6.3534792175      -23.8682015011       21.0834702229  MEMB      31              0.0000000000
      3649        31  OSM       H12B            5.7574123562      -22.7628980124       22.2858937809  MEMB      31              0.0000000000
      3650        31  OSM       C11             4.6474555203      -22.7177950818       20.4566885284  MEMB      31              0.0000000000
      3651        31  OSM       H11A            4.5932687000      -23.3542359049       19.5415727431  MEMB      31              0.0000000000
      3652        31  OSM       H11B            5.2067663329      -21.7929701707       20.1824433508  MEMB      31              0.0000000000
      3653        31  OSM       P               2.4204527224      -21.5857479063       19.8750899956  MEMB      31              0.0000000000
      3654        31  OSM       O13             1.0080170656      -21.6463513115       20.3016741451  MEMB      31              0.0000000000
      3655        31  OSM       O14             3.0379247167      -20.2756777849       19.5814852317  MEMB      31              0.0000000000
      3656        31  OSM       O11             2.5883148882      -22.5566557171       18.6110290747  MEMB      31              0.0000000000
      3657        31  OSM       O12             3.3368005938      -22.3677092423       20.9164464099  MEMB      31              0.0000000000
      3658        31  OSM       C1S             1.7277359014      -22.3353270613       17.4867589781  MEMB      31              0.0000000000
      3659        31  OSM       H1S             1.7380194204      -21.2467449448       17.2251149522  MEMB      31              0.0000000000
      3660        31  OSM       H1T             0.6823890909      -22.6051989256       17.7056045433  MEMB      31              0.0000000000
      3661        31  OSM       NF              1.6693101034      -22.6190235221       14.9619576411  MEMB      31              0.0000000000
      3662        31  OSM       HNF             0.9517105944      -22.9947477696       14.3999509963  MEMB      31              0.0000000000
      3663        31  OSM       C2S             2.1317536348      -23.1992373214       16.2128647863  MEMB      31              0.0000000000
      3664        31  OSM       H2S             3.2609323952      -23.3092077806       16.2554732605  MEMB      31              0.0000000000
      3665        31  OSM       C3S             1.5326406021      -24.5582407365       16.2213948592  MEMB      31              0.0000000000
      3666        31  OSM       H3S             0.4331465994      -24.3743322778       16.1216318225  MEMB      31              0.0000000000
      3667        31  OSM       O3              1.9210039825      -25.2565325016       17.3870579187  MEMB      31              0.0000000000
      3668        31  OSM       HO3             2.6786035243      -24.7567192815       17.7127252218  MEMB      31              0.0000000000
      3669        31  OSM       C4S             2.0624090199      -25.3585258381       15.0456023116  MEMB      31              0.0000000000
      3670        31  OSM       H4S             3.0894276782      -25.7175984450       15.1765000989  MEMB      31              0.0000000000
      3671        31  OSM       C5S             1.4343358808      -25.6012164105       13.8781002324  MEMB      31              0.0000000000
      3672        31  OSM       H5S             0.4475131341      -25.1305954475       13.7272273372  MEMB      31              0.0000000000
      3673        31  OSM       C6S             1.9773533057      -26.4129184458       12.7092997414  MEMB      31              0.0000000000
      3674        31  OSM       H6S             1.2252348245      -27.2017658523       12.4706588260  MEMB      31              0.0000000000
      3675        31  OSM       H6T             2.9096133801      -26.9671558421       12.9638078677  MEMB      31              0.0000000000
      3676        31  OSM       C7S             2.3046889376      -25.6459207814       11.4066202539  MEMB      31              0.0000000000
      3677        31  OSM       H7S             2.5587233262      -26.3353291479       10.5684148895  MEMB      31              0.0000000000
      3678        31  OSM       H7T             3.0782133391      -24.8611879458       11.5231024194  MEMB      31              0.0000000000
      3679        31  OSM       C8S             1.1464935732      -24.8847701293       10.8741132909  MEMB      31              0.0000000000
      3680        31  OSM       H8S             0.6578733932      -24.4402018655       11.7381469045  MEMB      31              0.0000000000
      3681        31  OSM       H8T             0.4017533216      -25.6698641458       10.5969434609  MEMB      31              0.0000000000
      3682        31  OSM       C9S             1.5691418078      -23.8067379132        9.7824929337  MEMB      31              0.0000000000
      3683        31  OSM       H9S             2.4039455897      -23.2595674203       10.0932683700  MEMB      31              0.0000000000
      3684        31  OSM       H9T             0.9968523042      -22.8439849966        9.7037643181  MEMB      31              0.0000000000
      3685        31  OSM       C10S            1.3376701711      -24.3264003061        8.3465410090  MEMB      31              0.0000000000
      3686        31  OSM       H10S            0.6462672197      -25.1663263523        8.5317451312  MEMB      31              0.0000000000
      3687        31  OSM       H10T            2.2176128346      -24.8597989388        8.0014504816  MEMB      31              0.0000000000
      3688        31  OSM       C11S            0.7681741608      -23.2971193377        7.3063926332  MEMB      31              0.0000000000
      3689        31  OSM       H11S            1.3863115166      -22.4473952964        7.2651970938  MEMB      31              0.0000000000
      3690        31  OSM       H11T           -0.1193314412      -22.7371546407        7.6102791661  MEMB      31              0.0000000000
      3691        31  OSM       C12S            0.6127168518      -23.7231380495        5.8326000565  MEMB      31              0.0000000000
      3692        31  OSM       H12S            0.2761765025      -22.8494095556        5.2188309819  MEMB      31              0.0000000000
      3693        31  OSM       H12T           -0.1412220921      -24.5029066346        5.7472049410  MEMB      31              0.0000000000
      3694        31  OSM       C13S            1.8735119162      -24.3143024075        5.2264378972  MEMB      31              0.0000000000
      3695        31  OSM       H13S            2.2322530263      -25.1921610418        5.7857459033  MEMB      31              0.0000000000
      3696        31  OSM       H13T            2.5835653059      -23.5530046117        5.4375685027  MEMB      31              0.0000000000
      3697        31  OSM       C14S            1.7786379878      -24.6160880706        3.7249639850  MEMB      31              0.0000000000
      3698        31  OSM       H14S            0.9927156727      -23.9611007334        3.2884651159  MEMB      31              0.0000000000
      3699        31  OSM       H14T            1.4179910082      -25.6668188739        3.6758410136  MEMB      31              0.0000000000
      3700        31  OSM       C15S            3.0934463561      -24.4992237461        2.9132434419  MEMB      31              0.0000000000
      3701        31  OSM       H15S            3.7425517246      -25.3617415191        3.1795381013  MEMB      31              0.0000000000
      3702        31  OSM       H15T            3.6444773636      -23.5716433675        3.1881567946  MEMB      31              0.0000000000
      3703        31  OSM       C16S            2.8952396939      -24.5203979642        1.3758593637  MEMB      31              0.0000000000
      3704        31  OSM       H16S            2.6610011420      -23.4767951776        1.0597807286  MEMB      31              0.0000000000
      3705        31  OSM       H16T            2.0370370228      -25.1841108495        1.1395427523  MEMB      31              0.0000000000
      3706        31  OSM       C17S            4.1197297270      -24.9929843106        0.5655212676  MEMB      31              0.0000000000
      3707        31  OSM       H17S            3.9391577953      -24.8592702750       -0.5289433481  MEMB      31              0.0000000000
      3708        31  OSM       H17T            4.2300153607      -26.0945539582        0.6707499907  MEMB      31              0.0000000000
      3709        31  OSM       C18S            5.3766011399      -24.2466589313        1.0430883421  MEMB      31              0.0000000000
      3710        31  OSM       H18S            5.2108196515      -23.1549658569        0.9684442011  MEMB      31              0.0000000000
      3711        31  OSM       H18T            6.3072371256      -24.4347681340        0.4978874750  MEMB      31              0.0000000000
      3712        31  OSM       H18U            5.6403233436      -24.5370928470        2.0701750172  MEMB      31              0.0000000000
      3713        31  OSM       C1F             2.2652587945      -21.5490392265       14.6852588896  MEMB      31              0.0000000000
      3714        31  OSM       OF              3.0343603426      -21.2840596482       15.5016169458  MEMB      31              0.0000000000
      3715        31  OSM       C2F             1.9824968698      -20.7171955224       13.5223861718  MEMB      31              0.0000000000
      3716        31  OSM       H2F             1.7127642835      -19.6648246375       13.6548374028  MEMB      31              0.0000000000
      3717        31  OSM       H2G             1.3390868042      -21.4699595090       13.1166336500  MEMB      31              0.0000000000
      3718        31  OSM       C3F             2.4113875981      -21.0089738383       12.1154079188  MEMB      31              0.0000000000
      3719        31  OSM       H3F             2.6711908764      -22.0847810554       12.0023902487  MEMB      31              0.0000000000
      3720        31  OSM       H3G             3.2670890814      -20.9634045392       12.5462004267  MEMB      31              0.0000000000
      3721        31  OSM       C4F             2.1283721942      -19.9397721813       10.9634599822  MEMB      31              0.0000000000
      3722        31  OSM       H4F             1.6399641570      -19.0870638698       11.4663213273  MEMB      31              0.0000000000
      3723        31  OSM       H4G             1.4394879257      -20.4963306710       10.3055656014  MEMB      31              0.0000000000
      3724        31  OSM       C5F             3.0411959363      -19.1735001677        9.8870344729  MEMB      31              0.0000000000
      3725        31  OSM       H5F             3.5370896403      -18.2577470034       10.2060616172  MEMB      31              0.0000000000
      3726        31  OSM       H5G             2.3972812132      -19.0480564744        8.9577833883  MEMB      31              0.0000000000
      3727        31  OSM       C6F             3.9059997159      -19.8818823223        8.9764472070  MEMB      31              0.0000000000
      3728        31  OSM       H6F             3.1500669788      -20.6574739103        9.0364043639  MEMB      31              0.0000000000
      3729        31  OSM       H6G             4.8629685085      -20.2534081676        9.2247047292  MEMB      31              0.0000000000
      3730        31  OSM       C7F             4.9338807751      -19.5328804947        7.8697370033  MEMB      31              0.0000000000
      3731        31  OSM       H7F             5.0988975359      -18.5188884277        8.1684640502  MEMB      31              0.0000000000
      3732        31  OSM       H7G             4.0846111105      -19.2719973012        7.3705425817  MEMB      31              0.0000000000
      3733        31  OSM       C8F             6.3005605708      -20.6531915171        7.4159527794  MEMB      31              0.0000000000
      3734        31  OSM       H8F             6.8432984640      -20.8533642374        8.3436062870  MEMB      31              0.0000000000
      3735        31  OSM       H8G             6.7769522860      -19.8894009793        6.7675395161  MEMB      31              0.0000000000
      3736        31  OSM       C9F             6.5298160372      -22.2056058469        6.7827344143  MEMB      31              0.0000000000
      3737        31  OSM       H9F             6.0328364256      -23.0396808612        7.3260191118  MEMB      31              0.0000000000
      3738        31  OSM       C10F            6.4591601664      -22.6710041041        5.4611158182  MEMB      31              0.0000000000
      3739        31  OSM       H10F            5.6106945746      -23.3322974077        5.0916822705  MEMB      31              0.0000000000
      3740        31  OSM       C11F            6.1922936008      -21.7967444991        4.3298761140  MEMB      31              0.0000000000
      3741        31  OSM       H11F            6.4467895564      -22.4580014342        3.4619702543  MEMB      31              0.0000000000
      3742        31  OSM       H11G            7.0230009694      -21.1781547453        4.7231738570  MEMB      31              0.0000000000
      3743        31  OSM       C12F            5.2157304908      -20.6188869369        3.7744875886  MEMB      31              0.0000000000
      3744        31  OSM       H12F            5.3560631702      -19.7568801570        4.4580697430  MEMB      31              0.0000000000
      3745        31  OSM       H12G            4.1882628032      -20.9935532625        3.2765876074  MEMB      31              0.0000000000
      3746        31  OSM       C13F            5.4150968421      -19.4156710191        2.8992243210  MEMB      31              0.0000000000
      3747        31  OSM       H13F            5.6511120133      -20.5080623705        2.7866054513  MEMB      31              0.0000000000
      3748        31  OSM       H13G            6.2633730903      -18.6748976181        2.8003243765  MEMB      31              0.0000000000
      3749        31  OSM       C14F            4.6602046060      -18.8131387487        1.8246894768  MEMB      31              0.0000000000
      3750        31  OSM       H14F            5.4846027662      -18.3231005993        1.2574695243  MEMB      31              0.0000000000
      3751        31  OSM       H14G            4.5510638631      -18.0886094037        2.5800144349  MEMB      31              0.0000000000
      3752        31  OSM       C15F            3.4349600081      -19.5712734082        1.3294497046  MEMB      31              0.0000000000
      3753        31  OSM       H15F            2.6586948962      -19.5583448769        2.0342175663  MEMB      31              0.0000000000
      3754        31  OSM       H15G            3.5671548324      -20.6250715336        1.1062335073  MEMB      31              0.0000000000
      3755        31  OSM       C16F            2.5657352041      -19.1433692720        0.2477275407  MEMB      31              0.0000000000
      3756        31  OSM       H16F            2.2150493287      -18.1028049450        0.4818443913  MEMB      31              0.0000000000
      3757        31  OSM       H16G            1.5997538417      -19.6629532140        0.1115824924  MEMB      31              0.0000000000
      3758        31  OSM       C17F            3.3756007197      -19.5809226358       -0.9450371744  MEMB      31              0.0000000000
      3759        31  OSM       H17F            4.2828347944      -19.1439939760       -0.6671396124  MEMB      31              0.0000000000
      3760        31  OSM       H17G            2.8249203842      -19.2262900841       -1.8228610145  MEMB      31              0.0000000000
      3761        31  OSM       C18F            4.7426666401      -20.2514984417       -1.3722934112  MEMB      31              0.0000000000
      3762        31  OSM       H18F            4.9742235566      -20.0465551053       -2.4668619230  MEMB      31              0.0000000000
      3763        31  OSM       H18G            4.2601313708      -21.2115557428       -1.1209203794  MEMB      31              0.0000000000
      3764        31  OSM       H18H            5.5212918921      -20.8875626984       -1.1156804067  MEMB      31              0.0000000000
      3765        32  OSM       N             -14.1148988433       19.7996830298       23.0933289307  MEMB      32              0.0000000000
      3766        32  OSM       C15           -15.0133082476       20.9906686032       23.1881510592  MEMB      32              0.0000000000
      3767        32  OSM       H15A          -14.6702391534       21.7081854709       23.9167236422  MEMB      32              0.0000000000
      3768        32  OSM       H15B          -16.0354962051       20.7129138800       23.4043338084  MEMB      32              0.0000000000
      3769        32  OSM       H15C          -15.0458385244       21.5152989530       22.2283500934  MEMB      32              0.0000000000
      3770        32  OSM       C14           -12.7443572460       20.1804071138       22.6281049351  MEMB      32              0.0000000000
      3771        32  OSM       H14A          -12.7898982912       20.6737424467       21.6608357727  MEMB      32              0.0000000000
      3772        32  OSM       H14B          -12.1349153691       19.2852203939       22.5032831197  MEMB      32              0.0000000000
      3773        32  OSM       H14C          -12.1801822886       20.8605247122       23.2625202842  MEMB      32              0.0000000000
      3774        32  OSM       C13           -13.9889677994       19.2915777355       24.4733915224  MEMB      32              0.0000000000
      3775        32  OSM       H13A          -14.9818097054       19.2142959529       24.8907807010  MEMB      32              0.0000000000
      3776        32  OSM       H13B          -13.4112879779       20.0087038459       25.0450541505  MEMB      32              0.0000000000
      3777        32  OSM       H13C          -13.4525064405       18.3580026092       24.4892028884  MEMB      32              0.0000000000
      3778        32  OSM       C12           -14.7573401258       18.7640451078       22.1559534338  MEMB      32              0.0000000000
      3779        32  OSM       H12A          -15.6119941161       18.3527032920       22.6649542511  MEMB      32              0.0000000000
      3780        32  OSM       H12B          -14.0658344176       17.9549427049       21.9228063672  MEMB      32              0.0000000000
      3781        32  OSM       C11           -15.3193246594       19.2063644303       20.7792717905  MEMB      32              0.0000000000
      3782        32  OSM       H11A          -15.9862510194       20.0889030088       20.9152007625  MEMB      32              0.0000000000
      3783        32  OSM       H11B          -15.9480098771       18.3657606132       20.3852678569  MEMB      32              0.0000000000
      3784        32  OSM       P             -13.5600850538       18.5068325379       18.9416214819  MEMB      32              0.0000000000
      3785        32  OSM       O13           -12.7034504762       19.1859641714       17.9513904906  MEMB      32              0.0000000000
      3786        32  OSM       O14           -12.9798897323       17.5088106782       19.8583979813  MEMB      32              0.0000000000
      3787        32  OSM       O11           -14.7802665790       17.8204023998       18.1770626474  MEMB      32              0.0000000000
      3788        32  OSM       O12           -14.2749867239       19.5579217143       19.8838877292  MEMB      32              0.0000000000
      3789        32  OSM       C1S           -15.5690432613       18.5706416550       17.2377775435  MEMB      32              0.0000000000
      3790        32  OSM       H1S           -15.3599767974       19.6663577315       17.2528946759  MEMB      32              0.0000000000
      3791        32  OSM       H1T           -16.6503538926       18.4066881842       17.4467335919  MEMB      32              0.0000000000
      3792        32  OSM       NF            -16.0858959384       18.8050863567       14.7841456305  MEMB      32              0.0000000000
      3793        32  OSM       HNF           -16.7830655109       18.3081200983       14.2744415048  MEMB      32              0.0000000000
      3794        32  OSM       C2S           -15.2938142698       18.1156613458       15.7887656191  MEMB      32              0.0000000000
      3795        32  OSM       H2S           -14.2042290964       18.1969615010       15.5775363528  MEMB      32              0.0000000000
      3796        32  OSM       C3S           -15.5446435690       16.6789259361       15.6215967776  MEMB      32              0.0000000000
      3797        32  OSM       H3S           -16.6120028990       16.4890237775       15.9073554678  MEMB      32              0.0000000000
      3798        32  OSM       O3            -14.9780552014       15.7341044735       16.5082153638  MEMB      32              0.0000000000
      3799        32  OSM       HO3           -14.5670992993       16.2815241658       17.1755273026  MEMB      32              0.0000000000
      3800        32  OSM       C4S           -15.0406302160       16.3067464531       14.2132555093  MEMB      32              0.0000000000
      3801        32  OSM       H4S           -14.0375049130       16.0620367342       13.9204428549  MEMB      32              0.0000000000
      3802        32  OSM       C5S           -15.9802031064       15.9834933710       13.3993843235  MEMB      32              0.0000000000
      3803        32  OSM       H5S           -16.8545468888       16.2806783378       13.9228338766  MEMB      32              0.0000000000
      3804        32  OSM       C6S           -16.3398889157       15.4363236937       12.0307787992  MEMB      32              0.0000000000
      3805        32  OSM       H6S           -16.9300990462       14.4486203085       11.8681389453  MEMB      32              0.0000000000
      3806        32  OSM       H6T           -15.4489888812       14.9780489027       11.9559102051  MEMB      32              0.0000000000
      3807        32  OSM       C7S           -17.0405971011       16.0570376537       10.9847538912  MEMB      32              0.0000000000
      3808        32  OSM       H7S           -18.0730352464       16.2568397984       11.3003921301  MEMB      32              0.0000000000
      3809        32  OSM       H7T           -17.2016094100       15.2692962383       10.2493527764  MEMB      32              0.0000000000
      3810        32  OSM       C8S           -16.0299699875       17.1289366426       10.8470051578  MEMB      32              0.0000000000
      3811        32  OSM       H8S           -16.0558911801       17.7042608173       11.7976011819  MEMB      32              0.0000000000
      3812        32  OSM       H8T           -16.4250733973       17.7140635929       10.0311784825  MEMB      32              0.0000000000
      3813        32  OSM       C9S           -14.5674854757       16.6433457407       10.6545176746  MEMB      32              0.0000000000
      3814        32  OSM       H9S           -14.5735863884       16.0167671499        9.7556019004  MEMB      32              0.0000000000
      3815        32  OSM       H9T           -14.1167297310       16.0296807818       11.4743065536  MEMB      32              0.0000000000
      3816        32  OSM       C10S          -13.5621428354       17.7492448436       10.4747763422  MEMB      32              0.0000000000
      3817        32  OSM       H10S          -12.5714224275       17.2495337707       10.3651571092  MEMB      32              0.0000000000
      3818        32  OSM       H10T          -13.5115227321       18.4033766022       11.3707880208  MEMB      32              0.0000000000
      3819        32  OSM       C11S          -13.8301299137       18.5507852864        9.2079210615  MEMB      32              0.0000000000
      3820        32  OSM       H11S          -13.2339291741       19.4813170905        9.2951087845  MEMB      32              0.0000000000
      3821        32  OSM       H11T          -14.9032241195       18.8176524050        9.0971870688  MEMB      32              0.0000000000
      3822        32  OSM       C12S          -13.3737089020       17.7627498193        7.9783947207  MEMB      32              0.0000000000
      3823        32  OSM       H12S          -13.9355036965       16.8016299502        7.9404504763  MEMB      32              0.0000000000
      3824        32  OSM       H12T          -12.2897808149       17.5393826308        8.1085029579  MEMB      32              0.0000000000
      3825        32  OSM       C13S          -13.5777106696       18.4617667683        6.6357869057  MEMB      32              0.0000000000
      3826        32  OSM       H13S          -12.8053295293       19.2564005057        6.5252206111  MEMB      32              0.0000000000
      3827        32  OSM       H13T          -14.5805172572       18.9371276708        6.5741979644  MEMB      32              0.0000000000
      3828        32  OSM       C14S          -13.5196865723       17.4426675984        5.4881336161  MEMB      32              0.0000000000
      3829        32  OSM       H14S          -14.2836409721       16.6515661331        5.6707089941  MEMB      32              0.0000000000
      3830        32  OSM       H14T          -12.5244287494       16.9529039643        5.5424600955  MEMB      32              0.0000000000
      3831        32  OSM       C15S          -13.8337403105       18.0865303006        4.1308560207  MEMB      32              0.0000000000
      3832        32  OSM       H15S          -13.3149921650       17.5937665536        3.2799954750  MEMB      32              0.0000000000
      3833        32  OSM       H15T          -13.4703426561       19.1380628805        4.1544479249  MEMB      32              0.0000000000
      3834        32  OSM       C16S          -15.3301610636       17.9792978442        3.7902916739  MEMB      32              0.0000000000
      3835        32  OSM       H16S          -15.9567460609       18.3597055258        4.6281657311  MEMB      32              0.0000000000
      3836        32  OSM       H16T          -15.5961208042       16.9028515978        3.7138884653  MEMB      32              0.0000000000
      3837        32  OSM       C17S          -15.6601323779       18.6736340233        2.4641071969  MEMB      32              0.0000000000
      3838        32  OSM       H17S          -15.1972737956       19.6799572047        2.4637854193  MEMB      32              0.0000000000
      3839        32  OSM       H17T          -16.7638113481       18.7929359763        2.3692088601  MEMB      32              0.0000000000
      3840        32  OSM       C18S          -15.1228477370       18.0047333746        1.2052981086  MEMB      32              0.0000000000
      3841        32  OSM       H18S          -15.4963433157       16.9636871530        1.1274470519  MEMB      32              0.0000000000
      3842        32  OSM       H18T          -14.0115202872       17.9945882519        1.2024673315  MEMB      32              0.0000000000
      3843        32  OSM       H18U          -15.4600121231       18.6042615620        0.3305589718  MEMB      32              0.0000000000
      3844        32  OSM       C1F           -15.6650233632       19.9341742075       14.3040704747  MEMB      32              0.0000000000
      3845        32  OSM       OF            -14.8527578440       20.6217998156       14.8829112745  MEMB      32              0.0000000000
      3846        32  OSM       C2F           -16.1665108107       20.2222551127       12.9638090048  MEMB      32              0.0000000000
      3847        32  OSM       H2F           -17.2234442152       19.8793313329       12.9023449477  MEMB      32              0.0000000000
      3848        32  OSM       H2G           -15.5604011561       19.6617481242       12.2103075571  MEMB      32              0.0000000000
      3849        32  OSM       C3F           -16.0009045347       21.6984730116       12.6735751185  MEMB      32              0.0000000000
      3850        32  OSM       H3F           -14.9760721446       22.0367585365       12.9308907927  MEMB      32              0.0000000000
      3851        32  OSM       H3G           -16.7242918669       22.3336380670       13.2476350432  MEMB      32              0.0000000000
      3852        32  OSM       C4F           -16.1348128484       21.8403531655       11.1779910582  MEMB      32              0.0000000000
      3853        32  OSM       H4F           -15.4661244108       21.1687074982       10.6320956717  MEMB      32              0.0000000000
      3854        32  OSM       H4G           -15.9083055521       22.8419327854       10.8063317642  MEMB      32              0.0000000000
      3855        32  OSM       C5F           -17.5307343493       21.5426687684       10.8193260646  MEMB      32              0.0000000000
      3856        32  OSM       H5F           -17.9801534945       22.1799066378       11.5908364041  MEMB      32              0.0000000000
      3857        32  OSM       H5G           -17.9490862399       20.5457173616       11.0424172297  MEMB      32              0.0000000000
      3858        32  OSM       C6F           -17.8331502634       21.9278793769        9.3945612107  MEMB      32              0.0000000000
      3859        32  OSM       H6F           -17.8472358015       23.0197586114        9.1567528961  MEMB      32              0.0000000000
      3860        32  OSM       H6G           -18.8554645288       21.5181632257        9.3898036858  MEMB      32              0.0000000000
      3861        32  OSM       C7F           -17.2914616852       21.0566545674        8.2789756362  MEMB      32              0.0000000000
      3862        32  OSM       H7F           -17.9332785457       20.1438016768        8.2141245370  MEMB      32              0.0000000000
      3863        32  OSM       H7G           -16.3120672272       20.8029472376        8.7009067355  MEMB      32              0.0000000000
      3864        32  OSM       C8F           -17.0769531710       21.6754224783        6.8771225524  MEMB      32              0.0000000000
      3865        32  OSM       H8F           -16.4334717712       20.9836244577        6.3418642789  MEMB      32              0.0000000000
      3866        32  OSM       H8G           -16.6260265471       22.6853543050        6.9696779238  MEMB      32              0.0000000000
      3867        32  OSM       C9F           -18.2182242705       21.7583408839        5.9567302364  MEMB      32              0.0000000000
      3868        32  OSM       H9F           -18.8653319810       22.5257178457        6.1543367187  MEMB      32              0.0000000000
      3869        32  OSM       C10F          -18.5418573728       21.4688223244        4.7709161810  MEMB      32              0.0000000000
      3870        32  OSM       H10F          -19.4765744405       21.9275865144        4.3538041274  MEMB      32              0.0000000000
      3871        32  OSM       C11F          -17.5383328042       20.8408627457        3.9021029743  MEMB      32              0.0000000000
      3872        32  OSM       H11F          -18.1825897986       20.2970802008        3.1593499981  MEMB      32              0.0000000000
      3873        32  OSM       H11G          -16.6348147265       20.5422708409        4.4177561404  MEMB      32              0.0000000000
      3874        32  OSM       C12F          -16.8931274747       21.5883599047        2.7511160010  MEMB      32              0.0000000000
      3875        32  OSM       H12F          -17.0124015278       22.5462864562        2.5982672957  MEMB      32              0.0000000000
      3876        32  OSM       H12G          -17.7723597892       22.0885113453        2.8202338436  MEMB      32              0.0000000000
      3877        32  OSM       C13F          -15.5886429478       22.1185300883        2.0497953485  MEMB      32              0.0000000000
      3878        32  OSM       H13F          -15.7700886781       21.2281919118        1.4384937673  MEMB      32              0.0000000000
      3879        32  OSM       H13G          -14.7711409731       22.1999425517        2.7910071090  MEMB      32              0.0000000000
      3880        32  OSM       C14F          -15.5512418395       23.2756816572        0.8790839854  MEMB      32              0.0000000000
      3881        32  OSM       H14F          -15.3479119193       24.3300846321        1.1471627814  MEMB      32              0.0000000000
      3882        32  OSM       H14G          -16.3560346388       23.4721752630        0.1650041480  MEMB      32              0.0000000000
      3883        32  OSM       C15F          -14.4206638785       23.2602666758       -0.0319707054  MEMB      32              0.0000000000
      3884        32  OSM       H15F          -13.7212286539       23.2694724682        0.7300885604  MEMB      32              0.0000000000
      3885        32  OSM       H15G          -14.3602657096       24.1869904060       -0.6511084453  MEMB      32              0.0000000000
      3886        32  OSM       C16F          -14.2666695958       21.9836294455       -0.6922867928  MEMB      32              0.0000000000
      3887        32  OSM       H16F          -14.6088170568       21.2053322876        0.0107833843  MEMB      32              0.0000000000
      3888        32  OSM       H16G          -13.1723349166       21.8440472927       -0.8317054881  MEMB      32              0.0000000000
      3889        32  OSM       C17F          -15.2212445080       22.1926380412       -1.8450979892  MEMB      32              0.0000000000
      3890        32  OSM       H17F          -14.8955788880       23.1062876394       -2.3890854901  MEMB      32              0.0000000000
      3891        32  OSM       H17G          -16.2413262116       22.3001286248       -1.4200476668  MEMB      32              0.0000000000
      3892        32  OSM       C18F          -15.3256179937       21.0810858584       -2.7996850747  MEMB      32              0.0000000000
      3893        32  OSM       H18F          -15.2505691924       20.1775840116       -2.1474721026  MEMB      32              0.0000000000
      3894        32  OSM       H18G          -14.4835813429       21.2401540207       -3.5226612665  MEMB      32              0.0000000000
      3895        32  OSM       H18H          -16.2230246352       20.9033303163       -3.3821717772  MEMB      32              0.0000000000
      3896        33  SAPS      N              24.3789844839       -4.6147319332       22.8147835072  MEMB      33              0.0000000000
      3897        33  SAPS      HN1            25.2764723179       -5.1195765831       22.7145727145  MEMB      33              0.0000000000
      3898        33  SAPS      HN2            24.5609416301       -3.6328537423       23.0888278268  MEMB      33              0.0000000000
      3899        33  SAPS      HN3            23.7847257774       -5.0443137395       23.5553324065  MEMB      33              0.0000000000
      3900        33  SAPS      C12            23.6137385497       -4.6418117048       21.5098128522  MEMB      33              0.0000000000
      3901        33  SAPS      H12A           23.6246403603       -5.6566063080       21.1562415990  MEMB      33              0.0000000000
      3902        33  SAPS      C13            22.1164352062       -4.2711651988       21.6128599579  MEMB      33              0.0000000000
      3903        33  SAPS      O13A           21.6566390911       -4.0363471515       22.7611769614  MEMB      33              0.0000000000
      3904        33  SAPS      O13B           21.3569842918       -4.5806261859       20.6594413697  MEMB      33              0.0000000000
      3905        33  SAPS      C11            24.3370193720       -3.7263136924       20.4779800916  MEMB      33              0.0000000000
      3906        33  SAPS      H11A           25.3996495369       -4.0477457431       20.3974236855  MEMB      33              0.0000000000
      3907        33  SAPS      H11B           24.2988981215       -2.6787295647       20.8539051751  MEMB      33              0.0000000000
      3908        33  SAPS      P              24.3287897321       -2.8259784642       18.0583405995  MEMB      33              0.0000000000
      3909        33  SAPS      O13            23.2875895914       -2.3220847241       17.1324037374  MEMB      33              0.0000000000
      3910        33  SAPS      O14            25.2756447060       -1.8871926423       18.7052285447  MEMB      33              0.0000000000
      3911        33  SAPS      O12            23.7375298549       -3.7877091503       19.1832131960  MEMB      33              0.0000000000
      3912        33  SAPS      O11            25.2113624611       -3.8943652802       17.3134383865  MEMB      33              0.0000000000
      3913        33  SAPS      C1             24.5721699444       -5.0129263848       16.7197217121  MEMB      33              0.0000000000
      3914        33  SAPS      HA             24.0562404705       -5.6468958335       17.4845973206  MEMB      33              0.0000000000
      3915        33  SAPS      HB             23.7899062891       -4.7025258010       15.9866343834  MEMB      33              0.0000000000
      3916        33  SAPS      C2             25.6296892298       -5.8376861643       15.9497853599  MEMB      33              0.0000000000
      3917        33  SAPS      HS             26.0869978956       -6.5420281126       16.7098355622  MEMB      33              0.0000000000
      3918        33  SAPS      O21            26.6251714569       -5.0613710617       15.3367376384  MEMB      33              0.0000000000
      3919        33  SAPS      C21            27.6138035033       -5.8213135955       14.9722608335  MEMB      33              0.0000000000
      3920        33  SAPS      O22            27.7642346750       -7.0181306388       15.1453184467  MEMB      33              0.0000000000
      3921        33  SAPS      C22            28.6319242483       -4.9185936710       14.4524497701  MEMB      33              0.0000000000
      3922        33  SAPS      H2R            28.4757654884       -3.8716280840       14.7924999022  MEMB      33              0.0000000000
      3923        33  SAPS      H2S            29.5760612501       -5.3296156084       14.8520221887  MEMB      33              0.0000000000
      3924        33  SAPS      C3             24.9469573817       -6.6438636517       14.8621898686  MEMB      33              0.0000000000
      3925        33  SAPS      HX             24.5596428930       -7.0691248787       15.7769845465  MEMB      33              0.0000000000
      3926        33  SAPS      HY             25.4831762532       -7.4533595417       14.3233048977  MEMB      33              0.0000000000
      3927        33  SAPS      O31            23.8100990587       -6.0975874804       14.1657628896  MEMB      33              0.0000000000
      3928        33  SAPS      C31            24.1217244413       -5.7014666037       12.9431213231  MEMB      33              0.0000000000
      3929        33  SAPS      O32            25.2208153429       -5.7630121598       12.4324376057  MEMB      33              0.0000000000
      3930        33  SAPS      C32            22.8970200951       -5.0328531467       12.3455424897  MEMB      33              0.0000000000
      3931        33  SAPS      H2X            21.9422501483       -5.5486682865       12.5969168214  MEMB      33              0.0000000000
      3932        33  SAPS      H2Y            22.9843682808       -4.9833049261       11.2440823855  MEMB      33              0.0000000000
      3933        33  SAPS      C23            28.4582820375       -4.9995206994       12.9687978301  MEMB      33              0.0000000000
      3934        33  SAPS      H3R            27.4443993784       -4.6777519498       12.6214913695  MEMB      33              0.0000000000
      3935        33  SAPS      H3S            28.7261416926       -5.9731794936       12.5146269166  MEMB      33              0.0000000000
      3936        33  SAPS      C24            29.1899957936       -4.0020908463       12.2558633688  MEMB      33              0.0000000000
      3937        33  SAPS      H4R            29.0058539931       -4.3976717846       11.2259035662  MEMB      33              0.0000000000
      3938        33  SAPS      H4S            30.1884478401       -3.8692105016       12.2732532185  MEMB      33              0.0000000000
      3939        33  SAPS      C25            29.1966645711       -2.6466911197       12.7050159652  MEMB      33              0.0000000000
      3940        33  SAPS      H5R            29.8914053263       -2.1640383375       13.4120771855  MEMB      33              0.0000000000
      3941        33  SAPS      C26            28.7770106710       -2.0148126062       11.7384074945  MEMB      33              0.0000000000
      3942        33  SAPS      H6R            28.7671506782       -1.0549179784       11.9640449453  MEMB      33              0.0000000000
      3943        33  SAPS      C27            28.3627327601       -2.5498853140       10.4453591956  MEMB      33              0.0000000000
      3944        33  SAPS      H7R            29.1058199628       -2.8772609721        9.6766251377  MEMB      33              0.0000000000
      3945        33  SAPS      H7S            28.6298432413       -1.8466586605        9.8182531341  MEMB      33              0.0000000000
      3946        33  SAPS      C28            26.9430932942       -3.0017164273       10.4156141129  MEMB      33              0.0000000000
      3947        33  SAPS      H8R            26.2290626787       -2.3658845855       10.9504743463  MEMB      33              0.0000000000
      3948        33  SAPS      C29            26.4600769737       -3.8180500657        9.5027853894  MEMB      33              0.0000000000
      3949        33  SAPS      H9R            25.5071088970       -4.2691472421        9.7064189637  MEMB      33              0.0000000000
      3950        33  SAPS      C210           27.1778528460       -4.4280399668        8.3672562792  MEMB      33              0.0000000000
      3951        33  SAPS      H10R           27.1484869053       -5.5087030673        8.4317626474  MEMB      33              0.0000000000
      3952        33  SAPS      H10S           28.1499941111       -3.9124077395        8.1318656370  MEMB      33              0.0000000000
      3953        33  SAPS      C211           26.5736562547       -4.1739891361        7.1120923895  MEMB      33              0.0000000000
      3954        33  SAPS      H11R           26.8031537125       -3.1402311600        7.0946758186  MEMB      33              0.0000000000
      3955        33  SAPS      C212           26.1591068851       -4.8568616591        6.0506132600  MEMB      33              0.0000000000
      3956        33  SAPS      H12R           25.7076351611       -4.3396116999        5.2022478391  MEMB      33              0.0000000000
      3957        33  SAPS      C213           26.1829067894       -6.2937984115        5.7813419926  MEMB      33              0.0000000000
      3958        33  SAPS      H13R           25.4519594356       -6.4595941649        4.9578978680  MEMB      33              0.0000000000
      3959        33  SAPS      H13S           26.0580796911       -6.8398565820        6.6921678904  MEMB      33              0.0000000000
      3960        33  SAPS      C214           27.3537660506       -6.9635772129        5.3431352136  MEMB      33              0.0000000000
      3961        33  SAPS      H14R           28.1707647143       -7.2566223201        6.0385284857  MEMB      33              0.0000000000
      3962        33  SAPS      C215           27.6337663932       -6.6845053401        4.1318683966  MEMB      33              0.0000000000
      3963        33  SAPS      H15R           28.6655486362       -6.7493281599        4.1674387875  MEMB      33              0.0000000000
      3964        33  SAPS      C216           27.0454754078       -5.8121118134        3.0399409621  MEMB      33              0.0000000000
      3965        33  SAPS      H16R           27.6238210347       -5.0013479598        3.4842615959  MEMB      33              0.0000000000
      3966        33  SAPS      H16S           26.1643834484       -5.2569001469        3.2965182418  MEMB      33              0.0000000000
      3967        33  SAPS      C217           27.1327260219       -6.0395579406        1.4014986429  MEMB      33              0.0000000000
      3968        33  SAPS      H17R           28.1410490656       -6.0129268820        0.9783981868  MEMB      33              0.0000000000
      3969        33  SAPS      H17S           26.9905619012       -5.3410934274        0.5756259053  MEMB      33              0.0000000000
      3970        33  SAPS      C218           26.8158659735       -7.4582664903        1.1459747759  MEMB      33              0.0000000000
      3971        33  SAPS      H18R           25.8164700739       -7.5104533724        1.6420632122  MEMB      33              0.0000000000
      3972        33  SAPS      H18S           27.1753313988       -7.8479829176        2.1090532181  MEMB      33              0.0000000000
      3973        33  SAPS      C219           27.3011769378       -8.1740314978       -0.3275311464  MEMB      33              0.0000000000
      3974        33  SAPS      H19R           26.7812500263       -7.6112458735       -1.0622643852  MEMB      33              0.0000000000
      3975        33  SAPS      H19S           26.5470658448       -8.9376690555        0.0118312940  MEMB      33              0.0000000000
      3976        33  SAPS      C220           28.8171096120       -8.7266634262       -1.1741670367  MEMB      33              0.0000000000
      3977        33  SAPS      H20R           29.5914026982       -8.0047174584       -1.2898973211  MEMB      33              0.0000000000
      3978        33  SAPS      H20S           29.0663034334       -9.1416319964       -2.0872205117  MEMB      33              0.0000000000
      3979        33  SAPS      H20T           29.4805142743       -9.5872686615       -0.6971984020  MEMB      33              0.0000000000
      3980        33  SAPS      C33            22.9910534692       -3.6643433317       13.0265265551  MEMB      33              0.0000000000
      3981        33  SAPS      H3X            23.9416817881       -3.1696366984       12.7543548088  MEMB      33              0.0000000000
      3982        33  SAPS      H3Y            22.9127049639       -3.7924164305       14.1373544801  MEMB      33              0.0000000000
      3983        33  SAPS      C34            21.9212449258       -2.7063399249       12.6325624549  MEMB      33              0.0000000000
      3984        33  SAPS      H4X            21.8189898023       -1.8439112774       13.3207452522  MEMB      33              0.0000000000
      3985        33  SAPS      H4Y            21.0745515457       -3.3351904213       12.7635804307  MEMB      33              0.0000000000
      3986        33  SAPS      C35            21.8951219966       -2.3211246800       11.1832337381  MEMB      33              0.0000000000
      3987        33  SAPS      H5X            21.1599078194       -1.4790730274       11.1194748788  MEMB      33              0.0000000000
      3988        33  SAPS      H5Y            21.5803580119       -3.1957146391       10.5477926914  MEMB      33              0.0000000000
      3989        33  SAPS      C36            23.0520350755       -1.5239023492       10.7110061173  MEMB      33              0.0000000000
      3990        33  SAPS      H6X            23.9531145029       -2.1446113129       10.8579361679  MEMB      33              0.0000000000
      3991        33  SAPS      H6Y            23.0520607839       -0.6410004024       11.3970249152  MEMB      33              0.0000000000
      3992        33  SAPS      C37            22.8556112132       -1.1407425173        9.2405686043  MEMB      33              0.0000000000
      3993        33  SAPS      H7X            21.8362932995       -0.7353087749        9.0496420434  MEMB      33              0.0000000000
      3994        33  SAPS      H7Y            22.9452378755       -2.1031863934        8.6882170490  MEMB      33              0.0000000000
      3995        33  SAPS      C38            23.8874862663       -0.1133365486        8.7681695377  MEMB      33              0.0000000000
      3996        33  SAPS      H8X            24.8799403495       -0.5447226232        9.0089303588  MEMB      33              0.0000000000
      3997        33  SAPS      H8Y            23.7923314110        0.8090886379        9.3790670701  MEMB      33              0.0000000000
      3998        33  SAPS      C39            23.7193064472        0.4214736404        7.3200221278  MEMB      33              0.0000000000
      3999        33  SAPS      H9X            24.3702359306        1.3293956130        7.2288273159  MEMB      33              0.0000000000
      4000        33  SAPS      H9Y            22.6728206630        0.6472867808        7.0756379843  MEMB      33              0.0000000000
      4001        33  SAPS      C310           24.1788002136       -0.5113631088        6.2293133920  MEMB      33              0.0000000000
      4002        33  SAPS      H10X           23.7580566332       -1.5308014361        6.2487805790  MEMB      33              0.0000000000
      4003        33  SAPS      H10Y           25.1250904319       -0.6690405274        6.7513762904  MEMB      33              0.0000000000
      4004        33  SAPS      C311           24.3460461281        0.0396303594        4.7444225859  MEMB      33              0.0000000000
      4005        33  SAPS      H11X           25.0950619173        0.8751862933        4.7460300910  MEMB      33              0.0000000000
      4006        33  SAPS      H11Y           23.3670370301        0.3209310093        4.3640073100  MEMB      33              0.0000000000
      4007        33  SAPS      C312           24.7615992620       -0.9178553471        3.5669485828  MEMB      33              0.0000000000
      4008        33  SAPS      H12X           24.5027375888       -1.9894255339        3.7432509974  MEMB      33              0.0000000000
      4009        33  SAPS      H12Y           25.8420823325       -0.7364508676        3.6199054166  MEMB      33              0.0000000000
      4010        33  SAPS      C313           24.8266515464       -0.5577138896        2.1348467435  MEMB      33              0.0000000000
      4011        33  SAPS      H13X           25.4110029499        0.4052612490        2.1369835951  MEMB      33              0.0000000000
      4012        33  SAPS      H13Y           23.7633056110       -0.5509810989        1.9162181859  MEMB      33              0.0000000000
      4013        33  SAPS      C314           25.5688875392       -1.4813640129        1.1663328411  MEMB      33              0.0000000000
      4014        33  SAPS      H14X           26.5978908612       -1.1702085005        1.2774481683  MEMB      33              0.0000000000
      4015        33  SAPS      H14Y           25.5837524459       -1.0516626701        0.1651232194  MEMB      33              0.0000000000
      4016        33  SAPS      C315           25.2571896746       -3.0106617707        1.1450849817  MEMB      33              0.0000000000
      4017        33  SAPS      H15X           25.3947703677       -3.5461076694        2.0907725382  MEMB      33              0.0000000000
      4018        33  SAPS      H15Y           25.8945526183       -3.5796678460        0.4262952421  MEMB      33              0.0000000000
      4019        33  SAPS      C316           23.9350569930       -3.3401721522        0.5482378208  MEMB      33              0.0000000000
      4020        33  SAPS      H16X           23.9456295511       -2.7927301478       -0.4230591905  MEMB      33              0.0000000000
      4021        33  SAPS      H16Y           23.1372802359       -2.9720424702        1.2227128648  MEMB      33              0.0000000000
      4022        33  SAPS      C317           23.7682985496       -4.8471929739        0.3590624741  MEMB      33              0.0000000000
      4023        33  SAPS      H17X           24.5595805748       -5.3030780146       -0.2845730982  MEMB      33              0.0000000000
      4024        33  SAPS      H17Y           22.8031206249       -4.9188357772       -0.1799839631  MEMB      33              0.0000000000
      4025        33  SAPS      C318           23.7118432533       -5.6193300517        1.6805664207  MEMB      33              0.0000000000
      4026        33  SAPS      H18X           24.6414953709       -5.4813838115        2.2492521383  MEMB      33              0.0000000000
      4027        33  SAPS      H18Y           23.5835564888       -6.7045447692        1.5059184354  MEMB      33              0.0000000000
      4028        33  SAPS      H18Z           22.8900031157       -5.2573238785        2.3266979751  MEMB      33              0.0000000000
      4029        34  CHL1      C3             11.4252990054      -20.7475271016       17.2945247109  MEMB      34              0.0000000000
      4030        34  CHL1      H3             12.1773778740      -21.5623460708       17.2838111417  MEMB      34              0.0000000000
      4031        34  CHL1      O3             10.9971055877      -20.6177110421       18.6188342183  MEMB      34              0.0000000000
      4032        34  CHL1      H3'            11.7381663249      -20.4069146317       19.2088212872  MEMB      34              0.0000000000
      4033        34  CHL1      C4             12.0371474604      -19.4132304607       16.8605990359  MEMB      34              0.0000000000
      4034        34  CHL1      H4A            11.3078183106      -18.5968501493       17.0497719391  MEMB      34              0.0000000000
      4035        34  CHL1      H4B            12.9215410059      -19.1700985333       17.4832922681  MEMB      34              0.0000000000
      4036        34  CHL1      C5             12.4553187634      -19.5023543374       15.4167172746  MEMB      34              0.0000000000
      4037        34  CHL1      C6             13.6906919962      -19.2236049862       15.0666186924  MEMB      34              0.0000000000
      4038        34  CHL1      H6             14.3758059984      -18.8317994219       15.8234176303  MEMB      34              0.0000000000
      4039        34  CHL1      C7             14.1607315035      -19.3227642172       13.6622065227  MEMB      34              0.0000000000
      4040        34  CHL1      H7A            14.9569863372      -18.5896763134       13.5556155326  MEMB      34              0.0000000000
      4041        34  CHL1      H7B            14.7019768230      -20.2605402778       13.4647946860  MEMB      34              0.0000000000
      4042        34  CHL1      C8             13.0150342457      -19.2337953408       12.6138628721  MEMB      34              0.0000000000
      4043        34  CHL1      H8             12.4932970710      -18.2464732505       12.7114521558  MEMB      34              0.0000000000
      4044        34  CHL1      C14            13.6168065016      -19.5119337504       11.2065349294  MEMB      34              0.0000000000
      4045        34  CHL1      H14            14.0053636954      -20.5357924639       11.3207867673  MEMB      34              0.0000000000
      4046        34  CHL1      C15            14.9090882048      -18.8841157701       10.5714007441  MEMB      34              0.0000000000
      4047        34  CHL1      H15A           14.9521101983      -17.8431704978       10.5297133391  MEMB      34              0.0000000000
      4048        34  CHL1      H15B           15.7832146741      -18.6646998625       11.1748351324  MEMB      34              0.0000000000
      4049        34  CHL1      C16            14.6505140847      -18.6895014850        9.0886961563  MEMB      34              0.0000000000
      4050        34  CHL1      H16A           14.3318187832      -17.6522014137        8.8593532317  MEMB      34              0.0000000000
      4051        34  CHL1      H16B           15.6037367208      -18.7065909695        8.5578905960  MEMB      34              0.0000000000
      4052        34  CHL1      C17            13.5329103094      -19.7641670631        8.8691118712  MEMB      34              0.0000000000
      4053        34  CHL1      H17            14.1361441321      -20.6636085928        8.9533707715  MEMB      34              0.0000000000
      4054        34  CHL1      C13            12.6388182396      -19.7207312222       10.1045046176  MEMB      34              0.0000000000
      4055        34  CHL1      C18            11.7971160769      -18.5967450643        9.8889341486  MEMB      34              0.0000000000
      4056        34  CHL1      H18A           12.0713521260      -17.7495122417        9.2842900577  MEMB      34              0.0000000000
      4057        34  CHL1      H18B           11.0559833088      -19.0139509283        9.1991452829  MEMB      34              0.0000000000
      4058        34  CHL1      H18C           11.4121178192      -18.2093255460       10.8675416190  MEMB      34              0.0000000000
      4059        34  CHL1      C12            11.6626176960      -20.8507672104       10.4739291102  MEMB      34              0.0000000000
      4060        34  CHL1      H12A           10.8739346454      -21.0108181469        9.7143761131  MEMB      34              0.0000000000
      4061        34  CHL1      H12B           12.3213026217      -21.7302506484       10.4668676607  MEMB      34              0.0000000000
      4062        34  CHL1      C11            10.9729608944      -20.6473932514       11.8605879997  MEMB      34              0.0000000000
      4063        34  CHL1      H11A           10.1973056950      -19.8641201277       11.8950241315  MEMB      34              0.0000000000
      4064        34  CHL1      H11B           10.3997560218      -21.5733351078       12.0612876600  MEMB      34              0.0000000000
      4065        34  CHL1      C9             11.9992064423      -20.3042381111       12.9872955163  MEMB      34              0.0000000000
      4066        34  CHL1      H9             12.6166374161      -21.2119784072       13.0955837301  MEMB      34              0.0000000000
      4067        34  CHL1      C10            11.4676111648      -20.0609126203       14.4153520825  MEMB      34              0.0000000000
      4068        34  CHL1      C19            10.4830432931      -18.9875384872       14.3381571951  MEMB      34              0.0000000000
      4069        34  CHL1      H19A           10.6346755587      -18.1829109715       13.5818783493  MEMB      34              0.0000000000
      4070        34  CHL1      H19B            9.5621508650      -19.5497469795       14.0510104017  MEMB      34              0.0000000000
      4071        34  CHL1      H19C           10.2072427968      -18.4667770810       15.2753791930  MEMB      34              0.0000000000
      4072        34  CHL1      C1             10.7541022175      -21.3164595207       14.9572504952  MEMB      34              0.0000000000
      4073        34  CHL1      H1A             9.9230081104      -21.5997121214       14.2758011334  MEMB      34              0.0000000000
      4074        34  CHL1      H1B            11.5177358091      -22.1166622074       14.9515538865  MEMB      34              0.0000000000
      4075        34  CHL1      C2             10.2373404939      -21.1413271243       16.3931830849  MEMB      34              0.0000000000
      4076        34  CHL1      H2A             9.7194313551      -22.0514013732       16.7482652888  MEMB      34              0.0000000000
      4077        34  CHL1      H2B             9.4656758414      -20.3567867424       16.4180675013  MEMB      34              0.0000000000
      4078        34  CHL1      C20            12.8630528999      -19.7972072615        7.4971178667  MEMB      34              0.0000000000
      4079        34  CHL1      H20            12.1543597949      -18.9834448755        7.5213181618  MEMB      34              0.0000000000
      4080        34  CHL1      C21            11.8982757329      -20.8115810870        7.0692243352  MEMB      34              0.0000000000
      4081        34  CHL1      H21A           11.0891011799      -20.8369676390        7.8078580740  MEMB      34              0.0000000000
      4082        34  CHL1      H21B           12.5455354154      -21.6906785101        6.9441941122  MEMB      34              0.0000000000
      4083        34  CHL1      H21C           11.4774562462      -20.4432375537        6.0976291549  MEMB      34              0.0000000000
      4084        34  CHL1      C22            13.8683562385      -19.7119954908        6.3760503388  MEMB      34              0.0000000000
      4085        34  CHL1      H22A           14.0644738982      -18.7169612104        6.7662352411  MEMB      34              0.0000000000
      4086        34  CHL1      H22B           14.8140760467      -20.1854345570        6.6738858596  MEMB      34              0.0000000000
      4087        34  CHL1      C23            13.5541671891      -19.7377871369        4.7597331745  MEMB      34              0.0000000000
      4088        34  CHL1      H23A           13.4233688498      -20.7993318556        4.6219661602  MEMB      34              0.0000000000
      4089        34  CHL1      H23B           12.5710301096      -19.3353367688        4.4623886622  MEMB      34              0.0000000000
      4090        34  CHL1      C24            14.4978051347      -19.1976662401        3.5670081371  MEMB      34              0.0000000000
      4091        34  CHL1      H24A           14.8904901121      -18.1440627876        3.3622942118  MEMB      34              0.0000000000
      4092        34  CHL1      H24B           15.4426131318      -19.7294631671        3.6537706405  MEMB      34              0.0000000000
      4093        34  CHL1      C25            13.9834701989      -19.3816360056        2.2402030669  MEMB      34              0.0000000000
      4094        34  CHL1      H25            13.8046988675      -20.4724697033        2.2687070282  MEMB      34              0.0000000000
      4095        34  CHL1      C26            12.7986164448      -18.5640127001        1.9419297467  MEMB      34              0.0000000000
      4096        34  CHL1      H26A           12.8096052915      -17.4709039313        2.0370419014  MEMB      34              0.0000000000
      4097        34  CHL1      H26B           12.6476127387      -18.8036592197        0.8537028240  MEMB      34              0.0000000000
      4098        34  CHL1      H26C           11.9718760685      -18.9427242435        2.5758894897  MEMB      34              0.0000000000
      4099        34  CHL1      C27            15.0292272370      -18.8716412252        1.3076765690  MEMB      34              0.0000000000
      4100        34  CHL1      H27A           14.9842631760      -17.7550542726        1.2142322269  MEMB      34              0.0000000000
      4101        34  CHL1      H27B           16.0065736606      -19.1490063919        1.7557461594  MEMB      34              0.0000000000
      4102        34  CHL1      H27C           14.8500483399      -19.3395433715        0.3288780375  MEMB      34              0.0000000000
      4103        35  SAPE      N               7.9506646339       22.0556261916       23.1676835444  MEMB      35              0.0000000000
      4104        35  SAPE      HN1             7.7502535619       21.0981399035       22.7964061154  MEMB      35              0.0000000000
      4105        35  SAPE      HN2             8.3893749972       21.9649501928       24.1083403478  MEMB      35              0.0000000000
      4106        35  SAPE      HN3             7.0552253809       22.5665062420       23.2641064482  MEMB      35              0.0000000000
      4107        35  SAPE      C12             8.8353788482       22.8698577621       22.2494396151  MEMB      35              0.0000000000
      4108        35  SAPE      H12A            9.7888748363       22.3286923137       22.0912528995  MEMB      35              0.0000000000
      4109        35  SAPE      H12B            9.0616790779       23.8319673628       22.7500962176  MEMB      35              0.0000000000
      4110        35  SAPE      C11             8.0816382199       23.0870421997       20.9329295697  MEMB      35              0.0000000000
      4111        35  SAPE      H11A            7.1503144832       23.6680244631       21.0953625401  MEMB      35              0.0000000000
      4112        35  SAPE      H11B            7.8172343295       22.0648756461       20.5649757350  MEMB      35              0.0000000000
      4113        35  SAPE      P               9.4828220155       23.1108110747       18.7211192860  MEMB      35              0.0000000000
      4114        35  SAPE      O13             9.6253963505       24.0784864224       17.6166973670  MEMB      35              0.0000000000
      4115        35  SAPE      O14            10.6554689015       22.3462909943       19.2008372326  MEMB      35              0.0000000000
      4116        35  SAPE      O12             8.8446317689       23.8219426839       19.9915805317  MEMB      35              0.0000000000
      4117        35  SAPE      O11             8.3476655026       22.0744053815       18.3847028241  MEMB      35              0.0000000000
      4118        35  SAPE      C1              7.0749702119       22.4080285036       17.8853255239  MEMB      35              0.0000000000
      4119        35  SAPE      HA              6.3294941721       22.3727400027       18.7001471063  MEMB      35              0.0000000000
      4120        35  SAPE      HB              7.0524995861       23.4042301965       17.3778810844  MEMB      35              0.0000000000
      4121        35  SAPE      C2              6.6910725968       21.3610245273       16.8700587688  MEMB      35              0.0000000000
      4122        35  SAPE      HS              6.5056957561       20.3548996418       17.3384466559  MEMB      35              0.0000000000
      4123        35  SAPE      O21             7.6827322467       21.3150812600       15.8631331302  MEMB      35              0.0000000000
      4124        35  SAPE      C21             8.6286145321       20.4592105958       16.0537651930  MEMB      35              0.0000000000
      4125        35  SAPE      O22             8.6213595543       19.5125454197       16.8225970025  MEMB      35              0.0000000000
      4126        35  SAPE      C22             9.5309419407       20.6831484544       14.8272798195  MEMB      35              0.0000000000
      4127        35  SAPE      H2R             9.1634725181       20.1482591462       13.9194736873  MEMB      35              0.0000000000
      4128        35  SAPE      H2S             9.4885245627       21.6779131294       14.4364143820  MEMB      35              0.0000000000
      4129        35  SAPE      C3              5.3995026791       21.6881821181       16.1678914687  MEMB      35              0.0000000000
      4130        35  SAPE      HX              4.5112108006       21.6768791224       16.8195024406  MEMB      35              0.0000000000
      4131        35  SAPE      HY              5.5278466761       20.8721156967       15.4798093786  MEMB      35              0.0000000000
      4132        35  SAPE      O31             5.3835428608       22.7828052052       15.3279380725  MEMB      35              0.0000000000
      4133        35  SAPE      C31             4.7129939594       22.6747479521       14.2032332539  MEMB      35              0.0000000000
      4134        35  SAPE      O32             4.0110868540       21.8417383001       13.7178777310  MEMB      35              0.0000000000
      4135        35  SAPE      C32             4.7096759933       23.9461388724       13.7039056297  MEMB      35              0.0000000000
      4136        35  SAPE      H2X             4.2051772805       24.4222215807       14.5653070801  MEMB      35              0.0000000000
      4137        35  SAPE      H2Y             4.1706136313       23.7850873613       12.7781832043  MEMB      35              0.0000000000
      4138        35  SAPE      C23            10.9640748656       20.3695220999       15.1500935583  MEMB      35              0.0000000000
      4139        35  SAPE      H3R            10.5382612041       19.4016505319       14.9138623179  MEMB      35              0.0000000000
      4140        35  SAPE      H3S            11.3555127148       20.0910183992       16.1451218454  MEMB      35              0.0000000000
      4141        35  SAPE      C24            12.0565509931       20.6271122222       14.1207987722  MEMB      35              0.0000000000
      4142        35  SAPE      H4R            11.7573417083       20.3387116931       13.1377967818  MEMB      35              0.0000000000
      4143        35  SAPE      H4S            12.9792458149       20.0256315155       14.3172696460  MEMB      35              0.0000000000
      4144        35  SAPE      C25            12.3448010938       21.8810150678       13.5422525256  MEMB      35              0.0000000000
      4145        35  SAPE      H5R            13.1928489612       22.1649719005       14.1535119787  MEMB      35              0.0000000000
      4146        35  SAPE      C26            11.8811312971       22.4624511590       12.3979612899  MEMB      35              0.0000000000
      4147        35  SAPE      H6R            12.4748712073       23.3285236910       12.1619607573  MEMB      35              0.0000000000
      4148        35  SAPE      C27            10.8808681559       22.0117207246       11.2980908193  MEMB      35              0.0000000000
      4149        35  SAPE      H7R            10.1199940281       22.7781003271       11.0956580226  MEMB      35              0.0000000000
      4150        35  SAPE      H7S            10.3154215642       21.0333793331       11.4431379327  MEMB      35              0.0000000000
      4151        35  SAPE      C28            11.7943185874       21.9338775278       10.1050357503  MEMB      35              0.0000000000
      4152        35  SAPE      H8R            12.5164535162       21.1793875701       10.1336910422  MEMB      35              0.0000000000
      4153        35  SAPE      C29            12.1169042755       22.5836020819        9.0237597485  MEMB      35              0.0000000000
      4154        35  SAPE      H9R            13.0095697405       22.2404358731        8.4673867519  MEMB      35              0.0000000000
      4155        35  SAPE      C210           11.5808688067       23.8136609355        8.5590718318  MEMB      35              0.0000000000
      4156        35  SAPE      H10R           12.5194563490       24.3986536768        8.6049192741  MEMB      35              0.0000000000
      4157        35  SAPE      H10S           10.8624563421       24.1550027475        9.3226133942  MEMB      35              0.0000000000
      4158        35  SAPE      C211           11.0491048803       23.7057317546        7.1532024261  MEMB      35              0.0000000000
      4159        35  SAPE      H11R           11.2264289226       24.6297948229        6.6050457536  MEMB      35              0.0000000000
      4160        35  SAPE      C212           10.3780527619       22.7433708183        6.4844635570  MEMB      35              0.0000000000
      4161        35  SAPE      H12R           10.1457236679       22.9416376416        5.4301699581  MEMB      35              0.0000000000
      4162        35  SAPE      C213            9.8969747388       21.3891817135        6.9151282578  MEMB      35              0.0000000000
      4163        35  SAPE      H13R            9.7287219839       21.3009738873        8.0092650926  MEMB      35              0.0000000000
      4164        35  SAPE      H13S           10.6453806360       20.6007499584        6.6560335328  MEMB      35              0.0000000000
      4165        35  SAPE      C214            8.5478964630       21.2075623177        6.2761798672  MEMB      35              0.0000000000
      4166        35  SAPE      H14R            7.7351069940       21.1849033570        7.0081884116  MEMB      35              0.0000000000
      4167        35  SAPE      C215            8.2130008185       20.8094661601        5.0453705275  MEMB      35              0.0000000000
      4168        35  SAPE      H15R            7.2100217041       20.3668225981        4.8969411235  MEMB      35              0.0000000000
      4169        35  SAPE      C216            9.1446285582       20.4372287924        3.9789186651  MEMB      35              0.0000000000
      4170        35  SAPE      H16R           10.1083923015       20.0367347950        4.3752462232  MEMB      35              0.0000000000
      4171        35  SAPE      H16S            9.4047660369       21.3027149013        3.3635919678  MEMB      35              0.0000000000
      4172        35  SAPE      C217            8.3636365731       19.4568165683        3.1099463410  MEMB      35              0.0000000000
      4173        35  SAPE      H17R            7.2859304305       19.4862376753        3.0818707815  MEMB      35              0.0000000000
      4174        35  SAPE      H17S            8.5676092823       18.4130956558        3.4521509885  MEMB      35              0.0000000000
      4175        35  SAPE      C218            8.8305097599       19.5500533310        1.6899501825  MEMB      35              0.0000000000
      4176        35  SAPE      H18R            8.7486218556       18.6100628466        1.0756099645  MEMB      35              0.0000000000
      4177        35  SAPE      H18S            9.8567923380       19.8004084467        2.0169077255  MEMB      35              0.0000000000
      4178        35  SAPE      C219            9.0023630765       20.6874167595        0.7698249600  MEMB      35              0.0000000000
      4179        35  SAPE      H19R            9.4689645306       21.5231246681        1.3413808365  MEMB      35              0.0000000000
      4180        35  SAPE      H19S            7.9934492778       20.7100971747        0.3881802394  MEMB      35              0.0000000000
      4181        35  SAPE      C220            9.6751505633       20.4871728680       -0.5394695488  MEMB      35              0.0000000000
      4182        35  SAPE      H20R           10.5909323893       20.9906564114       -0.5398152635  MEMB      35              0.0000000000
      4183        35  SAPE      H20S            9.6332475743       21.2863142539       -1.2653121071  MEMB      35              0.0000000000
      4184        35  SAPE      H20T            9.8368784005       19.4288437717       -0.8670696816  MEMB      35              0.0000000000
      4185        35  SAPE      C33             6.0331564461       24.5188349936       13.4270909276  MEMB      35              0.0000000000
      4186        35  SAPE      H3X             6.7746161111       23.6960895327       13.3487531001  MEMB      35              0.0000000000
      4187        35  SAPE      H3Y             6.2851498338       25.1697554277       14.2891690152  MEMB      35              0.0000000000
      4188        35  SAPE      C34             5.9855742060       25.2697445532       12.1299565398  MEMB      35              0.0000000000
      4189        35  SAPE      H4X             5.2362817366       26.0971867094       12.0858222936  MEMB      35              0.0000000000
      4190        35  SAPE      H4Y             5.8179675177       24.5761558586       11.2756600464  MEMB      35              0.0000000000
      4191        35  SAPE      C35             7.3169009924       25.8510785710       11.9426909180  MEMB      35              0.0000000000
      4192        35  SAPE      H5X             8.1271563716       25.0821492417       11.8860158864  MEMB      35              0.0000000000
      4193        35  SAPE      H5Y             7.5679064981       26.5383592133       12.7987175390  MEMB      35              0.0000000000
      4194        35  SAPE      C36             7.2882962295       26.5727608433       10.6342044290  MEMB      35              0.0000000000
      4195        35  SAPE      H6X             8.2876861446       26.7908417988       10.9438710540  MEMB      35              0.0000000000
      4196        35  SAPE      H6Y             6.6795809623       27.4856566946       10.5560311057  MEMB      35              0.0000000000
      4197        35  SAPE      C37             7.4516884360       25.8264704610        9.3234260981  MEMB      35              0.0000000000
      4198        35  SAPE      H7X             6.4436271535       25.4140226790        9.1672038668  MEMB      35              0.0000000000
      4199        35  SAPE      H7Y             8.2462724724       25.0487209767        9.4247197606  MEMB      35              0.0000000000
      4200        35  SAPE      C38             7.8554254240       26.6774793254        8.1270114713  MEMB      35              0.0000000000
      4201        35  SAPE      H8X             8.9357254445       26.9017798280        8.2311115675  MEMB      35              0.0000000000
      4202        35  SAPE      H8Y             7.2151374296       27.5890757114        8.0042398231  MEMB      35              0.0000000000
      4203        35  SAPE      C39             7.7536740996       26.0111139506        6.8130020887  MEMB      35              0.0000000000
      4204        35  SAPE      H9X             8.5170209083       25.2212295730        6.6496569471  MEMB      35              0.0000000000
      4205        35  SAPE      H9Y             7.8495119607       26.7707868511        5.9864101535  MEMB      35              0.0000000000
      4206        35  SAPE      C310            6.4595110523       25.3124414138        6.7528557544  MEMB      35              0.0000000000
      4207        35  SAPE      H10X            5.5748122117       25.9966923110        6.9721277347  MEMB      35              0.0000000000
      4208        35  SAPE      H10Y            6.3357923430       24.3995079582        7.3670439505  MEMB      35              0.0000000000
      4209        35  SAPE      C311            6.5527643700       24.8997798161        5.3330325659  MEMB      35              0.0000000000
      4210        35  SAPE      H11X            6.8294594543       25.7147866034        4.6439981019  MEMB      35              0.0000000000
      4211        35  SAPE      H11Y            5.5351972080       25.0387975885        5.3288905077  MEMB      35              0.0000000000
      4212        35  SAPE      C312            6.8077490714       23.4523703760        4.8200683517  MEMB      35              0.0000000000
      4213        35  SAPE      H12X            6.3860404867       22.7111470472        5.5388628272  MEMB      35              0.0000000000
      4214        35  SAPE      H12Y            7.9050899471       23.5247467822        4.8811548208  MEMB      35              0.0000000000
      4215        35  SAPE      C313            6.4088694482       22.9096800795        3.3735892082  MEMB      35              0.0000000000
      4216        35  SAPE      H13X            5.3339900471       22.6094560977        3.4104387410  MEMB      35              0.0000000000
      4217        35  SAPE      H13Y            6.8968532360       21.9688501355        3.0786314672  MEMB      35              0.0000000000
      4218        35  SAPE      C314            6.7734681490       23.7855272684        2.1437591519  MEMB      35              0.0000000000
      4219        35  SAPE      H14X            7.5074315114       24.5792962175        2.3636622113  MEMB      35              0.0000000000
      4220        35  SAPE      H14Y            5.9728200709       24.4094014437        1.8860529042  MEMB      35              0.0000000000
      4221        35  SAPE      C315            6.2162912863       23.4151503121        0.7539815634  MEMB      35              0.0000000000
      4222        35  SAPE      H15X            5.1502704778       23.0819643099        0.7647094946  MEMB      35              0.0000000000
      4223        35  SAPE      H15Y            6.9291071366       22.6116209624        0.5509555292  MEMB      35              0.0000000000
      4224        35  SAPE      C316            6.2314477824       24.5363343768       -0.2992478891  MEMB      35              0.0000000000
      4225        35  SAPE      H16X            5.7452916629       25.5116486444       -0.1172234402  MEMB      35              0.0000000000
      4226        35  SAPE      H16Y            5.9339564317       24.1541756327       -1.2904429919  MEMB      35              0.0000000000
      4227        35  SAPE      C317            7.6091999228       24.9030504122       -0.4410695103  MEMB      35              0.0000000000
      4228        35  SAPE      H17X            8.1745463705       24.0855757645        0.0568145493  MEMB      35              0.0000000000
      4229        35  SAPE      H17Y            7.7624632530       25.8453609021        0.1222106909  MEMB      35              0.0000000000
      4230        35  SAPE      C318            8.0234453924       24.9373502420       -1.8714803663  MEMB      35              0.0000000000
      4231        35  SAPE      H18X            9.0928910748       25.0363944193       -1.8071568555  MEMB      35              0.0000000000
      4232        35  SAPE      H18Y            7.5904614757       25.8033312318       -2.4098709753  MEMB      35              0.0000000000
      4233        35  SAPE      H18Z            8.0115725806       24.0010954113       -2.4346876620  MEMB      35              0.0000000000
      4234        36  SAPI      C12            21.9556921202      -15.3071896961       22.3258772910  MEMB      36              0.0000000000
      4235        36  SAPI      H2             22.5814090919      -15.5481981537       21.4304964051  MEMB      36              0.0000000000
      4236        36  SAPI      O2             20.6361192655      -15.6653301685       22.0462299271  MEMB      36              0.0000000000
      4237        36  SAPI      HO2            20.6388138010      -16.0573821937       21.1587689132  MEMB      36              0.0000000000
      4238        36  SAPI      C13            22.5505532527      -16.0726750806       23.4866951319  MEMB      36              0.0000000000
      4239        36  SAPI      H3             23.6239973647      -15.8031513385       23.5768693802  MEMB      36              0.0000000000
      4240        36  SAPI      O3             22.5141969285      -17.4873855426       23.2610642539  MEMB      36              0.0000000000
      4241        36  SAPI      HO3            21.5869980546      -17.7624537630       23.1465722566  MEMB      36              0.0000000000
      4242        36  SAPI      C14            21.8143431964      -15.7097374821       24.7641579024  MEMB      36              0.0000000000
      4243        36  SAPI      H4             20.7483679959      -16.0279249953       24.6781290513  MEMB      36              0.0000000000
      4244        36  SAPI      O4             22.4203553211      -16.3757860719       25.8658025736  MEMB      36              0.0000000000
      4245        36  SAPI      HO4            23.3626781050      -16.2045779226       25.8208971276  MEMB      36              0.0000000000
      4246        36  SAPI      C15            21.8222422081      -14.2159546558       25.0376920364  MEMB      36              0.0000000000
      4247        36  SAPI      H5             22.8877838765      -13.8893515249       25.1326611606  MEMB      36              0.0000000000
      4248        36  SAPI      O5             21.1835143516      -13.8934907174       26.2838405519  MEMB      36              0.0000000000
      4249        36  SAPI      HO5            20.2325702638      -13.9161248020       26.1308464409  MEMB      36              0.0000000000
      4250        36  SAPI      C16            21.1995655221      -13.4824462879       23.8517072185  MEMB      36              0.0000000000
      4251        36  SAPI      H6             20.1388278042      -13.8188970516       23.7394522505  MEMB      36              0.0000000000
      4252        36  SAPI      O6             21.1702860018      -12.0780424091       24.0776307865  MEMB      36              0.0000000000
      4253        36  SAPI      HO6            21.6819468374      -11.6817582140       23.3630015076  MEMB      36              0.0000000000
      4254        36  SAPI      C11            21.9947118308      -13.8239964419       22.5902263558  MEMB      36              0.0000000000
      4255        36  SAPI      H1             23.0672632476      -13.5778289567       22.7566283270  MEMB      36              0.0000000000
      4256        36  SAPI      P              22.4021295110      -12.2493520089       20.4559350812  MEMB      36              0.0000000000
      4257        36  SAPI      O13            23.4184401708      -13.0633278970       19.7799914919  MEMB      36              0.0000000000
      4258        36  SAPI      O14            22.8976661119      -11.1211543136       21.2793483566  MEMB      36              0.0000000000
      4259        36  SAPI      O12            21.4603900674      -13.1568570226       21.4431363068  MEMB      36              0.0000000000
      4260        36  SAPI      O11            21.3475029188      -11.7529689230       19.3799883872  MEMB      36              0.0000000000
      4261        36  SAPI      C1             20.1206574551      -11.2342400976       19.9019641738  MEMB      36              0.0000000000
      4262        36  SAPI      HA             19.4434220251      -12.0669431333       20.2083199938  MEMB      36              0.0000000000
      4263        36  SAPI      HB             20.3105127552      -10.5759897424       20.7852271238  MEMB      36              0.0000000000
      4264        36  SAPI      C2             19.4126170154      -10.2895674525       18.9077308675  MEMB      36              0.0000000000
      4265        36  SAPI      HS             18.3692867099      -10.1724817443       19.2863791726  MEMB      36              0.0000000000
      4266        36  SAPI      O21            19.4404285905      -10.8188696440       17.5673897687  MEMB      36              0.0000000000
      4267        36  SAPI      C21            18.4076928201      -10.4940397570       16.8438834485  MEMB      36              0.0000000000
      4268        36  SAPI      O22            17.4410829892       -9.8405510257       17.2091856083  MEMB      36              0.0000000000
      4269        36  SAPI      C22            18.5387072743      -11.1485200712       15.4950564926  MEMB      36              0.0000000000
      4270        36  SAPI      H2R            19.5309864243      -11.5363777561       15.2253478952  MEMB      36              0.0000000000
      4271        36  SAPI      H2S            17.9969603300      -12.0942827711       15.6044467597  MEMB      36              0.0000000000
      4272        36  SAPI      C3             20.0927431955       -8.8913542209       18.9435445815  MEMB      36              0.0000000000
      4273        36  SAPI      HX             19.9869962649       -8.4495823598       19.9522594132  MEMB      36              0.0000000000
      4274        36  SAPI      HY             19.5162157469       -8.2467441548       18.2432322445  MEMB      36              0.0000000000
      4275        36  SAPI      O31            21.5069874773       -8.9835281412       18.6707836094  MEMB      36              0.0000000000
      4276        36  SAPI      C31            21.8932623200       -8.5751907054       17.4880707223  MEMB      36              0.0000000000
      4277        36  SAPI      O32            21.2089546784       -7.9451879045       16.6933847777  MEMB      36              0.0000000000
      4278        36  SAPI      C32            23.2995877380       -9.0460374307       17.1716034918  MEMB      36              0.0000000000
      4279        36  SAPI      H2X            23.4979834202      -10.0890178672       17.4601817123  MEMB      36              0.0000000000
      4280        36  SAPI      H2Y            24.0141824698       -8.3718250928       17.7063519398  MEMB      36              0.0000000000
      4281        36  SAPI      C23            18.1019282783      -10.0990591078       14.4731410378  MEMB      36              0.0000000000
      4282        36  SAPI      H3R            18.8606486691       -9.2877911718       14.4086476381  MEMB      36              0.0000000000
      4283        36  SAPI      H3S            17.1224761856       -9.6179314897       14.7419508809  MEMB      36              0.0000000000
      4284        36  SAPI      C24            17.9698213028      -10.6596457250       13.0831983042  MEMB      36              0.0000000000
      4285        36  SAPI      H4R            17.1228872309      -10.0205231485       12.7207003237  MEMB      36              0.0000000000
      4286        36  SAPI      H4S            17.7643855822      -11.7623348233       13.1321712522  MEMB      36              0.0000000000
      4287        36  SAPI      C25            19.0648944237      -10.3991221114       12.1440712207  MEMB      36              0.0000000000
      4288        36  SAPI      H5R            20.0264006745      -10.3855811874       12.6210481330  MEMB      36              0.0000000000
      4289        36  SAPI      C26            18.9726609267      -10.0168698726       10.8717173535  MEMB      36              0.0000000000
      4290        36  SAPI      H6R            19.8844494348       -9.8586118487       10.3255257340  MEMB      36              0.0000000000
      4291        36  SAPI      C27            17.7694710551       -9.7703324224       10.0645621859  MEMB      36              0.0000000000
      4292        36  SAPI      H7R            17.1952440168       -8.8196205571       10.2259051930  MEMB      36              0.0000000000
      4293        36  SAPI      H7S            17.1712793222      -10.4033320490       10.6467885887  MEMB      36              0.0000000000
      4294        36  SAPI      C28            18.0575717972      -10.1441641197        8.6120411466  MEMB      36              0.0000000000
      4295        36  SAPI      H8R            17.7162151723       -9.2974468616        7.9797987715  MEMB      36              0.0000000000
      4296        36  SAPI      C29            18.4143587078      -11.3089939855        7.9402973489  MEMB      36              0.0000000000
      4297        36  SAPI      H9R            18.1960025873      -11.2107401834        6.8792147960  MEMB      36              0.0000000000
      4298        36  SAPI      C210           18.6788419836      -12.8355734412        8.3054032019  MEMB      36              0.0000000000
      4299        36  SAPI      H10R           17.7744274324      -12.7107379710        8.9990698664  MEMB      36              0.0000000000
      4300        36  SAPI      H10S           19.5744271100      -12.7230144026        8.8521933406  MEMB      36              0.0000000000
      4301        36  SAPI      C211           18.6331637550      -14.4110273506        7.6400474269  MEMB      36              0.0000000000
      4302        36  SAPI      H11R           17.7034107819      -15.0087169986        7.3005565739  MEMB      36              0.0000000000
      4303        36  SAPI      C212           19.4101561452      -15.1654839662        7.0546536198  MEMB      36              0.0000000000
      4304        36  SAPI      H12R           18.9010178697      -15.5062215628        6.1716212705  MEMB      36              0.0000000000
      4305        36  SAPI      C213           20.5597559707      -14.3523150652        7.0414522945  MEMB      36              0.0000000000
      4306        36  SAPI      H13R           20.8260792966      -14.3814978868        8.1205080506  MEMB      36              0.0000000000
      4307        36  SAPI      H13S           20.4000505117      -13.3282911056        6.6036095669  MEMB      36              0.0000000000
      4308        36  SAPI      C214           21.4285252520      -15.2848209709        6.3676642349  MEMB      36              0.0000000000
      4309        36  SAPI      H14R           21.7303275013      -16.0708539329        7.0653548683  MEMB      36              0.0000000000
      4310        36  SAPI      C215           21.9499864874      -15.1886417682        5.1662494084  MEMB      36              0.0000000000
      4311        36  SAPI      H15R           22.6399418351      -15.9792622164        4.9298554568  MEMB      36              0.0000000000
      4312        36  SAPI      C216           21.8311674497      -14.1202997015        4.1259104368  MEMB      36              0.0000000000
      4313        36  SAPI      H16R           22.8594110392      -14.0129003300        3.7569126830  MEMB      36              0.0000000000
      4314        36  SAPI      H16S           21.3888466495      -13.1530860310        4.4418287175  MEMB      36              0.0000000000
      4315        36  SAPI      C217           21.0890381462      -14.4627049483        2.8762145251  MEMB      36              0.0000000000
      4316        36  SAPI      H17R           21.4003285840      -15.5044682360        2.5763156697  MEMB      36              0.0000000000
      4317        36  SAPI      H17S           21.1548719200      -13.8350007890        2.0057570234  MEMB      36              0.0000000000
      4318        36  SAPI      C218           19.6323048204      -14.2567614468        2.9643232535  MEMB      36              0.0000000000
      4319        36  SAPI      H18R           19.6816825880      -15.1639281363        3.3750437004  MEMB      36              0.0000000000
      4320        36  SAPI      H18S           18.9451508326      -14.3572959805        2.1246930794  MEMB      36              0.0000000000
      4321        36  SAPI      C219           18.8552284840      -13.2362568970        3.4573597658  MEMB      36              0.0000000000
      4322        36  SAPI      H19R           19.1246163762      -13.2183339480        4.5309931301  MEMB      36              0.0000000000
      4323        36  SAPI      H19S           17.7912525783      -13.6256436562        3.2716125175  MEMB      36              0.0000000000
      4324        36  SAPI      C220           19.1079321620      -12.0171837696        2.6671815222  MEMB      36              0.0000000000
      4325        36  SAPI      H20R           19.1845960380      -12.2557490087        1.5785786252  MEMB      36              0.0000000000
      4326        36  SAPI      H20S           20.0863116137      -11.6918839524        3.0679297270  MEMB      36              0.0000000000
      4327        36  SAPI      H20T           18.2939700606      -11.2946688052        2.8501576619  MEMB      36              0.0000000000
      4328        36  SAPI      C33            23.5094927922       -8.9440936258       15.6615120650  MEMB      36              0.0000000000
      4329        36  SAPI      H3X            24.6287863999       -8.9917397997       15.5417296363  MEMB      36              0.0000000000
      4330        36  SAPI      H3Y            23.0446860291       -7.9839934663       15.3057788366  MEMB      36              0.0000000000
      4331        36  SAPI      C34            22.9721873939       -9.9215469009       14.6745261920  MEMB      36              0.0000000000
      4332        36  SAPI      H4X            21.8988117986       -9.6645561657       14.5247830840  MEMB      36              0.0000000000
      4333        36  SAPI      H4Y            23.1287809265      -10.8900727226       15.1810662040  MEMB      36              0.0000000000
      4334        36  SAPI      C35            23.7540443206       -9.8351779061       13.3470559367  MEMB      36              0.0000000000
      4335        36  SAPI      H5X            23.7560533945      -10.8318660315       12.8649590229  MEMB      36              0.0000000000
      4336        36  SAPI      H5Y            24.8208372721       -9.5535380311       13.5220394393  MEMB      36              0.0000000000
      4337        36  SAPI      C36            23.1629636457       -8.8356243521       12.3506750801  MEMB      36              0.0000000000
      4338        36  SAPI      H6X            23.0871487269       -7.8608376245       12.8434616600  MEMB      36              0.0000000000
      4339        36  SAPI      H6Y            22.1164729511       -9.1087014718       12.1088456616  MEMB      36              0.0000000000
      4340        36  SAPI      C37            24.0110893586       -8.6905866871       11.0785984715  MEMB      36              0.0000000000
      4341        36  SAPI      H7X            25.0889768786       -8.5297175149       11.3183822768  MEMB      36              0.0000000000
      4342        36  SAPI      H7Y            23.6590570237       -7.8091280989       10.5032665441  MEMB      36              0.0000000000
      4343        36  SAPI      C38            23.9043685413       -9.9084032351       10.1753510278  MEMB      36              0.0000000000
      4344        36  SAPI      H8X            22.9140222178      -10.3949009042       10.3404300233  MEMB      36              0.0000000000
      4345        36  SAPI      H8Y            24.7088154306      -10.6211607890       10.4771879050  MEMB      36              0.0000000000
      4346        36  SAPI      C39            24.0108016730       -9.5774185830        8.6859631461  MEMB      36              0.0000000000
      4347        36  SAPI      H9X            24.8254773186       -8.8565120726        8.4518377698  MEMB      36              0.0000000000
      4348        36  SAPI      H9Y            23.0476422825       -9.1370953061        8.3350540405  MEMB      36              0.0000000000
      4349        36  SAPI      C310           24.1798669975      -10.8808848439        7.9244107773  MEMB      36              0.0000000000
      4350        36  SAPI      H10X           23.3040044848      -11.4992559912        8.2376354521  MEMB      36              0.0000000000
      4351        36  SAPI      H10Y           25.0994478423      -11.4242565080        8.2324211381  MEMB      36              0.0000000000
      4352        36  SAPI      C311           24.0738435754      -10.7087604327        6.4177725980  MEMB      36              0.0000000000
      4353        36  SAPI      H11X           23.5213442629       -9.7826922612        6.1463093939  MEMB      36              0.0000000000
      4354        36  SAPI      H11Y           23.4710168571      -11.5764621760        6.0718936503  MEMB      36              0.0000000000
      4355        36  SAPI      C312           25.4090676020      -10.7028007133        5.6811612228  MEMB      36              0.0000000000
      4356        36  SAPI      H12X           25.8985167110      -11.6899265873        5.8580989542  MEMB      36              0.0000000000
      4357        36  SAPI      H12Y           26.0562926493       -9.8778754502        6.0431542177  MEMB      36              0.0000000000
      4358        36  SAPI      C313           25.1744740137      -10.5145759383        4.1922232263  MEMB      36              0.0000000000
      4359        36  SAPI      H13X           26.1485884562      -10.4177923583        3.6605440124  MEMB      36              0.0000000000
      4360        36  SAPI      H13Y           24.5770082368       -9.5920795827        4.0030674790  MEMB      36              0.0000000000
      4361        36  SAPI      C314           24.4087825195      -11.7192219739        3.6852553391  MEMB      36              0.0000000000
      4362        36  SAPI      H14X           23.4409212631      -11.9071675684        4.1696950426  MEMB      36              0.0000000000
      4363        36  SAPI      H14Y           25.0692913210      -12.6181015954        3.7816234544  MEMB      36              0.0000000000
      4364        36  SAPI      C315           23.8940587246      -11.5292959033        2.3129362873  MEMB      36              0.0000000000
      4365        36  SAPI      H15X           24.8497572205      -11.4582056898        1.8452705244  MEMB      36              0.0000000000
      4366        36  SAPI      H15Y           23.5062293408      -10.5528313348        1.9574307614  MEMB      36              0.0000000000
      4367        36  SAPI      C316           23.1080652221      -12.7211084277        1.7805875765  MEMB      36              0.0000000000
      4368        36  SAPI      H16X           22.1407025395      -12.4194550292        1.3667217536  MEMB      36              0.0000000000
      4369        36  SAPI      H16Y           23.1816584131      -13.8544670271        1.9521094834  MEMB      36              0.0000000000
      4370        36  SAPI      C317           23.8200404986      -13.0307794763        0.6427502846  MEMB      36              0.0000000000
      4371        36  SAPI      H17X           24.7097479196      -13.3287130372        1.2602610879  MEMB      36              0.0000000000
      4372        36  SAPI      H17Y           23.8393513773      -11.9345722767        0.2296564902  MEMB      36              0.0000000000
      4373        36  SAPI      C318           23.0962759103      -14.1300926198       -0.1979090074  MEMB      36              0.0000000000
      4374        36  SAPI      H18X           22.0290411369      -14.0589501894       -0.3296825016  MEMB      36              0.0000000000
      4375        36  SAPI      H18Y           23.4559718556      -14.8269509033       -1.0227692436  MEMB      36              0.0000000000
      4376        36  SAPI      H18Z           23.2822905728      -13.2919833509       -0.8333861864  MEMB      36              0.0000000000
      4377        37  SAPE      N              -4.0680497684      -27.5454385422       21.4024285815  MEMB      37              0.0000000000
      4378        37  SAPE      HN1            -3.5666675569      -26.9204729316       22.0765987037  MEMB      37              0.0000000000
      4379        37  SAPE      HN2            -5.0433243851      -27.6671432601       21.7330948672  MEMB      37              0.0000000000
      4380        37  SAPE      HN3            -3.5828491675      -28.4673569374       21.3531468531  MEMB      37              0.0000000000
      4381        37  SAPE      C12            -4.0906269402      -26.9224932318       20.0225338695  MEMB      37              0.0000000000
      4382        37  SAPE      H12A           -4.3033600249      -27.7366016974       19.3014446777  MEMB      37              0.0000000000
      4383        37  SAPE      H12B           -3.0834951092      -26.4899248256       19.8495597171  MEMB      37              0.0000000000
      4384        37  SAPE      C11            -5.1222395060      -25.8011269722       19.8165423182  MEMB      37              0.0000000000
      4385        37  SAPE      H11A           -6.1522508572      -26.0731858000       20.1478886533  MEMB      37              0.0000000000
      4386        37  SAPE      H11B           -5.2050092921      -25.6228402703       18.7157430546  MEMB      37              0.0000000000
      4387        37  SAPE      P              -3.8727681086      -23.4608275264       19.7419684555  MEMB      37              0.0000000000
      4388        37  SAPE      O13            -3.5501077170      -22.3777307994       20.6780168108  MEMB      37              0.0000000000
      4389        37  SAPE      O14            -2.8239409707      -24.0694146859       18.8962836696  MEMB      37              0.0000000000
      4390        37  SAPE      O12            -4.6741215451      -24.6356030511       20.4911900058  MEMB      37              0.0000000000
      4391        37  SAPE      O11            -4.8960634373      -22.8497878490       18.8175826442  MEMB      37              0.0000000000
      4392        37  SAPE      C1             -5.9780671435      -22.3350235255       19.5810574282  MEMB      37              0.0000000000
      4393        37  SAPE      HA             -6.5764234916      -23.1120316732       20.1704203893  MEMB      37              0.0000000000
      4394        37  SAPE      HB             -5.8325443335      -21.3859652864       20.1563778629  MEMB      37              0.0000000000
      4395        37  SAPE      C2             -6.9045453764      -21.9516453640       18.5801357322  MEMB      37              0.0000000000
      4396        37  SAPE      HS             -7.8046730503      -21.9692633504       19.2622364782  MEMB      37              0.0000000000
      4397        37  SAPE      O21            -6.8587058211      -22.9337170801       17.4680683785  MEMB      37              0.0000000000
      4398        37  SAPE      C21            -7.4379647263      -24.1446550631       17.5767443522  MEMB      37              0.0000000000
      4399        37  SAPE      O22            -7.9820850956      -24.6204883036       18.5567753325  MEMB      37              0.0000000000
      4400        37  SAPE      C22            -7.5111221848      -24.8120858200       16.2004924906  MEMB      37              0.0000000000
      4401        37  SAPE      H2R            -7.3107450000      -24.0774573275       15.3970833981  MEMB      37              0.0000000000
      4402        37  SAPE      H2S            -6.7482968851      -25.6094458732       16.2213789002  MEMB      37              0.0000000000
      4403        37  SAPE      C3             -6.8698601661      -20.5097905053       17.9182808075  MEMB      37              0.0000000000
      4404        37  SAPE      HX             -7.0966481099      -19.8070837236       18.7408065584  MEMB      37              0.0000000000
      4405        37  SAPE      HY             -7.6915884705      -20.2966384978       17.1881856279  MEMB      37              0.0000000000
      4406        37  SAPE      O31            -5.6102373203      -20.1718632899       17.3462529173  MEMB      37              0.0000000000
      4407        37  SAPE      C31            -5.4206430744      -20.7483691678       16.1888596031  MEMB      37              0.0000000000
      4408        37  SAPE      O32            -6.2754955497      -21.0764358368       15.3843669513  MEMB      37              0.0000000000
      4409        37  SAPE      C32            -3.9670288911      -20.8610756103       15.8982391327  MEMB      37              0.0000000000
      4410        37  SAPE      H2X            -3.4398099868      -21.2660020073       16.7851186523  MEMB      37              0.0000000000
      4411        37  SAPE      H2Y            -3.5945436350      -19.8705389661       15.6145048852  MEMB      37              0.0000000000
      4412        37  SAPE      C23            -8.8504797397      -25.5067681075       15.9171620694  MEMB      37              0.0000000000
      4413        37  SAPE      H3R            -9.6836317525      -24.7778420076       16.0263029466  MEMB      37              0.0000000000
      4414        37  SAPE      H3S            -8.9902931941      -26.2844911580       16.7056339722  MEMB      37              0.0000000000
      4415        37  SAPE      C24            -8.8590520929      -26.2654793963       14.5726449911  MEMB      37              0.0000000000
      4416        37  SAPE      H4R            -9.6293566170      -27.0384705958       14.5797739457  MEMB      37              0.0000000000
      4417        37  SAPE      H4S            -7.9527227266      -26.8677543830       14.5238671907  MEMB      37              0.0000000000
      4418        37  SAPE      C25            -9.0319634819      -25.3850799668       13.3790500458  MEMB      37              0.0000000000
      4419        37  SAPE      H5R            -9.9419361601      -24.7925537383       13.4426907098  MEMB      37              0.0000000000
      4420        37  SAPE      C26            -8.3982663099      -25.3823302662       12.2040498235  MEMB      37              0.0000000000
      4421        37  SAPE      H6R            -8.3892580991      -24.4632582906       11.5688704974  MEMB      37              0.0000000000
      4422        37  SAPE      C27            -7.3467834937      -26.3897648087       11.9404004667  MEMB      37              0.0000000000
      4423        37  SAPE      H7R            -7.4220533401      -27.2273140645       12.6588964383  MEMB      37              0.0000000000
      4424        37  SAPE      H7S            -6.3481296305      -25.9334355290       12.0545656841  MEMB      37              0.0000000000
      4425        37  SAPE      C28            -7.6300032528      -26.9160664555       10.5707577646  MEMB      37              0.0000000000
      4426        37  SAPE      H8R            -8.6253426692      -27.3722347604       10.4333443730  MEMB      37              0.0000000000
      4427        37  SAPE      C29            -6.8051188228      -26.8131467064        9.5233741236  MEMB      37              0.0000000000
      4428        37  SAPE      H9R            -7.1265962039      -27.2757614694        8.5804843035  MEMB      37              0.0000000000
      4429        37  SAPE      C210           -5.4405409872      -26.1651003010        9.4765897891  MEMB      37              0.0000000000
      4430        37  SAPE      H10R           -5.1709208090      -26.1555821253        8.4051290903  MEMB      37              0.0000000000
      4431        37  SAPE      H10S           -4.7047020375      -26.8441911001        9.9629808746  MEMB      37              0.0000000000
      4432        37  SAPE      C211           -5.1407668572      -24.7864152260       10.0170412524  MEMB      37              0.0000000000
      4433        37  SAPE      H11R           -4.4135585780      -24.8329109563       10.8442885292  MEMB      37              0.0000000000
      4434        37  SAPE      C212           -5.3612657684      -23.5697739371        9.4700422665  MEMB      37              0.0000000000
      4435        37  SAPE      H12R           -5.0260750341      -22.6701773738       10.0122452309  MEMB      37              0.0000000000
      4436        37  SAPE      C213           -5.9879913408      -23.2491301361        8.1408250011  MEMB      37              0.0000000000
      4437        37  SAPE      H13R           -5.7914718503      -24.0025317078        7.3664566627  MEMB      37              0.0000000000
      4438        37  SAPE      H13S           -5.6951087289      -22.2358918931        7.8013156428  MEMB      37              0.0000000000
      4439        37  SAPE      C214           -7.4282015741      -23.1957966335        8.2572288105  MEMB      37              0.0000000000
      4440        37  SAPE      H14R           -7.6908191267      -22.5986170892        9.1421784969  MEMB      37              0.0000000000
      4441        37  SAPE      C215           -8.3340560950      -23.7630593790        7.4379233337  MEMB      37              0.0000000000
      4442        37  SAPE      H15R           -9.3825748572      -23.6922556172        7.6434098208  MEMB      37              0.0000000000
      4443        37  SAPE      C216           -8.3107235454      -24.5804027555        6.2251032094  MEMB      37              0.0000000000
      4444        37  SAPE      H16R           -9.0559855397      -25.4000671782        6.3723416444  MEMB      37              0.0000000000
      4445        37  SAPE      H16S           -7.3048848729      -24.9864527621        6.1336717682  MEMB      37              0.0000000000
      4446        37  SAPE      C217           -8.6954319407      -23.8500825171        4.9449770794  MEMB      37              0.0000000000
      4447        37  SAPE      H17R           -8.1841685569      -22.8610770582        4.8592857373  MEMB      37              0.0000000000
      4448        37  SAPE      H17S           -9.7856439308      -23.6682315471        4.9079531675  MEMB      37              0.0000000000
      4449        37  SAPE      C218           -8.4677539658      -24.7894149841        3.7750607382  MEMB      37              0.0000000000
      4450        37  SAPE      H18R           -8.8111465690      -25.8024029358        4.0432035557  MEMB      37              0.0000000000
      4451        37  SAPE      H18S           -7.4005278467      -24.7714848807        3.4812212534  MEMB      37              0.0000000000
      4452        37  SAPE      C219           -9.2415386942      -24.4075085066        2.5778598740  MEMB      37              0.0000000000
      4453        37  SAPE      H19R          -10.3575798918      -24.5317755607        2.7194864333  MEMB      37              0.0000000000
      4454        37  SAPE      H19S           -8.9684378591      -24.9993523165        1.6764593152  MEMB      37              0.0000000000
      4455        37  SAPE      C220           -8.8295701925      -23.0037867954        2.2866949924  MEMB      37              0.0000000000
      4456        37  SAPE      H20R           -9.2200442828      -22.2341448997        2.9668031191  MEMB      37              0.0000000000
      4457        37  SAPE      H20S           -9.4127244708      -23.0946335358        1.3987615215  MEMB      37              0.0000000000
      4458        37  SAPE      H20T           -8.0011739878      -22.6015442316        1.7198565267  MEMB      37              0.0000000000
      4459        37  SAPE      C33            -3.8928588957      -21.7920411753       14.6944351352  MEMB      37              0.0000000000
      4460        37  SAPE      H3X            -4.4269353874      -21.3091370689       13.8325717232  MEMB      37              0.0000000000
      4461        37  SAPE      H3Y            -4.3366505638      -22.7680687293       14.9780766948  MEMB      37              0.0000000000
      4462        37  SAPE      C34            -2.5069782559      -22.0531987301       14.2216640635  MEMB      37              0.0000000000
      4463        37  SAPE      H4X            -2.4415386533      -22.9345913201       13.5623367218  MEMB      37              0.0000000000
      4464        37  SAPE      H4Y            -1.8171104228      -22.1818298409       15.0974119689  MEMB      37              0.0000000000
      4465        37  SAPE      C35            -2.1136135324      -20.8657291106       13.4186329802  MEMB      37              0.0000000000
      4466        37  SAPE      H5X            -2.1685132142      -20.1392843047       14.2441786452  MEMB      37              0.0000000000
      4467        37  SAPE      H5Y            -2.6727113456      -20.4592844963       12.5576840929  MEMB      37              0.0000000000
      4468        37  SAPE      C36            -0.7503635863      -21.1036511165       12.9730671018  MEMB      37              0.0000000000
      4469        37  SAPE      H6X            -0.2850650713      -21.6649390395       13.8128888528  MEMB      37              0.0000000000
      4470        37  SAPE      H6Y            -0.1147321037      -20.2380632652       12.7603344880  MEMB      37              0.0000000000
      4471        37  SAPE      C37            -0.5435376262      -21.5615859356       11.5668227253  MEMB      37              0.0000000000
      4472        37  SAPE      H7X             0.4933061406      -21.7994989781       11.3455288324  MEMB      37              0.0000000000
      4473        37  SAPE      H7Y            -0.8261199433      -20.7312479971       10.9049677595  MEMB      37              0.0000000000
      4474        37  SAPE      C38            -1.2328351995      -22.8352526145       11.3558696734  MEMB      37              0.0000000000
      4475        37  SAPE      H8X            -2.2760658190      -22.6219748298       11.5277218508  MEMB      37              0.0000000000
      4476        37  SAPE      H8Y            -0.8612899301      -23.5028691377       12.1626526919  MEMB      37              0.0000000000
      4477        37  SAPE      C39            -1.2805344344      -23.2758797812        9.9176678209  MEMB      37              0.0000000000
      4478        37  SAPE      H9X            -0.5255604744      -23.9498739875        9.7894548425  MEMB      37              0.0000000000
      4479        37  SAPE      H9Y            -1.1124557163      -22.4812800083        9.1832141552  MEMB      37              0.0000000000
      4480        37  SAPE      C310           -1.8541885925      -24.6121355200        9.5102594802  MEMB      37              0.0000000000
      4481        37  SAPE      H10X           -2.8267883675      -24.2950939346        9.8098652696  MEMB      37              0.0000000000
      4482        37  SAPE      H10Y           -1.5335985683      -25.4998660108       10.1245839692  MEMB      37              0.0000000000
      4483        37  SAPE      C311           -1.7550255575      -24.9604204645        8.0180417010  MEMB      37              0.0000000000
      4484        37  SAPE      H11X           -2.2212373689      -25.9546988182        7.9869561535  MEMB      37              0.0000000000
      4485        37  SAPE      H11Y           -0.8227510841      -25.1730356648        7.4784076931  MEMB      37              0.0000000000
      4486        37  SAPE      C312           -2.4474585820      -23.9555325339        7.1269919826  MEMB      37              0.0000000000
      4487        37  SAPE      H12X           -1.8191467231      -23.0925877801        6.8179438198  MEMB      37              0.0000000000
      4488        37  SAPE      H12Y           -3.2734395800      -23.5506105716        7.7313642255  MEMB      37              0.0000000000
      4489        37  SAPE      C313           -2.8528719506      -24.6775161207        5.8573232468  MEMB      37              0.0000000000
      4490        37  SAPE      H13X           -3.3731465297      -25.6253452040        6.1065672012  MEMB      37              0.0000000000
      4491        37  SAPE      H13Y           -1.9262981165      -24.9746796496        5.3216106188  MEMB      37              0.0000000000
      4492        37  SAPE      C314           -3.7233334525      -23.8212402347        4.9522631041  MEMB      37              0.0000000000
      4493        37  SAPE      H14X           -3.2416726144      -22.8274627013        4.8065673039  MEMB      37              0.0000000000
      4494        37  SAPE      H14Y           -4.7097934488      -23.6552490449        5.4270084721  MEMB      37              0.0000000000
      4495        37  SAPE      C315           -3.9751241232      -24.5471886107        3.6462295113  MEMB      37              0.0000000000
      4496        37  SAPE      H15X           -4.5732199337      -25.4680667330        3.8262608179  MEMB      37              0.0000000000
      4497        37  SAPE      H15Y           -2.9925939535      -24.9345967074        3.2924578085  MEMB      37              0.0000000000
      4498        37  SAPE      C316           -4.6769958382      -23.7035584675        2.5686343556  MEMB      37              0.0000000000
      4499        37  SAPE      H16X           -4.4659407328      -22.6182444282        2.5925439726  MEMB      37              0.0000000000
      4500        37  SAPE      H16Y           -5.7709498100      -23.8747604007        2.6058006424  MEMB      37              0.0000000000
      4501        37  SAPE      C317           -4.1521278507      -24.1841550764        1.2606343246  MEMB      37              0.0000000000
      4502        37  SAPE      H17X           -4.7794249690      -23.9131989826        0.3801508884  MEMB      37              0.0000000000
      4503        37  SAPE      H17Y           -4.3028772022      -25.2595487890        1.4833036945  MEMB      37              0.0000000000
      4504        37  SAPE      C318           -2.6913004305      -23.7411711586        1.1067990448  MEMB      37              0.0000000000
      4505        37  SAPE      H18X           -2.0431804344      -24.4429321915        0.5672680752  MEMB      37              0.0000000000
      4506        37  SAPE      H18Y           -2.0641727394      -23.8288798960        1.9914795496  MEMB      37              0.0000000000
      4507        37  SAPE      H18Z           -2.6621717753      -22.7114112027        0.6790337331  MEMB      37              0.0000000000
      4508        38  SAPE      N             -27.6300387093        1.4833019536       18.5865791540  MEMB      38              0.0000000000
      4509        38  SAPE      HN1           -27.7563338832        1.1740124645       19.5754926811  MEMB      38              0.0000000000
      4510        38  SAPE      HN2           -27.9984620032        2.4406357505       18.4049415515  MEMB      38              0.0000000000
      4511        38  SAPE      HN3           -28.1214897349        0.7624785851       18.0209090681  MEMB      38              0.0000000000
      4512        38  SAPE      C12           -26.1400476117        1.4795861432       18.3398405372  MEMB      38              0.0000000000
      4513        38  SAPE      H12A          -25.7173493078        2.2553450902       19.0135032304  MEMB      38              0.0000000000
      4514        38  SAPE      H12B          -25.9461092443        1.7442092344       17.2805563745  MEMB      38              0.0000000000
      4515        38  SAPE      C11           -25.4962490684        0.1136042468       18.6111413876  MEMB      38              0.0000000000
      4516        38  SAPE      H11A          -24.4134094777        0.2706825750       18.8553526695  MEMB      38              0.0000000000
      4517        38  SAPE      H11B          -25.5610466859       -0.4681033983       17.6640478999  MEMB      38              0.0000000000
      4518        38  SAPE      P             -25.5739383511       -1.1657812327       20.9502695716  MEMB      38              0.0000000000
      4519        38  SAPE      O13           -24.7353239664       -0.0807104709       21.4821617348  MEMB      38              0.0000000000
      4520        38  SAPE      O14           -26.7120542198       -1.5375184003       21.8147908557  MEMB      38              0.0000000000
      4521        38  SAPE      O12           -26.2088136376       -0.5985054314       19.6069823644  MEMB      38              0.0000000000
      4522        38  SAPE      O11           -24.6826660681       -2.3921314322       20.5195463216  MEMB      38              0.0000000000
      4523        38  SAPE      C1            -25.1013567559       -3.3005379454       19.5111068650  MEMB      38              0.0000000000
      4524        38  SAPE      HA            -25.3429016874       -4.2764656846       19.9957215439  MEMB      38              0.0000000000
      4525        38  SAPE      HB            -25.9778859261       -2.9554826130       18.9231720690  MEMB      38              0.0000000000
      4526        38  SAPE      C2            -24.0023319439       -3.4664169998       18.4466079759  MEMB      38              0.0000000000
      4527        38  SAPE      HS            -23.0522037336       -3.2311245594       18.9660311583  MEMB      38              0.0000000000
      4528        38  SAPE      O21           -24.2121480202       -2.5614295923       17.3864400223  MEMB      38              0.0000000000
      4529        38  SAPE      C21           -23.2066983633       -2.4084131740       16.5668047408  MEMB      38              0.0000000000
      4530        38  SAPE      O22           -22.1743494204       -3.0489170504       16.5394394869  MEMB      38              0.0000000000
      4531        38  SAPE      C22           -23.7584721419       -1.2344781299       15.7119820801  MEMB      38              0.0000000000
      4532        38  SAPE      H2R           -24.7351556688       -1.5202321170       15.3098866683  MEMB      38              0.0000000000
      4533        38  SAPE      H2S           -23.7548255416       -0.3761068146       16.4222192473  MEMB      38              0.0000000000
      4534        38  SAPE      C3            -24.0387251308       -4.8718434125       17.8701187810  MEMB      38              0.0000000000
      4535        38  SAPE      HX            -23.9885738344       -5.5035014453       18.7086326619  MEMB      38              0.0000000000
      4536        38  SAPE      HY            -23.2259360958       -5.0786520031       17.1237795562  MEMB      38              0.0000000000
      4537        38  SAPE      O31           -25.3091244821       -5.3061602375       17.5751128823  MEMB      38              0.0000000000
      4538        38  SAPE      C31           -25.4072838129       -5.7638067860       16.4420233889  MEMB      38              0.0000000000
      4539        38  SAPE      O32           -24.6267486016       -6.3530866588       15.7128132933  MEMB      38              0.0000000000
      4540        38  SAPE      C32           -26.7805333998       -5.4499830988       16.1912947182  MEMB      38              0.0000000000
      4541        38  SAPE      H2X           -27.4030793262       -5.0133392817       17.0008105943  MEMB      38              0.0000000000
      4542        38  SAPE      H2Y           -27.0069748983       -6.5089763043       16.0359547865  MEMB      38              0.0000000000
      4543        38  SAPE      C23           -23.1057279131       -0.6945301437       14.4723571692  MEMB      38              0.0000000000
      4544        38  SAPE      H3R           -22.8221032989       -1.4883907391       13.7472945158  MEMB      38              0.0000000000
      4545        38  SAPE      H3S           -22.3000970016       -0.2233938966       15.0067287213  MEMB      38              0.0000000000
      4546        38  SAPE      C24           -23.4443126456        0.6565028713       13.8934061753  MEMB      38              0.0000000000
      4547        38  SAPE      H4R           -23.7669109575        1.3165055648       14.7067584126  MEMB      38              0.0000000000
      4548        38  SAPE      H4S           -24.2131339644        0.3508160969       13.1770389425  MEMB      38              0.0000000000
      4549        38  SAPE      C25           -22.1873620028        1.2008946185       13.3025086903  MEMB      38              0.0000000000
      4550        38  SAPE      H5R           -21.5578692851        1.9125462152       13.8735007135  MEMB      38              0.0000000000
      4551        38  SAPE      C26           -21.8851774437        0.8666707678       12.0903394160  MEMB      38              0.0000000000
      4552        38  SAPE      H6R           -21.0361049272        1.3834142858       11.7295060742  MEMB      38              0.0000000000
      4553        38  SAPE      C27           -22.5946680648        0.0245279706       11.0574266831  MEMB      38              0.0000000000
      4554        38  SAPE      H7R           -22.3061243609       -1.0495243621       11.1445708077  MEMB      38              0.0000000000
      4555        38  SAPE      H7S           -21.8367670623        0.2347812765       10.2744475010  MEMB      38              0.0000000000
      4556        38  SAPE      C28           -24.1635840760        0.3369095973       10.7641202236  MEMB      38              0.0000000000
      4557        38  SAPE      H8R           -24.6656589893       -0.5062495660       11.2169940329  MEMB      38              0.0000000000
      4558        38  SAPE      C29           -25.0806948520        0.9500336214        9.8385059405  MEMB      38              0.0000000000
      4559        38  SAPE      H9R           -26.0426928187        0.5757670254        9.5949383972  MEMB      38              0.0000000000
      4560        38  SAPE      C210          -25.1926994358        1.7013649188        8.5036912317  MEMB      38              0.0000000000
      4561        38  SAPE      H10R          -24.6975610325        2.5972366498        8.7975762179  MEMB      38              0.0000000000
      4562        38  SAPE      H10S          -25.3197081475        2.8601938556        8.3867033756  MEMB      38              0.0000000000
      4563        38  SAPE      C211          -24.5691090042        0.7375299418        7.3276589290  MEMB      38              0.0000000000
      4564        38  SAPE      H11R          -23.6417587293        0.1315218114        7.4959904919  MEMB      38              0.0000000000
      4565        38  SAPE      C212          -24.5727021040        0.9100589914        5.9632219243  MEMB      38              0.0000000000
      4566        38  SAPE      H12R          -23.8598712235        0.3579736992        5.2931851038  MEMB      38              0.0000000000
      4567        38  SAPE      C213          -25.1853651385        2.0566422868        5.2046896362  MEMB      38              0.0000000000
      4568        38  SAPE      H13R          -25.1123254949        1.7144598480        4.1638837788  MEMB      38              0.0000000000
      4569        38  SAPE      H13S          -24.7089811296        3.0666958913        5.1793241160  MEMB      38              0.0000000000
      4570        38  SAPE      C214          -26.4594576018        2.2395594711        5.9492555272  MEMB      38              0.0000000000
      4571        38  SAPE      H14R          -26.3914873512        3.1130834741        6.6350060125  MEMB      38              0.0000000000
      4572        38  SAPE      C215          -27.2885762977        1.1894037972        6.2081841773  MEMB      38              0.0000000000
      4573        38  SAPE      H15R          -28.0191440389        1.3403424613        6.9972633951  MEMB      38              0.0000000000
      4574        38  SAPE      C216          -27.0167269369       -0.2675044895        5.7422488529  MEMB      38              0.0000000000
      4575        38  SAPE      H16R          -26.9441963460       -1.0314132841        6.5421196874  MEMB      38              0.0000000000
      4576        38  SAPE      H16S          -26.0884832641       -0.5041461871        5.1501173593  MEMB      38              0.0000000000
      4577        38  SAPE      C217          -28.0178631872       -0.6271407535        4.6971394368  MEMB      38              0.0000000000
      4578        38  SAPE      H17R          -28.9881860702       -0.6487633743        5.2234035229  MEMB      38              0.0000000000
      4579        38  SAPE      H17S          -27.7501533738       -1.6560690458        4.3750134527  MEMB      38              0.0000000000
      4580        38  SAPE      C218          -27.9557215590        0.2711694016        3.4516516357  MEMB      38              0.0000000000
      4581        38  SAPE      H18R          -27.7152886822        1.3370239444        3.6748081934  MEMB      38              0.0000000000
      4582        38  SAPE      H18S          -28.9596005072        0.2729950733        2.9775725643  MEMB      38              0.0000000000
      4583        38  SAPE      C219          -26.9593518912       -0.2503735024        2.4056113283  MEMB      38              0.0000000000
      4584        38  SAPE      H19R          -27.3295039790       -1.2340678845        2.0423799153  MEMB      38              0.0000000000
      4585        38  SAPE      H19S          -25.9557449571       -0.4361521012        2.8492731283  MEMB      38              0.0000000000
      4586        38  SAPE      C220          -26.8710195679        0.7318042438        1.2427505736  MEMB      38              0.0000000000
      4587        38  SAPE      H20R          -27.8765227596        0.8020030918        0.7742819370  MEMB      38              0.0000000000
      4588        38  SAPE      H20S          -26.1379038826        0.4272852555        0.4674156607  MEMB      38              0.0000000000
      4589        38  SAPE      H20T          -26.5982267953        1.7359766414        1.6346383024  MEMB      38              0.0000000000
      4590        38  SAPE      C33           -27.0581860429       -4.8899910068       14.8647750666  MEMB      38              0.0000000000
      4591        38  SAPE      H3X           -28.1716835110       -4.8330207014       15.0109210162  MEMB      38              0.0000000000
      4592        38  SAPE      H3Y           -26.5747777653       -5.6450085025       14.2081835144  MEMB      38              0.0000000000
      4593        38  SAPE      C34           -26.6545645636       -3.5708402485       14.3680164090  MEMB      38              0.0000000000
      4594        38  SAPE      H4X           -25.5468606369       -3.6258620139       14.4243741678  MEMB      38              0.0000000000
      4595        38  SAPE      H4Y           -27.1263670161       -2.9236890500       15.1293529612  MEMB      38              0.0000000000
      4596        38  SAPE      C35           -27.1852526981       -3.2182807054       12.9503770954  MEMB      38              0.0000000000
      4597        38  SAPE      H5X           -27.3570976987       -2.1264439284       12.9208531435  MEMB      38              0.0000000000
      4598        38  SAPE      H5Y           -28.1408787471       -3.7086114106       12.6470185633  MEMB      38              0.0000000000
      4599        38  SAPE      C36           -26.1447540944       -3.4634661918       11.8691656645  MEMB      38              0.0000000000
      4600        38  SAPE      H6X           -25.9349715371       -4.5410611382       11.9451596770  MEMB      38              0.0000000000
      4601        38  SAPE      H6Y           -25.2401755539       -2.8570981684       12.1056899362  MEMB      38              0.0000000000
      4602        38  SAPE      C37           -26.5922079081       -3.1694278728       10.4348246840  MEMB      38              0.0000000000
      4603        38  SAPE      H7X           -26.8971278911       -2.1102185028       10.3380404471  MEMB      38              0.0000000000
      4604        38  SAPE      H7Y           -27.4293715972       -3.8524417689       10.1633857275  MEMB      38              0.0000000000
      4605        38  SAPE      C38           -25.4822873296       -3.4272250757        9.4288690592  MEMB      38              0.0000000000
      4606        38  SAPE      H8X           -25.3571522371       -4.5328561715        9.4696753891  MEMB      38              0.0000000000
      4607        38  SAPE      H8Y           -24.5676027885       -2.8676780816        9.7481884587  MEMB      38              0.0000000000
      4608        38  SAPE      C39           -25.8230057585       -3.0776805005        7.9907984017  MEMB      38              0.0000000000
      4609        38  SAPE      H9X           -25.9344546894       -1.9759133338        7.9735274948  MEMB      38              0.0000000000
      4610        38  SAPE      H9Y           -26.7810957341       -3.6022251902        7.7837828147  MEMB      38              0.0000000000
      4611        38  SAPE      C310          -24.8587117261       -3.4175656229        6.8458915564  MEMB      38              0.0000000000
      4612        38  SAPE      H10X          -25.4920459975       -3.3868601760        5.9243468625  MEMB      38              0.0000000000
      4613        38  SAPE      H10Y          -24.3800632999       -4.4089841272        6.8939653400  MEMB      38              0.0000000000
      4614        38  SAPE      C311          -23.8035236870       -2.3563460151        6.6066450333  MEMB      38              0.0000000000
      4615        38  SAPE      H11X          -23.2484579996       -2.0945976251        7.5346538003  MEMB      38              0.0000000000
      4616        38  SAPE      H11Y          -24.3374552808       -1.4729947360        6.2497620703  MEMB      38              0.0000000000
      4617        38  SAPE      C312          -22.8419946749       -2.7630826307        5.5189311272  MEMB      38              0.0000000000
      4618        38  SAPE      H12X          -22.6860035089       -3.8632633187        5.5919736827  MEMB      38              0.0000000000
      4619        38  SAPE      H12Y          -21.9041781380       -2.2207950183        5.7523234986  MEMB      38              0.0000000000
      4620        38  SAPE      C313          -23.2795508285       -2.4925449837        4.0854506249  MEMB      38              0.0000000000
      4621        38  SAPE      H13X          -22.4068556948       -2.1900090690        3.4575644791  MEMB      38              0.0000000000
      4622        38  SAPE      H13Y          -24.0741194454       -1.7221848899        4.0105077199  MEMB      38              0.0000000000
      4623        38  SAPE      C314          -23.7872584621       -3.7641799699        3.4671035605  MEMB      38              0.0000000000
      4624        38  SAPE      H14X          -24.7202635244       -4.1116776121        3.9719970129  MEMB      38              0.0000000000
      4625        38  SAPE      H14Y          -23.0234546398       -4.5791000901        3.5727924531  MEMB      38              0.0000000000
      4626        38  SAPE      C315          -24.0205492297       -3.5365562379        1.9850878051  MEMB      38              0.0000000000
      4627        38  SAPE      H15X          -23.1010473749       -3.1748889183        1.5036353224  MEMB      38              0.0000000000
      4628        38  SAPE      H15Y          -24.9292247918       -2.9184998701        1.7939872559  MEMB      38              0.0000000000
      4629        38  SAPE      C316          -24.3020184115       -4.8786526119        1.4625402145  MEMB      38              0.0000000000
      4630        38  SAPE      H16X          -25.0773829900       -5.0971924797        2.1613459819  MEMB      38              0.0000000000
      4631        38  SAPE      H16Y          -23.8857166478       -5.5994570853        2.0832251861  MEMB      38              0.0000000000
      4632        38  SAPE      C317          -24.3589411353       -5.1354747496       -0.0857049480  MEMB      38              0.0000000000
      4633        38  SAPE      H17X          -23.3211520471       -5.4108663570       -0.2411898609  MEMB      38              0.0000000000
      4634        38  SAPE      H17Y          -24.6099862306       -4.1632583772       -0.5591892785  MEMB      38              0.0000000000
      4635        38  SAPE      C318          -24.9304215195       -6.2583097610       -0.9881215380  MEMB      38              0.0000000000
      4636        38  SAPE      H18X          -24.9754825443       -7.2662459415       -0.5953585026  MEMB      38              0.0000000000
      4637        38  SAPE      H18Y          -24.5587176973       -6.4125702672       -1.9760884224  MEMB      38              0.0000000000
      4638        38  SAPE      H18Z          -25.9004337609       -5.8898366499       -1.2365271903  MEMB      38              0.0000000000
      4639        39  CHL1      C3             25.9732649801        3.9621569110       17.2879358611  MEMB      39              0.0000000000
      4640        39  CHL1      H3             25.7035522154        2.8876740645       17.1856598770  MEMB      39              0.0000000000
      4641        39  CHL1      O3             25.9793483837        4.2698924770       18.6745520984  MEMB      39              0.0000000000
      4642        39  CHL1      H3'            26.6021504514        3.6329882624       19.0742227084  MEMB      39              0.0000000000
      4643        39  CHL1      C4             27.3575362432        4.2229608990       16.6791938949  MEMB      39              0.0000000000
      4644        39  CHL1      H4A            27.5943730564        5.2964711880       16.8146915937  MEMB      39              0.0000000000
      4645        39  CHL1      H4B            28.1464897830        3.6715039951       17.2347073193  MEMB      39              0.0000000000
      4646        39  CHL1      C5             27.4035060487        3.9294470324       15.2030843123  MEMB      39              0.0000000000
      4647        39  CHL1      C6             28.3519920336        3.1638594246       14.6986175429  MEMB      39              0.0000000000
      4648        39  CHL1      H6             29.1052864989        2.6620700930       15.3323862684  MEMB      39              0.0000000000
      4649        39  CHL1      C7             28.4701122534        3.0669533582       13.2326434314  MEMB      39              0.0000000000
      4650        39  CHL1      H7A            29.4802532836        3.4038439158       12.9502549989  MEMB      39              0.0000000000
      4651        39  CHL1      H7B            28.2431561546        2.0179446201       13.1316700485  MEMB      39              0.0000000000
      4652        39  CHL1      C8             27.6011096784        3.8865882540       12.2497005137  MEMB      39              0.0000000000
      4653        39  CHL1      H8             28.0665794761        4.8848489312       12.2391382711  MEMB      39              0.0000000000
      4654        39  CHL1      C14            27.5875886716        3.4608851693       10.7522946245  MEMB      39              0.0000000000
      4655        39  CHL1      H14            27.0261621682        2.4839119133       10.7277270603  MEMB      39              0.0000000000
      4656        39  CHL1      C15            28.9394904356        3.4133077100        9.9283942517  MEMB      39              0.0000000000
      4657        39  CHL1      H15A           29.6134957693        4.2136110310       10.2522702285  MEMB      39              0.0000000000
      4658        39  CHL1      H15B           29.6648887008        2.6089611896        9.9181903307  MEMB      39              0.0000000000
      4659        39  CHL1      C16            28.5144289162        3.3215881509        8.4696773252  MEMB      39              0.0000000000
      4660        39  CHL1      H16A           29.1562598798        4.0204666933        7.9017252869  MEMB      39              0.0000000000
      4661        39  CHL1      H16B           28.6540975049        2.2964255343        8.0507622557  MEMB      39              0.0000000000
      4662        39  CHL1      C17            27.0006098245        3.6523846231        8.4803887599  MEMB      39              0.0000000000
      4663        39  CHL1      H17            26.4503420044        2.6865501004        8.5058354219  MEMB      39              0.0000000000
      4664        39  CHL1      C13            26.7506135030        4.3184125693        9.8542283954  MEMB      39              0.0000000000
      4665        39  CHL1      C18            27.4084272209        5.7052242923        9.7674964296  MEMB      39              0.0000000000
      4666        39  CHL1      H18A           28.4259596734        5.6681150772        9.3269487306  MEMB      39              0.0000000000
      4667        39  CHL1      H18B           26.8115609184        6.3160923777        9.0793196801  MEMB      39              0.0000000000
      4668        39  CHL1      H18C           27.4588010985        6.1955395954       10.7569080172  MEMB      39              0.0000000000
      4669        39  CHL1      C12            25.3228677606        4.3283172886       10.4245488017  MEMB      39              0.0000000000
      4670        39  CHL1      H12A           24.7009897560        5.0334596490        9.8417741109  MEMB      39              0.0000000000
      4671        39  CHL1      H12B           24.8768364534        3.3137853182       10.3391654821  MEMB      39              0.0000000000
      4672        39  CHL1      C11            25.2578376024        4.7334095604       11.9138861606  MEMB      39              0.0000000000
      4673        39  CHL1      H11A           25.4557825521        5.8234788618       11.9714175338  MEMB      39              0.0000000000
      4674        39  CHL1      H11B           24.2211409305        4.5315981011       12.2488573337  MEMB      39              0.0000000000
      4675        39  CHL1      C9             26.2224209130        3.9790999737       12.8663834865  MEMB      39              0.0000000000
      4676        39  CHL1      H9             25.8390042787        2.9312363099       12.9780530581  MEMB      39              0.0000000000
      4677        39  CHL1      C10            26.2984528531        4.5514308608       14.3255727839  MEMB      39              0.0000000000
      4678        39  CHL1      C19            26.5779693715        6.0668502400       14.2695774950  MEMB      39              0.0000000000
      4679        39  CHL1      H19A           25.6487519041        6.5652353100       13.9343462498  MEMB      39              0.0000000000
      4680        39  CHL1      H19B           26.7954249938        6.4629795924       15.2793116333  MEMB      39              0.0000000000
      4681        39  CHL1      H19C           27.4155488593        6.3467285663       13.6019279029  MEMB      39              0.0000000000
      4682        39  CHL1      C1             24.9361787518        4.3456265658       15.0416608088  MEMB      39              0.0000000000
      4683        39  CHL1      H1A            24.1527818645        4.9447811494       14.5347762716  MEMB      39              0.0000000000
      4684        39  CHL1      H1B            24.6559242160        3.2733331997       14.9925273904  MEMB      39              0.0000000000
      4685        39  CHL1      C2             24.9077587370        4.7595875589       16.5242212724  MEMB      39              0.0000000000
      4686        39  CHL1      H2A            23.9007183912        4.5186186668       16.9226401105  MEMB      39              0.0000000000
      4687        39  CHL1      H2B            25.0431592477        5.8606253034       16.6019543939  MEMB      39              0.0000000000
      4688        39  CHL1      C20            26.5771437314        4.3274770620        7.1832831551  MEMB      39              0.0000000000
      4689        39  CHL1      H20            27.1265865231        5.2926373482        7.0788603500  MEMB      39              0.0000000000
      4690        39  CHL1      C21            25.0571234951        4.5623858789        7.1904993718  MEMB      39              0.0000000000
      4691        39  CHL1      H21A           24.6850587218        4.7213077284        6.1624870240  MEMB      39              0.0000000000
      4692        39  CHL1      H21B           24.7940508173        5.4471706486        7.8022039878  MEMB      39              0.0000000000
      4693        39  CHL1      H21C           24.5173857298        3.6790477655        7.5864200852  MEMB      39              0.0000000000
      4694        39  CHL1      C22            26.9597375027        3.4570716500        5.9585860915  MEMB      39              0.0000000000
      4695        39  CHL1      H22A           28.0536783139        3.2536941540        5.9959512241  MEMB      39              0.0000000000
      4696        39  CHL1      H22B           26.3859165746        2.5075018643        5.9833876495  MEMB      39              0.0000000000
      4697        39  CHL1      C23            26.7667728682        4.1682729840        4.6227643801  MEMB      39              0.0000000000
      4698        39  CHL1      H23A           25.7270970091        4.5146603512        4.4799169048  MEMB      39              0.0000000000
      4699        39  CHL1      H23B           27.3971055770        5.0799491778        4.7065504346  MEMB      39              0.0000000000
      4700        39  CHL1      C24            27.1772308295        3.3625828378        3.3894619484  MEMB      39              0.0000000000
      4701        39  CHL1      H24A           28.1736365103        2.8821709495        3.5015677129  MEMB      39              0.0000000000
      4702        39  CHL1      H24B           26.4578964246        2.5525083270        3.1259094425  MEMB      39              0.0000000000
      4703        39  CHL1      C25            27.2806354975        4.2936660355        2.1997492054  MEMB      39              0.0000000000
      4704        39  CHL1      H25            26.3775010307        4.9452582495        2.1175969439  MEMB      39              0.0000000000
      4705        39  CHL1      C26            28.5579555331        5.1716958362        2.2628636111  MEMB      39              0.0000000000
      4706        39  CHL1      H26A           28.6913190103        5.8340465642        1.3814478111  MEMB      39              0.0000000000
      4707        39  CHL1      H26B           28.5348814924        5.8266081391        3.1530392762  MEMB      39              0.0000000000
      4708        39  CHL1      H26C           29.4539132834        4.5188239148        2.3243368976  MEMB      39              0.0000000000
      4709        39  CHL1      C27            27.3008184325        3.4550987788        0.9664895125  MEMB      39              0.0000000000
      4710        39  CHL1      H27A           27.9522695467        2.5523797562        0.9872711704  MEMB      39              0.0000000000
      4711        39  CHL1      H27B           26.3083907123        3.1889628667        0.5390243059  MEMB      39              0.0000000000
      4712        39  CHL1      H27C           27.7555422685        4.2176308517        0.3189753769  MEMB      39              0.0000000000
      4713        40  SAPE      N             -19.1780602117      -22.0213886448       22.3618526836  MEMB      40              0.0000000000
      4714        40  SAPE      HN1           -20.0641726786      -22.5618599887       22.4745974395  MEMB      40              0.0000000000
      4715        40  SAPE      HN2           -18.4319218249      -22.6649942020       22.0006448563  MEMB      40              0.0000000000
      4716        40  SAPE      HN3           -18.8763158700      -21.6359605946       23.2730027985  MEMB      40              0.0000000000
      4717        40  SAPE      C12           -19.2991651558      -20.8846756726       21.3843436490  MEMB      40              0.0000000000
      4718        40  SAPE      H12A          -19.6999571966      -19.9776218167       21.8857513235  MEMB      40              0.0000000000
      4719        40  SAPE      H12B          -19.9699818412      -21.2394047540       20.6019499752  MEMB      40              0.0000000000
      4720        40  SAPE      C11           -17.9660575940      -20.6072111244       20.7072684286  MEMB      40              0.0000000000
      4721        40  SAPE      H11A          -17.7339163560      -21.4290792271       19.9794462979  MEMB      40              0.0000000000
      4722        40  SAPE      H11B          -17.2015436036      -20.6421987654       21.5067095210  MEMB      40              0.0000000000
      4723        40  SAPE      P             -16.6649859465      -19.0901995801       19.1485142619  MEMB      40              0.0000000000
      4724        40  SAPE      O13           -16.5478538621      -17.6842602794       18.7095838776  MEMB      40              0.0000000000
      4725        40  SAPE      O14           -15.5602930256      -19.7113320499       19.9061987057  MEMB      40              0.0000000000
      4726        40  SAPE      O12           -17.9562476377      -19.3198314149       20.0750942315  MEMB      40              0.0000000000
      4727        40  SAPE      O11           -17.0171840719      -20.0089099008       17.9075865139  MEMB      40              0.0000000000
      4728        40  SAPE      C1            -18.1442965325      -19.6947954740       17.0971852636  MEMB      40              0.0000000000
      4729        40  SAPE      HA            -19.0971458490      -19.8175674466       17.6614692796  MEMB      40              0.0000000000
      4730        40  SAPE      HB            -18.0837841278      -18.6370561257       16.7510588112  MEMB      40              0.0000000000
      4731        40  SAPE      C2            -18.2008214422      -20.6110592340       15.8486626262  MEMB      40              0.0000000000
      4732        40  SAPE      HS            -18.4050490328      -21.6596677259       16.1729581494  MEMB      40              0.0000000000
      4733        40  SAPE      O21           -16.9742556743      -20.5258707516       15.1151730339  MEMB      40              0.0000000000
      4734        40  SAPE      C21           -16.0609651119      -21.3934755902       15.4631947935  MEMB      40              0.0000000000
      4735        40  SAPE      O22           -16.1167024890      -22.2569679665       16.3120946002  MEMB      40              0.0000000000
      4736        40  SAPE      C22           -14.8500876290      -21.1959308233       14.5904346094  MEMB      40              0.0000000000
      4737        40  SAPE      H2R           -14.7512206484      -20.0954799591       14.6040282624  MEMB      40              0.0000000000
      4738        40  SAPE      H2S           -13.9790233108      -21.7331293213       15.0184524083  MEMB      40              0.0000000000
      4739        40  SAPE      C3            -19.3528562830      -20.1721646948       14.9163293607  MEMB      40              0.0000000000
      4740        40  SAPE      HX            -19.3140035403      -19.0689223961       14.8169352872  MEMB      40              0.0000000000
      4741        40  SAPE      HY            -20.3211598006      -20.4140801026       15.4133777075  MEMB      40              0.0000000000
      4742        40  SAPE      O31           -19.2214436933      -20.6964563012       13.5827734540  MEMB      40              0.0000000000
      4743        40  SAPE      C31           -20.0389914339      -21.6608116875       13.2865648909  MEMB      40              0.0000000000
      4744        40  SAPE      O32           -20.7266882043      -22.3042183997       14.0555478123  MEMB      40              0.0000000000
      4745        40  SAPE      C32           -20.0499429830      -21.8184241698       11.8177142871  MEMB      40              0.0000000000
      4746        40  SAPE      H2X           -19.2531881837      -21.2470947859       11.2876990957  MEMB      40              0.0000000000
      4747        40  SAPE      H2Y           -21.0504832672      -21.6325489994       11.3825909267  MEMB      40              0.0000000000
      4748        40  SAPE      C23           -14.9310730793      -21.3067543096       13.0920911621  MEMB      40              0.0000000000
      4749        40  SAPE      H3R           -15.5689696249      -20.4245533756       12.8249668293  MEMB      40              0.0000000000
      4750        40  SAPE      H3S           -15.4142851682      -22.2435325559       12.8037629500  MEMB      40              0.0000000000
      4751        40  SAPE      C24           -13.5827909461      -21.2431134696       12.3748290100  MEMB      40              0.0000000000
      4752        40  SAPE      H4R           -13.8069096247      -21.3273833880       11.2995464004  MEMB      40              0.0000000000
      4753        40  SAPE      H4S           -12.8030877412      -21.9765058659       12.6529129748  MEMB      40              0.0000000000
      4754        40  SAPE      C25           -12.9736954782      -19.9352635213       12.4420242480  MEMB      40              0.0000000000
      4755        40  SAPE      H5R           -12.0447673081      -19.8940568020       13.0245349464  MEMB      40              0.0000000000
      4756        40  SAPE      C26           -13.5746772725      -18.8266246351       12.0314128817  MEMB      40              0.0000000000
      4757        40  SAPE      H6R           -12.9392345938      -17.9938340826       12.0479372092  MEMB      40              0.0000000000
      4758        40  SAPE      C27           -14.8631390367      -18.3897917027       11.4356613717  MEMB      40              0.0000000000
      4759        40  SAPE      H7R           -15.2717133547      -19.3237383215       11.0415379436  MEMB      40              0.0000000000
      4760        40  SAPE      H7S           -14.6140245466      -17.7492586920       10.5590384280  MEMB      40              0.0000000000
      4761        40  SAPE      C28           -15.8959405883      -17.6115533427       12.2610449426  MEMB      40              0.0000000000
      4762        40  SAPE      H8R           -15.6893055984      -16.7191560656       12.8269343312  MEMB      40              0.0000000000
      4763        40  SAPE      C29           -17.1970734231      -17.7338717552       12.1283519080  MEMB      40              0.0000000000
      4764        40  SAPE      H9R           -17.8703789976      -17.0072496159       12.6170838009  MEMB      40              0.0000000000
      4765        40  SAPE      C210          -17.7452221191      -18.6769333550       11.1338283169  MEMB      40              0.0000000000
      4766        40  SAPE      H10R          -18.8068441145      -18.7745333675       11.3828698978  MEMB      40              0.0000000000
      4767        40  SAPE      H10S          -17.2587684859      -19.6684765565       11.3049592030  MEMB      40              0.0000000000
      4768        40  SAPE      C211          -17.5285931621      -18.1528733165        9.7296738354  MEMB      40              0.0000000000
      4769        40  SAPE      H11R          -17.4662470154      -17.0584814044        9.6377537309  MEMB      40              0.0000000000
      4770        40  SAPE      C212          -17.3990461439      -18.9014750113        8.6261898276  MEMB      40              0.0000000000
      4771        40  SAPE      H12R          -17.0531348890      -18.4449750439        7.6886833084  MEMB      40              0.0000000000
      4772        40  SAPE      C213          -17.4475112012      -20.3951474315        8.5632357920  MEMB      40              0.0000000000
      4773        40  SAPE      H13R          -17.9359093560      -20.6952840061        7.6123172525  MEMB      40              0.0000000000
      4774        40  SAPE      H13S          -18.0696129561      -20.8199218685        9.3794207788  MEMB      40              0.0000000000
      4775        40  SAPE      C214          -16.0678000168      -20.9724782148        8.6631865175  MEMB      40              0.0000000000
      4776        40  SAPE      H14R          -15.9119820983      -21.6117966413        9.5434058780  MEMB      40              0.0000000000
      4777        40  SAPE      C215          -15.0946968713      -20.8544652949        7.7610717681  MEMB      40              0.0000000000
      4778        40  SAPE      H15R          -14.1211033266      -21.3255544980        7.9781395481  MEMB      40              0.0000000000
      4779        40  SAPE      C216          -15.1914333283      -20.1082929362        6.4463882380  MEMB      40              0.0000000000
      4780        40  SAPE      H16R          -14.9720621918      -19.0179183815        6.5573105811  MEMB      40              0.0000000000
      4781        40  SAPE      H16S          -16.1329255813      -20.2785566629        5.8937116518  MEMB      40              0.0000000000
      4782        40  SAPE      C217          -14.1041211694      -20.6141039349        5.5478908268  MEMB      40              0.0000000000
      4783        40  SAPE      H17R          -13.2911018900      -20.4116636022        6.2574594689  MEMB      40              0.0000000000
      4784        40  SAPE      H17S          -13.9030612464      -19.9474529628        4.6913962648  MEMB      40              0.0000000000
      4785        40  SAPE      C218          -14.2465072446      -22.0871481623        5.1350235031  MEMB      40              0.0000000000
      4786        40  SAPE      H18R          -14.2390250647      -22.7329065676        6.0306735339  MEMB      40              0.0000000000
      4787        40  SAPE      H18S          -13.3979059359      -22.5118901409        4.5500524983  MEMB      40              0.0000000000
      4788        40  SAPE      C219          -15.4043431134      -22.3863193609        4.2467995681  MEMB      40              0.0000000000
      4789        40  SAPE      H19R          -16.3096818317      -22.4345522178        4.8738797810  MEMB      40              0.0000000000
      4790        40  SAPE      H19S          -15.0894120721      -23.3418955078        3.8557589644  MEMB      40              0.0000000000
      4791        40  SAPE      C220          -15.5856072979      -21.5626221467        2.9951295833  MEMB      40              0.0000000000
      4792        40  SAPE      H20R          -14.6658561295      -21.4880859932        2.3984013946  MEMB      40              0.0000000000
      4793        40  SAPE      H20S          -15.9269066132      -20.5589271088        3.2955254164  MEMB      40              0.0000000000
      4794        40  SAPE      H20T          -16.2928753890      -22.0666082709        2.3101477587  MEMB      40              0.0000000000
      4795        40  SAPE      C33           -19.7464508948      -23.2241220613       11.5230807557  MEMB      40              0.0000000000
      4796        40  SAPE      H3X           -20.1064418538      -23.1009125324       10.4932250150  MEMB      40              0.0000000000
      4797        40  SAPE      H3Y           -20.2403757775      -24.0159894679       12.1188744455  MEMB      40              0.0000000000
      4798        40  SAPE      C34           -18.2929863499      -23.3646557645       11.5104396542  MEMB      40              0.0000000000
      4799        40  SAPE      H4X           -17.9420427805      -23.4703960362       12.5639485582  MEMB      40              0.0000000000
      4800        40  SAPE      H4Y           -17.7861981464      -22.6255929196       10.8625345301  MEMB      40              0.0000000000
      4801        40  SAPE      C35           -17.7608325949      -24.5695744561       10.9971171086  MEMB      40              0.0000000000
      4802        40  SAPE      H5X           -17.9614600912      -25.3473447225       11.7312716228  MEMB      40              0.0000000000
      4803        40  SAPE      H5Y           -16.6752551180      -24.3775715235       10.9860942827  MEMB      40              0.0000000000
      4804        40  SAPE      C36           -17.8552761343      -24.9490449308        9.6179789762  MEMB      40              0.0000000000
      4805        40  SAPE      H6X           -18.7930175358      -25.4577343217        9.5895105294  MEMB      40              0.0000000000
      4806        40  SAPE      H6Y           -17.7629988730      -25.9320801337        9.1900473130  MEMB      40              0.0000000000
      4807        40  SAPE      C37           -17.1794819787      -24.0157590893        8.6127638088  MEMB      40              0.0000000000
      4808        40  SAPE      H7X           -16.0771516303      -24.0517227072        8.4559985957  MEMB      40              0.0000000000
      4809        40  SAPE      H7Y           -17.4725721002      -22.9717934546        8.7428348704  MEMB      40              0.0000000000
      4810        40  SAPE      C38           -17.6600158962      -24.5261521744        7.2712751291  MEMB      40              0.0000000000
      4811        40  SAPE      H8X           -17.8238803629      -25.5644946423        7.2670295353  MEMB      40              0.0000000000
      4812        40  SAPE      H8Y           -17.0906683851      -23.7130300522        6.7448009135  MEMB      40              0.0000000000
      4813        40  SAPE      C39           -20.3939880290      -24.1863969022        6.0010617819  MEMB      40              0.0000000000
      4814        40  SAPE      H9X           -19.9480078942      -25.1493491825        6.2648424674  MEMB      40              0.0000000000
      4815        40  SAPE      H9Y           -20.8775633758      -25.0067002954        5.6681002504  MEMB      40              0.0000000000
      4816        40  SAPE      C310          -20.9049113715      -22.6401939096        6.3404417782  MEMB      40              0.0000000000
      4817        40  SAPE      H10X          -20.5389490168      -22.0140296454        7.2709650445  MEMB      40              0.0000000000
      4818        40  SAPE      H10Y          -21.7596900267      -22.6423324934        7.0139197021  MEMB      40              0.0000000000
      4819        40  SAPE      C311          -19.9445144033      -21.6939962542        5.6754629653  MEMB      40              0.0000000000
      4820        40  SAPE      H11X          -18.8428486396      -21.7554944116        5.9356263581  MEMB      40              0.0000000000
      4821        40  SAPE      H11Y          -20.2382811955      -20.6730994329        5.9777315767  MEMB      40              0.0000000000
      4822        40  SAPE      C312          -20.2280457391      -22.1480161130        4.2763362607  MEMB      40              0.0000000000
      4823        40  SAPE      H12X          -21.2997648394      -22.4283009468        4.2125262034  MEMB      40              0.0000000000
      4824        40  SAPE      H12Y          -19.8245339694      -23.0636505652        3.8851845465  MEMB      40              0.0000000000
      4825        40  SAPE      C313          -19.5790373671      -21.3157862193        3.2519496383  MEMB      40              0.0000000000
      4826        40  SAPE      H13X          -20.0738021102      -21.6582759785        2.3151509679  MEMB      40              0.0000000000
      4827        40  SAPE      H13Y          -18.4807476377      -21.4569064996        3.2471694475  MEMB      40              0.0000000000
      4828        40  SAPE      C314          -19.7963404056      -19.9019653170        3.5408251479  MEMB      40              0.0000000000
      4829        40  SAPE      H14X          -19.3591477054      -19.2962343374        2.7296701666  MEMB      40              0.0000000000
      4830        40  SAPE      H14Y          -19.3505402154      -19.5404583761        4.5033052199  MEMB      40              0.0000000000
      4831        40  SAPE      C315          -21.2692991599      -19.7503561158        3.5796591520  MEMB      40              0.0000000000
      4832        40  SAPE      H15X          -21.1360921778      -18.8433515780        4.1755656107  MEMB      40              0.0000000000
      4833        40  SAPE      H15Y          -21.9199271054      -20.3174048923        4.2802696036  MEMB      40              0.0000000000
      4834        40  SAPE      C316          -21.8954869459      -19.7193956339        2.1709496448  MEMB      40              0.0000000000
      4835        40  SAPE      H16X          -22.9764983635      -19.5400516529        2.4028983027  MEMB      40              0.0000000000
      4836        40  SAPE      H16Y          -22.0758066837      -20.7243427182        1.7499722501  MEMB      40              0.0000000000
      4837        40  SAPE      C317          -21.1724292591      -18.7840311080        1.0611966544  MEMB      40              0.0000000000
      4838        40  SAPE      H17X          -21.9265761390      -18.6501926135        0.2294955277  MEMB      40              0.0000000000
      4839        40  SAPE      H17Y          -20.3416309559      -19.3421604931        0.6251887536  MEMB      40              0.0000000000
      4840        40  SAPE      C318          -20.5258749527      -17.3640134463        1.3716394307  MEMB      40              0.0000000000
      4841        40  SAPE      H18X          -21.0414445610      -16.5666639675        1.9021502817  MEMB      40              0.0000000000
      4842        40  SAPE      H18Y          -20.4308903409      -16.6816259861        0.5023119471  MEMB      40              0.0000000000
      4843        40  SAPE      H18Z          -19.8552712468      -17.3650786972        2.2330321277  MEMB      40              0.0000000000
      4844        41  OSM       N             -22.8497003844      -12.3340998174       20.9321995520  MEMB      41              0.0000000000
      4845        41  OSM       C15           -21.3548496660      -12.4394894069       21.0439838131  MEMB      41              0.0000000000
      4846        41  OSM       H15A          -20.9058250659      -12.1895708128       20.0852294847  MEMB      41              0.0000000000
      4847        41  OSM       H15B          -21.0117254800      -13.4374699470       21.3198299346  MEMB      41              0.0000000000
      4848        41  OSM       H15C          -20.9993031765      -11.7254716613       21.7742814363  MEMB      41              0.0000000000
      4849        41  OSM       C14           -23.5125591277      -12.8260901895       22.1989494945  MEMB      41              0.0000000000
      4850        41  OSM       H14A          -24.5464941994      -12.5121820961       22.2635238866  MEMB      41              0.0000000000
      4851        41  OSM       H14B          -22.9890771281      -12.5180649235       23.0959947627  MEMB      41              0.0000000000
      4852        41  OSM       H14C          -23.5616741644      -13.9233424278       22.2038993807  MEMB      41              0.0000000000
      4853        41  OSM       C13           -23.1411299310      -10.8930333969       20.7422683096  MEMB      41              0.0000000000
      4854        41  OSM       H13A          -24.1730757828      -10.7066177052       20.4926720270  MEMB      41              0.0000000000
      4855        41  OSM       H13B          -22.5336831959      -10.4546295713       19.9556627362  MEMB      41              0.0000000000
      4856        41  OSM       H13C          -22.9449504569      -10.3684633190       21.6715755307  MEMB      41              0.0000000000
      4857        41  OSM       C12           -23.3846650451      -13.0642764818       19.7263825416  MEMB      41              0.0000000000
      4858        41  OSM       H12A          -22.9120291476      -12.6863386036       18.8277792464  MEMB      41              0.0000000000
      4859        41  OSM       H12B          -24.4460527104      -12.8591159860       19.6433344679  MEMB      41              0.0000000000
      4860        41  OSM       C11           -23.2973071255      -14.5909278131       19.6999778411  MEMB      41              0.0000000000
      4861        41  OSM       H11A          -22.2697930469      -14.9348496451       19.9575821111  MEMB      41              0.0000000000
      4862        41  OSM       H11B          -23.5035576390      -14.8419327624       18.6310729573  MEMB      41              0.0000000000
      4863        41  OSM       P             -24.1220041847      -16.4118233101       21.4979932738  MEMB      41              0.0000000000
      4864        41  OSM       O13           -22.9660376452      -16.1840898865       22.3991768057  MEMB      41              0.0000000000
      4865        41  OSM       O14           -25.4572347072      -16.6341354929       22.1198931074  MEMB      41              0.0000000000
      4866        41  OSM       O11           -23.6244090212      -17.6025109345       20.5773852057  MEMB      41              0.0000000000
      4867        41  OSM       O12           -24.3118415889      -15.1224556097       20.5424795966  MEMB      41              0.0000000000
      4868        41  OSM       C1S           -24.5077472623      -18.3037215780       19.7607161304  MEMB      41              0.0000000000
      4869        41  OSM       H1S           -25.5663402392      -18.0826686211       20.1248574962  MEMB      41              0.0000000000
      4870        41  OSM       H1T           -24.6230909637      -19.3943512426       19.7713612849  MEMB      41              0.0000000000
      4871        41  OSM       NF            -25.3014972246      -18.4806053003       17.6028622888  MEMB      41              0.0000000000
      4872        41  OSM       HNF           -25.2488419890      -18.8231723228       16.6965419825  MEMB      41              0.0000000000
      4873        41  OSM       C2S           -24.1635617118      -17.9788582944       18.2617169103  MEMB      41              0.0000000000
      4874        41  OSM       H2S           -23.9244874486      -16.8666758749       18.1033549315  MEMB      41              0.0000000000
      4875        41  OSM       C3S           -22.9845877418      -18.6447475496       17.6357998562  MEMB      41              0.0000000000
      4876        41  OSM       H3S           -23.1967436221      -19.7246886750       17.6771459368  MEMB      41              0.0000000000
      4877        41  OSM       O3            -21.8106591808      -18.3944739114       18.3422302822  MEMB      41              0.0000000000
      4878        41  OSM       HO3           -22.1909902339      -17.9288989590       19.0952077372  MEMB      41              0.0000000000
      4879        41  OSM       C4S           -22.7429094341      -18.1959415726       16.2085614108  MEMB      41              0.0000000000
      4880        41  OSM       H4S           -22.4143045067      -17.1775065628       16.0104315648  MEMB      41              0.0000000000
      4881        41  OSM       C5S           -22.9311952508      -19.0256306128       15.1970706631  MEMB      41              0.0000000000
      4882        41  OSM       H5S           -23.4181468752      -19.9210494738       15.5260744904  MEMB      41              0.0000000000
      4883        41  OSM       C6S           -22.7014996560      -18.8123045122       13.7300206500  MEMB      41              0.0000000000
      4884        41  OSM       H6S           -22.6318621617      -19.7785506747       13.1590095885  MEMB      41              0.0000000000
      4885        41  OSM       H6T           -21.8032329513      -18.2079098508       13.5659340276  MEMB      41              0.0000000000
      4886        41  OSM       C7S           -23.5839132263      -17.9116881291       12.9864489835  MEMB      41              0.0000000000
      4887        41  OSM       H7S           -23.9975219192      -17.1784426398       13.7270529170  MEMB      41              0.0000000000
      4888        41  OSM       H7T           -24.1711826395      -18.8034609819       12.6878014518  MEMB      41              0.0000000000
      4889        41  OSM       C8S           -23.0124161692      -17.2428408043       11.7530089553  MEMB      41              0.0000000000
      4890        41  OSM       H8S           -22.6537052299      -18.0426652724       11.0926612332  MEMB      41              0.0000000000
      4891        41  OSM       H8T           -22.3452320341      -16.4542438328       12.1440463072  MEMB      41              0.0000000000
      4892        41  OSM       C9S           -23.8104333536      -16.4878082088       10.7561438985  MEMB      41              0.0000000000
      4893        41  OSM       H9S           -23.4198636518      -15.6168271125       10.1973751063  MEMB      41              0.0000000000
      4894        41  OSM       H9T           -24.2217981660      -15.7916469267       11.5106226288  MEMB      41              0.0000000000
      4895        41  OSM       C10S          -24.6221482982      -17.4708196152        9.8144131181  MEMB      41              0.0000000000
      4896        41  OSM       H10S          -25.2014898435      -16.8262375447        9.2223011769  MEMB      41              0.0000000000
      4897        41  OSM       H10T          -25.4981564446      -18.0753750455       10.0586262719  MEMB      41              0.0000000000
      4898        41  OSM       C11S          -24.0904302811      -17.9752565216        8.5840608762  MEMB      41              0.0000000000
      4899        41  OSM       H11S          -24.9634717578      -18.3937065607        7.9957605951  MEMB      41              0.0000000000
      4900        41  OSM       H11T          -23.4918909143      -18.7528912474        9.0671436872  MEMB      41              0.0000000000
      4901        41  OSM       C12S          -23.4201457297      -16.8134594721        7.8945816877  MEMB      41              0.0000000000
      4902        41  OSM       H12S          -22.5993884206      -16.3938938585        8.5017742113  MEMB      41              0.0000000000
      4903        41  OSM       H12T          -24.0621872461      -15.9325856333        7.7013858191  MEMB      41              0.0000000000
      4904        41  OSM       C13S          -22.9892725246      -17.3668672469        6.5881447136  MEMB      41              0.0000000000
      4905        41  OSM       H13S          -23.9149875397      -17.7708293021        6.1060877778  MEMB      41              0.0000000000
      4906        41  OSM       H13T          -22.3217873400      -18.2180585002        6.8417050197  MEMB      41              0.0000000000
      4907        41  OSM       C14S          -22.3242015781      -16.2804702206        5.7624232499  MEMB      41              0.0000000000
      4908        41  OSM       H14S          -21.2211549618      -16.4029495265        5.7986404158  MEMB      41              0.0000000000
      4909        41  OSM       H14T          -22.6019509630      -15.2878317068        6.1679581907  MEMB      41              0.0000000000
      4910        41  OSM       C15S          -22.9264346830      -16.1351991976        4.3873026139  MEMB      41              0.0000000000
      4911        41  OSM       H15S          -22.6416863767      -15.2295737219        3.8159767232  MEMB      41              0.0000000000
      4912        41  OSM       H15T          -24.0056754805      -16.3232878378        4.4301021389  MEMB      41              0.0000000000
      4913        41  OSM       C16S          -22.5411777732      -17.1860617188        3.5045425309  MEMB      41              0.0000000000
      4914        41  OSM       H16S          -22.8740917828      -18.1174203150        4.0238930884  MEMB      41              0.0000000000
      4915        41  OSM       H16T          -21.4275822558      -17.1080778437        3.6121075825  MEMB      41              0.0000000000
      4916        41  OSM       C17S          -23.2891769548      -17.0808086009        2.1403303261  MEMB      41              0.0000000000
      4917        41  OSM       H17S          -24.1036839682      -17.7589004910        2.1291025582  MEMB      41              0.0000000000
      4918        41  OSM       H17T          -23.0664652855      -17.8927556465        1.5427477972  MEMB      41              0.0000000000
      4919        41  OSM       C18S          -23.1052348442      -16.0816462895        0.9653098846  MEMB      41              0.0000000000
      4920        41  OSM       H18S          -23.8694359321      -15.3572360235        1.1830538236  MEMB      41              0.0000000000
      4921        41  OSM       H18T          -23.0792425533      -16.6070564552       -0.0403030848  MEMB      41              0.0000000000
      4922        41  OSM       H18U          -22.1879019119      -15.4743088399        0.9160172373  MEMB      41              0.0000000000
      4923        41  OSM       C1F           -26.4225070022      -17.9198751159       17.8035541789  MEMB      41              0.0000000000
      4924        41  OSM       OF            -26.0473378287      -16.9352258955       18.5674928102  MEMB      41              0.0000000000
      4925        41  OSM       C2F           -28.4063733191      -17.9002343393       16.4681791059  MEMB      41              0.0000000000
      4926        41  OSM       H2F           -29.0980259344      -17.0383653029       16.5221724493  MEMB      41              0.0000000000
      4927        41  OSM       H2G           -28.6494081131      -18.8166765929       16.6222440120  MEMB      41              0.0000000000
      4928        41  OSM       C3F           -28.8515108266      -16.5827891968       15.1839333537  MEMB      41              0.0000000000
      4929        41  OSM       H3F           -28.6310390966      -15.4363626049       15.2575864588  MEMB      41              0.0000000000
      4930        41  OSM       H3G           -29.8442977750      -16.4989720903       14.9291249761  MEMB      41              0.0000000000
      4931        41  OSM       C4F           -27.9933822934      -16.1623004382       14.0996309979  MEMB      41              0.0000000000
      4932        41  OSM       H4F           -27.7877107268      -17.0739959123       13.7298282710  MEMB      41              0.0000000000
      4933        41  OSM       H4G           -26.9052392211      -15.8099823430       14.1927646019  MEMB      41              0.0000000000
      4934        41  OSM       C5F           -28.8576842836      -16.0043869434       13.0088292125  MEMB      41              0.0000000000
      4935        41  OSM       H5F           -29.5342934090      -16.8678061830       13.0181718441  MEMB      41              0.0000000000
      4936        41  OSM       H5G           -28.7893109068      -16.4469953983       12.0497660186  MEMB      41              0.0000000000
      4937        41  OSM       C6F           -28.6811285742      -14.5662300629       12.9166368046  MEMB      41              0.0000000000
      4938        41  OSM       H6F           -27.5388027464      -14.4195661809       12.9244714862  MEMB      41              0.0000000000
      4939        41  OSM       H6G           -28.9954831087      -14.1051795049       13.8322092918  MEMB      41              0.0000000000
      4940        41  OSM       C7F           -29.3545098497      -14.0472255098       11.7022991524  MEMB      41              0.0000000000
      4941        41  OSM       H7F           -30.4028288274      -14.0962861785       11.5032973610  MEMB      41              0.0000000000
      4942        41  OSM       H7G           -29.4692893349      -14.9297322712       11.0524279902  MEMB      41              0.0000000000
      4943        41  OSM       C8F           -28.4855137807      -12.8984663433       11.1693977685  MEMB      41              0.0000000000
      4944        41  OSM       H8F           -28.7280969393      -12.1545143214       11.9190598639  MEMB      41              0.0000000000
      4945        41  OSM       H8G           -29.0073401434      -12.7377492093       10.2063202273  MEMB      41              0.0000000000
      4946        41  OSM       C9F           -26.9719953741      -13.0947948108       11.0691305782  MEMB      41              0.0000000000
      4947        41  OSM       H9F           -26.3286483778      -12.7922296590       11.9301465218  MEMB      41              0.0000000000
      4948        41  OSM       C10F          -26.3792117007      -13.2403592789        9.8924615673  MEMB      41              0.0000000000
      4949        41  OSM       H10F          -25.2292272069      -13.2736520572        9.9178035773  MEMB      41              0.0000000000
      4950        41  OSM       C11F          -27.2368121120      -13.0419053644        8.5121128536  MEMB      41              0.0000000000
      4951        41  OSM       H11F          -28.3180801618      -12.8364181794        8.4756301937  MEMB      41              0.0000000000
      4952        41  OSM       H11G          -26.8931366349      -13.7251424852        7.9383131797  MEMB      41              0.0000000000
      4953        41  OSM       C12F          -26.9492676136      -12.7441534054        6.9412963855  MEMB      41              0.0000000000
      4954        41  OSM       H12F          -27.4063111528      -11.7899701195        6.6163213787  MEMB      41              0.0000000000
      4955        41  OSM       H12G          -27.7013205343      -13.0644125542        6.1913953564  MEMB      41              0.0000000000
      4956        41  OSM       C13F          -25.4149707570      -13.1301688941        6.6496425629  MEMB      41              0.0000000000
      4957        41  OSM       H13F          -24.4119978284      -12.8435714890        7.0413870751  MEMB      41              0.0000000000
      4958        41  OSM       H13G          -24.7922680115      -12.2192707946        6.7532834832  MEMB      41              0.0000000000
      4959        41  OSM       C14F          -25.1108861820      -14.0261388532        5.5578581614  MEMB      41              0.0000000000
      4960        41  OSM       H14F          -24.9666356177      -14.8133015662        6.3050233603  MEMB      41              0.0000000000
      4961        41  OSM       H14G          -24.1111252395      -13.9371777977        5.1122937894  MEMB      41              0.0000000000
      4962        41  OSM       C15F          -26.1794125439      -14.2348492951        4.5059985895  MEMB      41              0.0000000000
      4963        41  OSM       H15F          -27.2480377900      -14.3414759407        4.8118334468  MEMB      41              0.0000000000
      4964        41  OSM       H15G          -25.7333576007      -15.1918033313        4.1546294703  MEMB      41              0.0000000000
      4965        41  OSM       C16F          -26.1631544873      -13.5411221575        3.2498221242  MEMB      41              0.0000000000
      4966        41  OSM       H16F          -25.1511982831      -13.6226601972        2.8149898144  MEMB      41              0.0000000000
      4967        41  OSM       H16G          -26.4733600500      -12.5572267197        3.4572075404  MEMB      41              0.0000000000
      4968        41  OSM       C17F          -27.2847457942      -13.6905882286        2.3391659819  MEMB      41              0.0000000000
      4969        41  OSM       H17F          -27.3699835740      -12.7644303465        1.8351174531  MEMB      41              0.0000000000
      4970        41  OSM       H17G          -28.2773164041      -13.9742420411        2.7992079511  MEMB      41              0.0000000000
      4971        41  OSM       C18F          -26.7010550215      -14.3385116480        1.1748943643  MEMB      41              0.0000000000
      4972        41  OSM       H18F          -25.6896233033      -14.6839460785        1.3308856168  MEMB      41              0.0000000000
      4973        41  OSM       H18G          -27.0167724391      -14.6612785829        0.2051284764  MEMB      41              0.0000000000
      4974        41  OSM       H18H          -27.5537854191      -14.9672706852        1.4759547955  MEMB      41              0.0000000000
      4975        42  SOPE      N              16.8255117699      -21.6909829673       20.7835825738  MEMB      42              0.0000000000
      4976        42  SOPE      HN1            16.1425678850      -22.3310943839       21.2414777690  MEMB      42              0.0000000000
      4977        42  SOPE      HN2            16.3928495008      -20.7740008101       20.5569368049  MEMB      42              0.0000000000
      4978        42  SOPE      HN3            17.1748885799      -22.1310836248       19.9154024349  MEMB      42              0.0000000000
      4979        42  SOPE      C12            18.0479494214      -21.5651988781       21.6544590653  MEMB      42              0.0000000000
      4980        42  SOPE      H12A           18.4371786177      -22.5884105447       21.8457116217  MEMB      42              0.0000000000
      4981        42  SOPE      H12B           17.7285899025      -21.1279333968       22.6195604850  MEMB      42              0.0000000000
      4982        42  SOPE      C11            19.1298223869      -20.7125340785       20.9813589603  MEMB      42              0.0000000000
      4983        42  SOPE      H11A           19.5028855176      -21.0879230052       20.0452291689  MEMB      42              0.0000000000
      4984        42  SOPE      H11B           20.0414862876      -20.7049871610       21.6439932580  MEMB      42              0.0000000000
      4985        42  SOPE      P              19.5150173112      -18.2281945297       20.9789649472  MEMB      42              0.0000000000
      4986        42  SOPE      O13            20.8455259844      -18.3869507898       20.3783512275  MEMB      42              0.0000000000
      4987        42  SOPE      O14            19.4222844733      -18.1729501011       22.4524508829  MEMB      42              0.0000000000
      4988        42  SOPE      O12            18.6065321053      -19.4562225495       20.5848988718  MEMB      42              0.0000000000
      4989        42  SOPE      O11            18.7518291492      -16.9939635158       20.3691435945  MEMB      42              0.0000000000
      4990        42  SOPE      C1             17.3441340323      -16.8599056410       20.5903121142  MEMB      42              0.0000000000
      4991        42  SOPE      HA             17.1446086396      -15.8865603966       21.0939234044  MEMB      42              0.0000000000
      4992        42  SOPE      HB             16.9512702876      -17.6109870706       21.3178039013  MEMB      42              0.0000000000
      4993        42  SOPE      C2             16.5748038167      -16.9590668419       19.2365805585  MEMB      42              0.0000000000
      4994        42  SOPE      HS             15.5773598433      -17.4135987849       19.4484675733  MEMB      42              0.0000000000
      4995        42  SOPE      O21            17.3548234294      -17.6962275810       18.2705482610  MEMB      42              0.0000000000
      4996        42  SOPE      C21            16.8229095980      -18.7722080957       17.7798805419  MEMB      42              0.0000000000
      4997        42  SOPE      O22            15.7076591483      -19.2094444924       18.0396228142  MEMB      42              0.0000000000
      4998        42  SOPE      C22            17.8275173295      -19.4922300698       16.8873240418  MEMB      42              0.0000000000
      4999        42  SOPE      H2R            18.4797336854      -20.1208904475       17.5283494607  MEMB      42              0.0000000000
      5000        42  SOPE      H2S            18.4671686289      -18.7434162944       16.3699978999  MEMB      42              0.0000000000
      5001        42  SOPE      C3             16.3477395329      -15.5461490319       18.6455318254  MEMB      42              0.0000000000
      5002        42  SOPE      HX             17.3396397138      -15.0666265373       18.4934513160  MEMB      42              0.0000000000
      5003        42  SOPE      HY             15.7777281912      -14.9629247925       19.4026068624  MEMB      42              0.0000000000
      5004        42  SOPE      O31            15.5612761468      -15.5860024401       17.4514501641  MEMB      42              0.0000000000
      5005        42  SOPE      C31            16.0779691347      -15.2062109857       16.3043900043  MEMB      42              0.0000000000
      5006        42  SOPE      O32            17.2270488274      -14.9138496940       16.0468935589  MEMB      42              0.0000000000
      5007        42  SOPE      C32            14.9481050134      -15.1451673832       15.3145985316  MEMB      42              0.0000000000
      5008        42  SOPE      H2X            14.8698161374      -14.1615795501       14.8706219032  MEMB      42              0.0000000000
      5009        42  SOPE      H2Y            13.9717425144      -15.4138471867       15.7701941586  MEMB      42              0.0000000000
      5010        42  SOPE      C23            17.0782822522      -20.3970857476       15.8944908238  MEMB      42              0.0000000000
      5011        42  SOPE      H3R            16.5117875599      -19.7693117088       15.1730716828  MEMB      42              0.0000000000
      5012        42  SOPE      H3S            16.3401472446      -21.0493537119       16.4171866828  MEMB      42              0.0000000000
      5013        42  SOPE      C24            18.0195474457      -21.3132576973       15.1373088415  MEMB      42              0.0000000000
      5014        42  SOPE      H4R            18.4996100489      -22.0294468292       15.8389171008  MEMB      42              0.0000000000
      5015        42  SOPE      H4S            17.4356479281      -21.9229786020       14.4104912351  MEMB      42              0.0000000000
      5016        42  SOPE      C25            19.1037105972      -20.6015095334       14.3243272807  MEMB      42              0.0000000000
      5017        42  SOPE      H5R            19.9248739869      -20.1936422613       14.9603132130  MEMB      42              0.0000000000
      5018        42  SOPE      H5S            19.4193338856      -21.4695930414       13.7147474405  MEMB      42              0.0000000000
      5019        42  SOPE      C26            18.6506690100      -19.5154386907       13.3460412575  MEMB      42              0.0000000000
      5020        42  SOPE      H6R            17.8675954669      -19.9218029815       12.6661217093  MEMB      42              0.0000000000
      5021        42  SOPE      H6S            18.2141224261      -18.6982105390       13.9597226209  MEMB      42              0.0000000000
      5022        42  SOPE      C27            19.7748039870      -18.8404061043       12.5329831628  MEMB      42              0.0000000000
      5023        42  SOPE      H7R            20.6699029291      -18.7163033620       13.1857712782  MEMB      42              0.0000000000
      5024        42  SOPE      H7S            20.0826029973      -19.4708650934       11.6716160360  MEMB      42              0.0000000000
      5025        42  SOPE      C28            19.2945057190      -17.4462743592       12.0661245302  MEMB      42              0.0000000000
      5026        42  SOPE      H8R            18.3361414212      -17.5719244374       11.5128372142  MEMB      42              0.0000000000
      5027        42  SOPE      H8S            19.0365499831      -16.8706033522       12.9880362254  MEMB      42              0.0000000000
      5028        42  SOPE      C29            20.2824960359      -16.6706883128       11.2311615642  MEMB      42              0.0000000000
      5029        42  SOPE      H91            21.0163628670      -17.2411378760       10.6474949509  MEMB      42              0.0000000000
      5030        42  SOPE      C210           20.2651515870      -15.3405042300       11.1112477578  MEMB      42              0.0000000000
      5031        42  SOPE      H101           20.9491802101      -14.8329012449       10.3977123873  MEMB      42              0.0000000000
      5032        42  SOPE      C211           19.2512189925      -14.4253194538       11.7847490637  MEMB      42              0.0000000000
      5033        42  SOPE      H11R           19.7794414229      -13.4807158178       12.1264075854  MEMB      42              0.0000000000
      5034        42  SOPE      H11S           18.6744366499      -14.8316455844       12.6232736053  MEMB      42              0.0000000000
      5035        42  SOPE      C212           18.1585163784      -13.9795925655       10.7887884299  MEMB      42              0.0000000000
      5036        42  SOPE      H12R           19.0366793700      -13.5532624662       10.3118528957  MEMB      42              0.0000000000
      5037        42  SOPE      H12S           17.6371801386      -13.0554077403       11.0347921977  MEMB      42              0.0000000000
      5038        42  SOPE      C213           17.2311497849      -14.9093526382        9.8427517345  MEMB      42              0.0000000000
      5039        42  SOPE      H13R           16.6676828565      -15.5815157541       10.4849480790  MEMB      42              0.0000000000
      5040        42  SOPE      H13S           17.9963277022      -15.6576640074        9.5028682756  MEMB      42              0.0000000000
      5041        42  SOPE      C214           16.1415998681      -14.3350308021        8.6166112752  MEMB      42              0.0000000000
      5042        42  SOPE      H14R           15.4313182779      -13.7509336653        9.1842739044  MEMB      42              0.0000000000
      5043        42  SOPE      H14S           15.7945893903      -15.3010096792        8.2090080293  MEMB      42              0.0000000000
      5044        42  SOPE      C215           16.3536797245      -13.3901047262        7.2111474646  MEMB      42              0.0000000000
      5045        42  SOPE      H15R           17.2633182780      -13.1665512372        6.6609103782  MEMB      42              0.0000000000
      5046        42  SOPE      H15S           16.6393454928      -12.4731799724        7.5179281294  MEMB      42              0.0000000000
      5047        42  SOPE      C216           15.7469969982      -13.0303735636        5.9886562296  MEMB      42              0.0000000000
      5048        42  SOPE      H16R           15.4058088312      -12.0931641552        6.3861900418  MEMB      42              0.0000000000
      5049        42  SOPE      H16S           15.2269174105      -13.9767542392        5.8837391428  MEMB      42              0.0000000000
      5050        42  SOPE      C217           16.5876228594      -12.3870478842        4.9231272065  MEMB      42              0.0000000000
      5051        42  SOPE      H17R           17.3519900415      -13.1036285533        4.9486650902  MEMB      42              0.0000000000
      5052        42  SOPE      H17S           17.0448778360      -11.3693587047        5.0586842272  MEMB      42              0.0000000000
      5053        42  SOPE      C218           15.7492345407      -12.5930520581        3.7516515259  MEMB      42              0.0000000000
      5054        42  SOPE      H18R           15.3109244661      -13.6271695337        3.8264636846  MEMB      42              0.0000000000
      5055        42  SOPE      H18S           16.1794585526      -12.3502617636        2.7762301614  MEMB      42              0.0000000000
      5056        42  SOPE      H18T           15.1180510349      -11.7758878147        4.0331750001  MEMB      42              0.0000000000
      5057        42  SOPE      C33            15.1362179552      -16.0657141569       14.1805338129  MEMB      42              0.0000000000
      5058        42  SOPE      H3X            15.1101271219      -17.0604257593       14.6475192669  MEMB      42              0.0000000000
      5059        42  SOPE      H3Y            16.1034785496      -15.9127583096       13.6514297879  MEMB      42              0.0000000000
      5060        42  SOPE      C34            13.9812925333      -15.7858426800       13.2647496831  MEMB      42              0.0000000000
      5061        42  SOPE      H4X            14.0012965502      -14.7730848836       12.8468086180  MEMB      42              0.0000000000
      5062        42  SOPE      H4Y            12.9856009519      -16.1281363757       13.6473678834  MEMB      42              0.0000000000
      5063        42  SOPE      C35            14.2450103379      -16.3957596754       12.0024096652  MEMB      42              0.0000000000
      5064        42  SOPE      H5X            14.2719584393      -17.4206487257       12.2922631334  MEMB      42              0.0000000000
      5065        42  SOPE      H5Y            15.2732593287      -16.3194317884       11.6200439594  MEMB      42              0.0000000000
      5066        42  SOPE      C36            13.1178428934      -16.2296286119       11.0169375010  MEMB      42              0.0000000000
      5067        42  SOPE      H6X            12.1058126278      -16.3908165373       11.4041838376  MEMB      42              0.0000000000
      5068        42  SOPE      H6Y            13.2981651863      -17.0948887193       10.4535482949  MEMB      42              0.0000000000
      5069        42  SOPE      C37            13.3330719758      -15.4162402372        9.7766521972  MEMB      42              0.0000000000
      5070        42  SOPE      H7X            14.2434961970      -15.7385759331        9.2464856997  MEMB      42              0.0000000000
      5071        42  SOPE      H7Y            13.5510518660      -14.4800264149       10.2621364098  MEMB      42              0.0000000000
      5072        42  SOPE      C38            12.1518418267      -15.3572038480        8.8064427614  MEMB      42              0.0000000000
      5073        42  SOPE      H8X            11.6934543798      -14.4112201677        9.0222880482  MEMB      42              0.0000000000
      5074        42  SOPE      H8Y            11.2940239894      -16.0291755203        8.9929481925  MEMB      42              0.0000000000
      5075        42  SOPE      C39            12.4655479602      -15.4577523809        7.3243330523  MEMB      42              0.0000000000
      5076        42  SOPE      H9X            13.4714747270      -15.1459821856        6.9647654804  MEMB      42              0.0000000000
      5077        42  SOPE      H9Y            11.6219857456      -15.1353158669        6.6723479156  MEMB      42              0.0000000000
      5078        42  SOPE      C310           12.3755232915      -16.8422137289        7.0400665631  MEMB      42              0.0000000000
      5079        42  SOPE      H10X           11.4174047471      -17.3002321579        7.3928975921  MEMB      42              0.0000000000
      5080        42  SOPE      H10Y           13.1806510959      -17.2792643866        7.5924818421  MEMB      42              0.0000000000
      5081        42  SOPE      C311           12.6610932602      -17.1708301339        5.6552644059  MEMB      42              0.0000000000
      5082        42  SOPE      H11X           11.8562272892      -16.9419176939        4.9349673457  MEMB      42              0.0000000000
      5083        42  SOPE      H11Y           12.2203304586      -18.1597418668        5.7677285147  MEMB      42              0.0000000000
      5084        42  SOPE      C312           14.2038609175      -16.9953163028        5.1920745242  MEMB      42              0.0000000000
      5085        42  SOPE      H12X           14.5332769525      -15.9736069409        5.0953829987  MEMB      42              0.0000000000
      5086        42  SOPE      H12Y           13.6985664174      -17.1622829554        4.2195136254  MEMB      42              0.0000000000
      5087        42  SOPE      C313           15.6150542048      -17.8556366141        5.5920725317  MEMB      42              0.0000000000
      5088        42  SOPE      H13X           15.6859394999      -18.9586154710        5.4733139008  MEMB      42              0.0000000000
      5089        42  SOPE      H13Y           15.8573558653      -17.8019381641        6.6545706107  MEMB      42              0.0000000000
      5090        42  SOPE      C314           16.8877023789      -18.0220919305        4.8156426146  MEMB      42              0.0000000000
      5091        42  SOPE      H14X           16.8437800342      -18.3805236251        3.7744908076  MEMB      42              0.0000000000
      5092        42  SOPE      H14Y           17.6316159174      -18.7300072133        5.3019383422  MEMB      42              0.0000000000
      5093        42  SOPE      C315           17.3383030965      -16.6992495257        4.9249154486  MEMB      42              0.0000000000
      5094        42  SOPE      H15X           17.4609137948      -16.6450708107        6.0368802368  MEMB      42              0.0000000000
      5095        42  SOPE      H15Y           16.6256482806      -15.8841582560        4.6582442878  MEMB      42              0.0000000000
      5096        42  SOPE      C316           18.5060682083      -16.8197407319        4.0165317122  MEMB      42              0.0000000000
      5097        42  SOPE      H16X           19.3027570901      -17.5491302810        4.1657468463  MEMB      42              0.0000000000
      5098        42  SOPE      H16Y           18.9980090524      -16.0583780248        4.5855215236  MEMB      42              0.0000000000
      5099        42  SOPE      C317           18.1241505271      -16.6473807703        2.4842889343  MEMB      42              0.0000000000
      5100        42  SOPE      H17X           17.3261344169      -15.8599732479        2.4718584045  MEMB      42              0.0000000000
      5101        42  SOPE      H17Y           17.6303800316      -17.5866907770        2.1941961544  MEMB      42              0.0000000000
      5102        42  SOPE      C318           19.1439552715      -16.4004561882        1.2959829322  MEMB      42              0.0000000000
      5103        42  SOPE      H18X           18.7168818753      -15.7271904723        0.5096659497  MEMB      42              0.0000000000
      5104        42  SOPE      H18Y           19.9574705294      -17.1177855428        1.1605856269  MEMB      42              0.0000000000
      5105        42  SOPE      H18Z           19.9156145196      -15.6568035536        1.3155806421  MEMB      42              0.0000000000
      5106        43  CHL1      C3             -4.4428382488       26.8887693504       17.3651922044  MEMB      43              0.0000000000
      5107        43  CHL1      H3             -3.7864556931       26.0369129106       17.0552173396  MEMB      43              0.0000000000
      5108        43  CHL1      O3             -4.1350879770       27.2400878183       18.7022087459  MEMB      43              0.0000000000
      5109        43  CHL1      H3'            -4.3894935532       26.4617944174       19.1898046723  MEMB      43              0.0000000000
      5110        43  CHL1      C4             -4.1951735879       28.1086435807       16.4641146209  MEMB      43              0.0000000000
      5111        43  CHL1      H4A            -4.7037668962       28.9912647389       16.9052820370  MEMB      43              0.0000000000
      5112        43  CHL1      H4B            -3.1072227948       28.3445133777       16.5542772276  MEMB      43              0.0000000000
      5113        43  CHL1      C5             -4.6326163437       27.8761187307       15.0238417510  MEMB      43              0.0000000000
      5114        43  CHL1      C6             -3.8115228743       28.1218469820       13.9973322510  MEMB      43              0.0000000000
      5115        43  CHL1      H6             -2.8573605875       28.6214438430       14.1984008013  MEMB      43              0.0000000000
      5116        43  CHL1      C7             -4.1289816806       27.8579012905       12.5540017525  MEMB      43              0.0000000000
      5117        43  CHL1      H7A            -3.7330687044       28.6491350817       11.9026033145  MEMB      43              0.0000000000
      5118        43  CHL1      H7B            -3.5636202408       26.9579664292       12.2648424480  MEMB      43              0.0000000000
      5119        43  CHL1      C8             -5.6288061440       27.6501903802       12.2467440471  MEMB      43              0.0000000000
      5120        43  CHL1      H8             -6.1884704664       28.6034093392       12.2999448843  MEMB      43              0.0000000000
      5121        43  CHL1      C14            -5.8353469316       27.0615806580       10.8193808857  MEMB      43              0.0000000000
      5122        43  CHL1      H14            -5.6290908749       26.0350052881       10.8946340705  MEMB      43              0.0000000000
      5123        43  CHL1      C15            -5.1118143828       27.5657647336        9.5674636078  MEMB      43              0.0000000000
      5124        43  CHL1      H15A           -5.2884535605       28.6481214459        9.5424478155  MEMB      43              0.0000000000
      5125        43  CHL1      H15B           -4.0446628774       27.2770173986        9.6364991421  MEMB      43              0.0000000000
      5126        43  CHL1      C16            -5.7914733602       26.8727291900        8.3445658306  MEMB      43              0.0000000000
      5127        43  CHL1      H16A           -6.1843291260       27.5561769145        7.5961823522  MEMB      43              0.0000000000
      5128        43  CHL1      H16B           -5.1035974607       26.1952847295        7.7983864461  MEMB      43              0.0000000000
      5129        43  CHL1      C17            -6.8679475345       25.9477570108        8.9660505962  MEMB      43              0.0000000000
      5130        43  CHL1      H17            -6.3232327289       25.0744042351        8.9956451631  MEMB      43              0.0000000000
      5131        43  CHL1      C13            -7.1309300604       26.6061135429       10.3676493749  MEMB      43              0.0000000000
      5132        43  CHL1      C18            -7.8716790363       27.8657679035       10.0471538980  MEMB      43              0.0000000000
      5133        43  CHL1      H18A           -7.3656596358       28.6314672616        9.4639771642  MEMB      43              0.0000000000
      5134        43  CHL1      H18B           -8.7716452437       27.7180120110        9.4524033624  MEMB      43              0.0000000000
      5135        43  CHL1      H18C           -8.1598535128       28.1620241703       11.0370227803  MEMB      43              0.0000000000
      5136        43  CHL1      C12            -7.6446661282       25.8596337666       11.6288313399  MEMB      43              0.0000000000
      5137        43  CHL1      H12A           -8.5832800144       26.1068405172       11.3356865236  MEMB      43              0.0000000000
      5138        43  CHL1      H12B           -7.6466839718       24.8028428392       11.8435708080  MEMB      43              0.0000000000
      5139        43  CHL1      C11            -7.5674812491       26.3679588952       13.0263253827  MEMB      43              0.0000000000
      5140        43  CHL1      H11A           -8.2218796045       27.2440286079       13.0759712629  MEMB      43              0.0000000000
      5141        43  CHL1      H11B           -7.9063773288       25.5071419073       13.6809215036  MEMB      43              0.0000000000
      5142        43  CHL1      C9             -6.1919170076       26.7567479102       13.3495395944  MEMB      43              0.0000000000
      5143        43  CHL1      H9             -5.7453720227       25.7956662816       13.1834012568  MEMB      43              0.0000000000
      5144        43  CHL1      C10            -6.0003402869       27.2213416005       14.8103225585  MEMB      43              0.0000000000
      5145        43  CHL1      C19            -7.0736360045       28.2556869485       15.0824719163  MEMB      43              0.0000000000
      5146        43  CHL1      H19A           -7.1141705618       29.0216773141       14.2840538280  MEMB      43              0.0000000000
      5147        43  CHL1      H19B           -8.0365787185       27.7263210850       15.1046812285  MEMB      43              0.0000000000
      5148        43  CHL1      H19C           -6.9527662866       28.7399278124       16.0642521881  MEMB      43              0.0000000000
      5149        43  CHL1      C1             -6.2316793166       26.0851515677       15.8305410410  MEMB      43              0.0000000000
      5150        43  CHL1      H1A            -7.1576371792       25.4911348514       15.6998623501  MEMB      43              0.0000000000
      5151        43  CHL1      H1B            -5.4210588321       25.4200249338       15.6357259805  MEMB      43              0.0000000000
      5152        43  CHL1      C2             -5.9065284499       26.4314047832       17.2820888393  MEMB      43              0.0000000000
      5153        43  CHL1      H2A            -6.0514915217       25.5091691089       17.8838854582  MEMB      43              0.0000000000
      5154        43  CHL1      H2B            -6.5535156078       27.2490777039       17.6512458740  MEMB      43              0.0000000000
      5155        43  CHL1      C20            -7.9173937460       25.3019154260        8.0458113145  MEMB      43              0.0000000000
      5156        43  CHL1      H20            -8.2958590573       26.3478226122        7.9755110686  MEMB      43              0.0000000000
      5157        43  CHL1      C21            -8.8470984757       23.9922872939        8.4985176372  MEMB      43              0.0000000000
      5158        43  CHL1      H21A           -9.8279479914       23.8077256354        8.0541591595  MEMB      43              0.0000000000
      5159        43  CHL1      H21B           -9.0944663855       24.1347630360        9.5666615119  MEMB      43              0.0000000000
      5160        43  CHL1      H21C           -8.7441857793       23.0703534093        8.9900921861  MEMB      43              0.0000000000
      5161        43  CHL1      C22            -7.6213628840       25.0688687533        6.6071239020  MEMB      43              0.0000000000
      5162        43  CHL1      H22A           -6.8743954556       25.7716286350        6.1974144466  MEMB      43              0.0000000000
      5163        43  CHL1      H22B           -7.3110533818       24.0465325555        6.7638179105  MEMB      43              0.0000000000
      5164        43  CHL1      C23            -8.6338911604       24.5600424964        5.5933941610  MEMB      43              0.0000000000
      5165        43  CHL1      H23A           -9.3297405049       23.7983800171        6.0102877247  MEMB      43              0.0000000000
      5166        43  CHL1      H23B           -9.1773247391       25.4445026303        5.2381527325  MEMB      43              0.0000000000
      5167        43  CHL1      C24            -7.8334120886       23.8093115841        4.5331460513  MEMB      43              0.0000000000
      5168        43  CHL1      H24A           -7.2284356338       24.5621623030        3.9959520359  MEMB      43              0.0000000000
      5169        43  CHL1      H24B           -7.1804050979       23.0934653492        5.0674987725  MEMB      43              0.0000000000
      5170        43  CHL1      C25            -8.5672254602       22.9696369120        3.5247790444  MEMB      43              0.0000000000
      5171        43  CHL1      H25            -9.2958920208       22.2892726814        4.0389835738  MEMB      43              0.0000000000
      5172        43  CHL1      C26            -9.2913757564       23.8981268188        2.6499228538  MEMB      43              0.0000000000
      5173        43  CHL1      H26A           -9.8524710051       23.3021341337        1.8876658141  MEMB      43              0.0000000000
      5174        43  CHL1      H26B           -9.9694500982       24.3834485569        3.3909092788  MEMB      43              0.0000000000
      5175        43  CHL1      H26C           -8.7778101891       24.7375836348        2.1594698882  MEMB      43              0.0000000000
      5176        43  CHL1      C27            -7.6317029548       22.1627150096        2.6527488011  MEMB      43              0.0000000000
      5177        43  CHL1      H27A           -6.9908457798       22.8260411429        2.0327802411  MEMB      43              0.0000000000
      5178        43  CHL1      H27B           -6.9921135442       21.5240839044        3.2905548616  MEMB      43              0.0000000000
      5179        43  CHL1      H27C           -8.2555702295       21.5452495814        1.9749700965  MEMB      43              0.0000000000
      5180        44  CHL1      C3            -26.0921960772       11.4392813547       17.3191139256  MEMB      44              0.0000000000
      5181        44  CHL1      H3            -26.6577635776       12.3710657225       17.0727160423  MEMB      44              0.0000000000
      5182        44  CHL1      O3            -25.7993573417       11.3859818983       18.7018875728  MEMB      44              0.0000000000
      5183        44  CHL1      H3'           -25.5166905430       12.2806107448       18.9485220783  MEMB      44              0.0000000000
      5184        44  CHL1      C4            -26.9057701957       10.1919073622       16.9540725834  MEMB      44              0.0000000000
      5185        44  CHL1      H4A           -26.3701941692        9.3068939650       17.3611968069  MEMB      44              0.0000000000
      5186        44  CHL1      H4B           -27.8926004205       10.2532473623       17.4546656116  MEMB      44              0.0000000000
      5187        44  CHL1      C5            -27.0748208228       10.0301306652       15.4729313188  MEMB      44              0.0000000000
      5188        44  CHL1      C6            -28.2568077534        9.8668057895       14.9275596329  MEMB      44              0.0000000000
      5189        44  CHL1      H6            -29.1172578573        9.7356189787       15.5929912156  MEMB      44              0.0000000000
      5190        44  CHL1      C7            -28.4392295501        9.6309997347       13.4689630106  MEMB      44              0.0000000000
      5191        44  CHL1      H7A           -29.2754145972        8.9527509003       13.4060673523  MEMB      44              0.0000000000
      5192        44  CHL1      H7B           -28.8621300906       10.5047969938       12.9541848602  MEMB      44              0.0000000000
      5193        44  CHL1      C8            -27.1134745635        9.2560271995       12.7362271012  MEMB      44              0.0000000000
      5194        44  CHL1      H8            -26.8332955537        8.1962247475       12.9807512224  MEMB      44              0.0000000000
      5195        44  CHL1      C14           -27.2039729870        9.5468970927       11.2454736183  MEMB      44              0.0000000000
      5196        44  CHL1      H14           -27.4307974010       10.6117236243       11.0925044335  MEMB      44              0.0000000000
      5197        44  CHL1      C15           -28.3173801703        8.9298408010       10.5618396009  MEMB      44              0.0000000000
      5198        44  CHL1      H15A          -28.0940723730        8.1154335692       11.2287363655  MEMB      44              0.0000000000
      5199        44  CHL1      H15B          -29.3669287081        9.2416991543       10.7004750133  MEMB      44              0.0000000000
      5200        44  CHL1      C16           -27.8241666147        8.5719261456        9.1874000080  MEMB      44              0.0000000000
      5201        44  CHL1      H16A          -27.6553418659        7.4786467641        8.9752848469  MEMB      44              0.0000000000
      5202        44  CHL1      H16B          -28.5277790797        9.0673878473        8.5020252565  MEMB      44              0.0000000000
      5203        44  CHL1      C17           -26.5152028883        9.1892545550        8.9907797079  MEMB      44              0.0000000000
      5204        44  CHL1      H17           -26.8100481503       10.2329948393        8.7727603482  MEMB      44              0.0000000000
      5205        44  CHL1      C13           -26.0092708987        9.1647404716       10.3880286436  MEMB      44              0.0000000000
      5206        44  CHL1      C18           -25.5849817930        7.7501522473       10.5790312271  MEMB      44              0.0000000000
      5207        44  CHL1      H18A          -26.2677618704        6.8920754840       10.4029922819  MEMB      44              0.0000000000
      5208        44  CHL1      H18B          -24.6057721905        7.5873153665       10.0694088342  MEMB      44              0.0000000000
      5209        44  CHL1      H18C          -25.4548213920        7.6564435821       11.6349655174  MEMB      44              0.0000000000
      5210        44  CHL1      C12           -24.9729314023       10.1802052089       10.7331973647  MEMB      44              0.0000000000
      5211        44  CHL1      H12A          -24.0167343350       10.0143512332       10.2072213310  MEMB      44              0.0000000000
      5212        44  CHL1      H12B          -25.4220957585       11.1218223577       10.3589712052  MEMB      44              0.0000000000
      5213        44  CHL1      C11           -24.7772468204       10.2327800746       12.2522200527  MEMB      44              0.0000000000
      5214        44  CHL1      H11A          -24.1684445972        9.3550480731       12.5280563874  MEMB      44              0.0000000000
      5215        44  CHL1      H11B          -24.1578719940       11.1234923152       12.4439247658  MEMB      44              0.0000000000
      5216        44  CHL1      C9            -26.0711872676       10.2418981444       13.1405195877  MEMB      44              0.0000000000
      5217        44  CHL1      H9            -26.5981598973       11.2151937056       12.9995391929  MEMB      44              0.0000000000
      5218        44  CHL1      C10           -25.8412925265       10.1990253822       14.6305260291  MEMB      44              0.0000000000
      5219        44  CHL1      C19           -24.9922653649        9.0563385358       14.9235140350  MEMB      44              0.0000000000
      5220        44  CHL1      H19A          -24.9222656310        8.8714691328       16.0149461800  MEMB      44              0.0000000000
      5221        44  CHL1      H19B          -25.3042879763        8.0874828064       14.5222651436  MEMB      44              0.0000000000
      5222        44  CHL1      H19C          -23.9512137246        9.3028375842       14.5879063728  MEMB      44              0.0000000000
      5223        44  CHL1      C1            -25.0765337727       11.4423397476       15.0522066662  MEMB      44              0.0000000000
      5224        44  CHL1      H1A           -24.1254849146       11.5111997546       14.4875534046  MEMB      44              0.0000000000
      5225        44  CHL1      H1B           -25.7474112743       12.2689324171       14.7478537221  MEMB      44              0.0000000000
      5226        44  CHL1      C2            -24.7817579848       11.4910226812       16.5521558980  MEMB      44              0.0000000000
      5227        44  CHL1      H2A           -24.2651197353       12.4420002960       16.7689942523  MEMB      44              0.0000000000
      5228        44  CHL1      H2B           -24.1374677666       10.6514100193       16.9147675035  MEMB      44              0.0000000000
      5229        44  CHL1      C20           -25.7013973856        8.5330410713        7.8727727928  MEMB      44              0.0000000000
      5230        44  CHL1      H20           -25.2717363928        7.5460766724        8.1638367793  MEMB      44              0.0000000000
      5231        44  CHL1      C21           -24.6325483356        9.5578076030        7.5653032357  MEMB      44              0.0000000000
      5232        44  CHL1      H21A          -24.3551167801        9.4467740571        6.5016996677  MEMB      44              0.0000000000
      5233        44  CHL1      H21B          -23.7584815846        9.4312393076        8.2304614009  MEMB      44              0.0000000000
      5234        44  CHL1      H21C          -25.0495678763       10.5777409605        7.7161382295  MEMB      44              0.0000000000
      5235        44  CHL1      C22           -26.4653669092        8.1778711262        6.5800500777  MEMB      44              0.0000000000
      5236        44  CHL1      H22A          -25.8154543881        7.6501198957        5.8545713514  MEMB      44              0.0000000000
      5237        44  CHL1      H22B          -27.1264659623        7.3615793844        6.9079215239  MEMB      44              0.0000000000
      5238        44  CHL1      C23           -27.1243173658        9.4224838642        5.9392566145  MEMB      44              0.0000000000
      5239        44  CHL1      H23A          -27.7605473474        9.9292440717        6.6897129167  MEMB      44              0.0000000000
      5240        44  CHL1      H23B          -26.3490901407       10.1152344021        5.5651636299  MEMB      44              0.0000000000
      5241        44  CHL1      C24           -27.9626477241        9.1914642479        4.7102927493  MEMB      44              0.0000000000
      5242        44  CHL1      H24A          -28.6764462500        8.4527990084        5.0094920000  MEMB      44              0.0000000000
      5243        44  CHL1      H24B          -28.6908108719        9.9806955615        4.4451559542  MEMB      44              0.0000000000
      5244        44  CHL1      C25           -27.1050498689        8.7110704808        3.5394920144  MEMB      44              0.0000000000
      5245        44  CHL1      H25           -26.5314305743        7.7682822760        3.7457558157  MEMB      44              0.0000000000
      5246        44  CHL1      C26           -27.9769115498        8.2303230835        2.5804388664  MEMB      44              0.0000000000
      5247        44  CHL1      H26A          -28.5539070968        8.9519531533        1.9616584986  MEMB      44              0.0000000000
      5248        44  CHL1      H26B          -27.6131376074        7.4741889306        1.8823994988  MEMB      44              0.0000000000
      5249        44  CHL1      H26C          -28.6628292562        7.7190146792        3.2674986778  MEMB      44              0.0000000000
      5250        44  CHL1      C27           -26.5562817555        9.7427720412        2.6190038327  MEMB      44              0.0000000000
      5251        44  CHL1      H27A          -25.8268320399       10.3349511288        3.1508561271  MEMB      44              0.0000000000
      5252        44  CHL1      H27B          -26.1096851046        9.1686491300        1.7877154054  MEMB      44              0.0000000000
      5253        44  CHL1      H27C          -27.3562890129       10.3855072976        2.1615969795  MEMB      44              0.0000000000
      5254        45  SAPE      N              19.5985752045       18.6623310655       20.9664902524  MEMB      45              0.0000000000
      5255        45  SAPE      HN1            20.0130578279       18.8659224746       21.8948051077  MEMB      45              0.0000000000
      5256        45  SAPE      HN2            18.5885893959       18.9418526211       20.9778120163  MEMB      45              0.0000000000
      5257        45  SAPE      HN3            19.6852015773       17.6608113617       20.7095859356  MEMB      45              0.0000000000
      5258        45  SAPE      C12            20.3662451600       19.4935044544       19.9730715241  MEMB      45              0.0000000000
      5259        45  SAPE      H12A           20.1387940544       20.5496737125       20.2399739046  MEMB      45              0.0000000000
      5260        45  SAPE      H12B           19.9831333584       19.2584888758       18.9603172939  MEMB      45              0.0000000000
      5261        45  SAPE      C11            21.8953492473       19.2684613673       20.0591639925  MEMB      45              0.0000000000
      5262        45  SAPE      H11A           22.1946762276       19.1358653127       21.1231485073  MEMB      45              0.0000000000
      5263        45  SAPE      H11B           22.3866743476       20.2108669918       19.7305794590  MEMB      45              0.0000000000
      5264        45  SAPE      P              23.3354289960       17.1123917914       19.8190550712  MEMB      45              0.0000000000
      5265        45  SAPE      O13            22.6842392825       16.7205770038       21.0907769795  MEMB      45              0.0000000000
      5266        45  SAPE      O14            23.5632125871       16.0506175626       18.8168425677  MEMB      45              0.0000000000
      5267        45  SAPE      O12            22.3403379930       18.1896608197       19.2276078722  MEMB      45              0.0000000000
      5268        45  SAPE      O11            24.6053172674       17.9892067674       20.1217200029  MEMB      45              0.0000000000
      5269        45  SAPE      C1             25.6072540552       18.1848578859       19.1335301579  MEMB      45              0.0000000000
      5270        45  SAPE      HA             26.5852153840       18.2582330939       19.6314894133  MEMB      45              0.0000000000
      5271        45  SAPE      HB             25.6673096913       17.3406237408       18.3943452975  MEMB      45              0.0000000000
      5272        45  SAPE      C2             25.4576545690       19.5173494051       18.4104143662  MEMB      45              0.0000000000
      5273        45  SAPE      HS             25.2644431643       20.3727777253       19.0722080400  MEMB      45              0.0000000000
      5274        45  SAPE      O21            24.4020288150       19.2832923811       17.5458561506  MEMB      45              0.0000000000
      5275        45  SAPE      C21            23.7360989489       20.2759113401       17.2790562813  MEMB      45              0.0000000000
      5276        45  SAPE      O22            23.9839444778       21.4682645494       17.4476672796  MEMB      45              0.0000000000
      5277        45  SAPE      C22            22.5330229358       19.7182123816       16.6773388184  MEMB      45              0.0000000000
      5278        45  SAPE      H2R            21.5824372867       19.6770940433       17.1918144282  MEMB      45              0.0000000000
      5279        45  SAPE      H2S            22.3519990917       20.7890635031       16.4499263629  MEMB      45              0.0000000000
      5280        45  SAPE      C3             26.6942228714       19.8526375817       17.6477410257  MEMB      45              0.0000000000
      5281        45  SAPE      HX             27.5613810811       19.8973248904       18.2900390466  MEMB      45              0.0000000000
      5282        45  SAPE      HY             26.6734123497       20.7880344167       17.0810533306  MEMB      45              0.0000000000
      5283        45  SAPE      O31            26.9511561793       18.7796625592       16.8615817089  MEMB      45              0.0000000000
      5284        45  SAPE      C31            26.4338405433       18.8999573314       15.7154967099  MEMB      45              0.0000000000
      5285        45  SAPE      O32            25.4395232129       19.4045264927       15.3297096965  MEMB      45              0.0000000000
      5286        45  SAPE      C32            27.2853579543       18.2091322084       14.9292734437  MEMB      45              0.0000000000
      5287        45  SAPE      H2X            26.5783345897       17.3761186516       15.4458838156  MEMB      45              0.0000000000
      5288        45  SAPE      H2Y            28.1230276939       17.7572088511       15.4471431813  MEMB      45              0.0000000000
      5289        45  SAPE      C23            22.7397702221       18.6130499810       15.4966847760  MEMB      45              0.0000000000
      5290        45  SAPE      H3R            23.2652612931       17.7581333112       15.9398706883  MEMB      45              0.0000000000
      5291        45  SAPE      H3S            23.3682544209       19.0522226132       14.6826874969  MEMB      45              0.0000000000
      5292        45  SAPE      C24            21.4982007565       17.9660309538       14.7649962946  MEMB      45              0.0000000000
      5293        45  SAPE      H4R            20.7244893796       18.5223276630       14.3090139831  MEMB      45              0.0000000000
      5294        45  SAPE      H4S            20.7757345499       17.6747984795       15.5526605944  MEMB      45              0.0000000000
      5295        45  SAPE      C25            21.6125774544       17.1408527191       13.5112420712  MEMB      45              0.0000000000
      5296        45  SAPE      H5R            21.2664635674       16.1333671866       13.7088064433  MEMB      45              0.0000000000
      5297        45  SAPE      C26            21.8415167948       17.4555129643       12.2032564285  MEMB      45              0.0000000000
      5298        45  SAPE      H6R            21.6958876409       16.6975445680       11.4362223160  MEMB      45              0.0000000000
      5299        45  SAPE      C27            22.0872290638       18.7094479070       11.4412433391  MEMB      45              0.0000000000
      5300        45  SAPE      H7R            22.8424616516       18.7367420801       10.6814271790  MEMB      45              0.0000000000
      5301        45  SAPE      H7S            22.5854453764       19.4880279232       11.9459511748  MEMB      45              0.0000000000
      5302        45  SAPE      C28            20.8972343252       19.2331077585       10.8857870222  MEMB      45              0.0000000000
      5303        45  SAPE      H8R            20.1740196979       19.6278946907       11.5870557481  MEMB      45              0.0000000000
      5304        45  SAPE      C29            20.4930231114       19.1444394678        9.6870908049  MEMB      45              0.0000000000
      5305        45  SAPE      H9R            19.5767552639       19.6551591044        9.4363800631  MEMB      45              0.0000000000
      5306        45  SAPE      C210           21.2116804004       18.4421396541        8.7045761300  MEMB      45              0.0000000000
      5307        45  SAPE      H10R           20.6969200994       17.5179960926        8.9307989266  MEMB      45              0.0000000000
      5308        45  SAPE      H10S           22.1950917268       18.3610047760        9.0299186059  MEMB      45              0.0000000000
      5309        45  SAPE      C211           21.2813155116       18.9863600504        7.3451358032  MEMB      45              0.0000000000
      5310        45  SAPE      H11R           21.0023099717       20.0377409465        7.2968297798  MEMB      45              0.0000000000
      5311        45  SAPE      C212           21.2966886721       18.3550687801        6.1906357187  MEMB      45              0.0000000000
      5312        45  SAPE      H12R           20.8957148663       18.8462404535        5.2790874365  MEMB      45              0.0000000000
      5313        45  SAPE      C213           21.2391342375       16.9524566484        5.9411812444  MEMB      45              0.0000000000
      5314        45  SAPE      H13R           20.2275185694       17.2527747813        5.8435945629  MEMB      45              0.0000000000
      5315        45  SAPE      H13S           21.3699161349       16.1800370238        6.7137234740  MEMB      45              0.0000000000
      5316        45  SAPE      C214           20.8796171888       16.5495882884        4.6341438744  MEMB      45              0.0000000000
      5317        45  SAPE      H14R           19.9814515194       16.0002847104        4.4274704356  MEMB      45              0.0000000000
      5318        45  SAPE      C215           21.6807240836       16.5331754747        3.7505124610  MEMB      45              0.0000000000
      5319        45  SAPE      H15R           21.2382040461       15.8112223860        3.0489228364  MEMB      45              0.0000000000
      5320        45  SAPE      C216           23.0581876161       16.9289035544        4.2903561064  MEMB      45              0.0000000000
      5321        45  SAPE      H16R           23.3923342756       16.7493545762        5.3827106690  MEMB      45              0.0000000000
      5322        45  SAPE      H16S           23.5274444184       17.6171225141        3.5809424253  MEMB      45              0.0000000000
      5323        45  SAPE      C217           24.0753147882       16.0206796047        4.0542199203  MEMB      45              0.0000000000
      5324        45  SAPE      H17R           23.6930049225       15.9943640389        2.9105877849  MEMB      45              0.0000000000
      5325        45  SAPE      H17S           23.9050530655       15.1266685262        4.7602657451  MEMB      45              0.0000000000
      5326        45  SAPE      C218           25.6136308457       16.0618170651        4.1102079325  MEMB      45              0.0000000000
      5327        45  SAPE      H18R           26.0561456637       15.0913196937        3.9391320829  MEMB      45              0.0000000000
      5328        45  SAPE      H18S           26.0855824927       16.0155987991        5.1085459850  MEMB      45              0.0000000000
      5329        45  SAPE      C219           26.0581288053       16.6061940505        2.7555247337  MEMB      45              0.0000000000
      5330        45  SAPE      H19R           25.4943572259       17.5328088971        2.7892123388  MEMB      45              0.0000000000
      5331        45  SAPE      H19S           25.7467765249       16.1354238921        1.7988247396  MEMB      45              0.0000000000
      5332        45  SAPE      C220           27.4859594384       16.7823243852        2.5284339406  MEMB      45              0.0000000000
      5333        45  SAPE      H20R           27.7009388270       17.3357525935        1.5770214700  MEMB      45              0.0000000000
      5334        45  SAPE      H20S           28.0838463499       15.8634066074        2.5553605333  MEMB      45              0.0000000000
      5335        45  SAPE      H20T           27.8032448553       17.1843560570        3.4767983201  MEMB      45              0.0000000000
      5336        45  SAPE      C33            27.7177429827       18.2960818947       13.1363438056  MEMB      45              0.0000000000
      5337        45  SAPE      H3X            28.5037432654       18.9510394978       12.8998709304  MEMB      45              0.0000000000
      5338        45  SAPE      H3Y            27.0248835495       19.0200854654       13.1929740063  MEMB      45              0.0000000000
      5339        45  SAPE      C34            27.3523042442       16.9266074127       11.6936590421  MEMB      45              0.0000000000
      5340        45  SAPE      H4X            27.6792501774       16.0123589160       11.8825826413  MEMB      45              0.0000000000
      5341        45  SAPE      H4Y            28.1446973129       16.9495749654       10.9739014683  MEMB      45              0.0000000000
      5342        45  SAPE      C35            25.8525704610       15.7447953524       11.4892314756  MEMB      45              0.0000000000
      5343        45  SAPE      H5X            25.2160298809       15.1413849454       12.2441218312  MEMB      45              0.0000000000
      5344        45  SAPE      H5Y            26.1833120730       14.8496277982       11.6028981339  MEMB      45              0.0000000000
      5345        45  SAPE      C36            24.5848123944       15.8415486830       10.8107284098  MEMB      45              0.0000000000
      5346        45  SAPE      H6X            23.9129089791       16.2813929125       11.5720720835  MEMB      45              0.0000000000
      5347        45  SAPE      H6Y            24.0973005809       14.8594187071       10.5860637380  MEMB      45              0.0000000000
      5348        45  SAPE      C37            25.0653906055       16.7061213220        9.7676318384  MEMB      45              0.0000000000
      5349        45  SAPE      H7X            26.1327570781       16.8366631623        9.4446098909  MEMB      45              0.0000000000
      5350        45  SAPE      H7Y            24.7170412280       17.5923026507       10.2686555700  MEMB      45              0.0000000000
      5351        45  SAPE      C38            24.1505873357       16.8072270131        8.7210212286  MEMB      45              0.0000000000
      5352        45  SAPE      H8X            23.2024821402       16.6618714711        9.2901961716  MEMB      45              0.0000000000
      5353        45  SAPE      H8Y            24.4692720831       15.9967913880        8.0593566199  MEMB      45              0.0000000000
      5354        45  SAPE      C39            24.2838887406       18.1765207031        8.1709774299  MEMB      45              0.0000000000
      5355        45  SAPE      H9X            24.1288894052       19.0109792332        8.9098546659  MEMB      45              0.0000000000
      5356        45  SAPE      H9Y            23.4828959232       18.2445806504        7.4497343186  MEMB      45              0.0000000000
      5357        45  SAPE      C310           25.4735104542       18.3482435836        7.3306444912  MEMB      45              0.0000000000
      5358        45  SAPE      H10X           25.7261498166       17.6344468315        6.5475424369  MEMB      45              0.0000000000
      5359        45  SAPE      H10Y           26.3913959783       18.3736714247        7.9744393080  MEMB      45              0.0000000000
      5360        45  SAPE      C311           25.1689035258       19.5740409787        6.5234226296  MEMB      45              0.0000000000
      5361        45  SAPE      H11X           25.9658397665       19.7624035262        5.7638512769  MEMB      45              0.0000000000
      5362        45  SAPE      H11Y           25.1548036459       20.1257513424        7.4948898193  MEMB      45              0.0000000000
      5363        45  SAPE      C312           24.0476015471       20.4986356216        6.2207396271  MEMB      45              0.0000000000
      5364        45  SAPE      H12X           24.2509859980       21.6024818696        6.1009917045  MEMB      45              0.0000000000
      5365        45  SAPE      H12Y           23.2310001539       20.4989838971        6.9452538446  MEMB      45              0.0000000000
      5366        45  SAPE      C313           23.8897905112       20.0466223633        4.8483808280  MEMB      45              0.0000000000
      5367        45  SAPE      H13X           23.3954003583       19.0847314469        5.0232311131  MEMB      45              0.0000000000
      5368        45  SAPE      H13Y           24.8004817554       19.9200989411        4.2285517864  MEMB      45              0.0000000000
      5369        45  SAPE      C314           23.0707849279       21.0543352373        4.2712086584  MEMB      45              0.0000000000
      5370        45  SAPE      H14X           23.3377753005       22.1188601623        4.4254198938  MEMB      45              0.0000000000
      5371        45  SAPE      H14Y           22.2967509876       20.9179277420        5.0863329796  MEMB      45              0.0000000000
      5372        45  SAPE      C315           22.7003494180       20.6592031775        2.8401186913  MEMB      45              0.0000000000
      5373        45  SAPE      H15X           21.8823848521       21.2248731074        2.4635777747  MEMB      45              0.0000000000
      5374        45  SAPE      H15Y           22.2346617571       19.6646200928        2.7586247825  MEMB      45              0.0000000000
      5375        45  SAPE      C316           23.5079209564       21.2510783348        1.7152247241  MEMB      45              0.0000000000
      5376        45  SAPE      H16X           24.0187560943       22.1257166945        2.1716013291  MEMB      45              0.0000000000
      5377        45  SAPE      H16Y           22.8684220376       21.6811939113        0.8902611798  MEMB      45              0.0000000000
      5378        45  SAPE      C317           24.4801013181       20.1990492842        1.2243543770  MEMB      45              0.0000000000
      5379        45  SAPE      H17X           24.9070631464       19.6842990592        2.0986384936  MEMB      45              0.0000000000
      5380        45  SAPE      H17Y           25.1771220280       20.7511194389        0.5776550453  MEMB      45              0.0000000000
      5381        45  SAPE      C318           23.9813034681       19.0306880678        0.4554318559  MEMB      45              0.0000000000
      5382        45  SAPE      H18X           23.1023836844       18.5873171828        0.9931082713  MEMB      45              0.0000000000
      5383        45  SAPE      H18Y           24.5525136637       18.2346735325        0.0235339419  MEMB      45              0.0000000000
      5384        45  SAPE      H18Z           23.7103680835       19.4155157336       -0.5393782351  MEMB      45              0.0000000000
      5385        46  CHL1      C3            -13.0064479970      -26.1306922947       17.3490636847  MEMB      46              0.0000000000
      5386        46  CHL1      H3            -13.2912501857      -25.0691331389       17.1424449840  MEMB      46              0.0000000000
      5387        46  CHL1      O3            -12.8219671539      -26.3277525667       18.7398335693  MEMB      46              0.0000000000
      5388        46  CHL1      H3'           -12.3331461459      -25.5696360876       19.0712340459  MEMB      46              0.0000000000
      5389        46  CHL1      C4            -14.1351185520      -27.0220672712       16.8577694453  MEMB      46              0.0000000000
      5390        46  CHL1      H4A           -13.8519152575      -28.0803836342       17.0338854869  MEMB      46              0.0000000000
      5391        46  CHL1      H4B           -15.0422407397      -26.8273853717       17.4530709662  MEMB      46              0.0000000000
      5392        46  CHL1      C5            -14.3602943375      -26.6858521166       15.4135348030  MEMB      46              0.0000000000
      5393        46  CHL1      C6            -15.5128821356      -26.2904371828       14.9266389941  MEMB      46              0.0000000000
      5394        46  CHL1      H6            -16.3943260362      -26.2940580266       15.5710523660  MEMB      46              0.0000000000
      5395        46  CHL1      C7            -15.7049589524      -26.0338941374       13.4859539101  MEMB      46              0.0000000000
      5396        46  CHL1      H7A           -16.7565118572      -26.1420241899       13.4856395024  MEMB      46              0.0000000000
      5397        46  CHL1      H7B           -15.8357141500      -25.0012046918       13.1347538450  MEMB      46              0.0000000000
      5398        46  CHL1      C8            -14.6826325148      -26.8198672117       12.5767331177  MEMB      46              0.0000000000
      5399        46  CHL1      H8            -14.9089167079      -27.9170817335       12.5604203286  MEMB      46              0.0000000000
      5400        46  CHL1      C14           -14.6309447165      -26.2633105829       11.1818959417  MEMB      46              0.0000000000
      5401        46  CHL1      H14           -14.7247811239      -25.1528659535       11.2131504347  MEMB      46              0.0000000000
      5402        46  CHL1      C15           -15.7849870712      -26.6927992877       10.6225768170  MEMB      46              0.0000000000
      5403        46  CHL1      H15A          -16.0138643092      -27.7408726957       10.9432599291  MEMB      46              0.0000000000
      5404        46  CHL1      H15B          -16.5727673473      -26.3225250857       11.1119673595  MEMB      46              0.0000000000
      5405        46  CHL1      C16           -15.6005800045      -26.4491749055        9.1550537117  MEMB      46              0.0000000000
      5406        46  CHL1      H16A          -15.9910983340      -27.3850108389        8.9672431938  MEMB      46              0.0000000000
      5407        46  CHL1      H16B          -16.1625012372      -25.9969764012        8.4104553405  MEMB      46              0.0000000000
      5408        46  CHL1      C17           -14.2452967913      -26.0490745547        8.8261090705  MEMB      46              0.0000000000
      5409        46  CHL1      H17           -14.2523331899      -24.9572886697        8.9538956266  MEMB      46              0.0000000000
      5410        46  CHL1      C13           -13.6908364649      -26.6824359058       10.0293063057  MEMB      46              0.0000000000
      5411        46  CHL1      C18           -13.8302830037      -28.0337265437        9.4615591795  MEMB      46              0.0000000000
      5412        46  CHL1      H18A          -14.7144482165      -28.4284550042        9.9165610759  MEMB      46              0.0000000000
      5413        46  CHL1      H18B          -13.8135607107      -28.5128765652        8.4929454471  MEMB      46              0.0000000000
      5414        46  CHL1      H18C          -12.9818079289      -28.5932689682        9.7593929661  MEMB      46              0.0000000000
      5415        46  CHL1      C12           -12.3568664449      -26.4416389273       10.5290325230  MEMB      46              0.0000000000
      5416        46  CHL1      H12A          -11.6818988841      -27.0145395310        9.8653176965  MEMB      46              0.0000000000
      5417        46  CHL1      H12B          -12.2765209064      -25.3521417478       10.3943624550  MEMB      46              0.0000000000
      5418        46  CHL1      C11           -12.2062537363      -26.8810202813       12.0100716783  MEMB      46              0.0000000000
      5419        46  CHL1      H11A          -12.0479999148      -27.9730106714       12.0218432488  MEMB      46              0.0000000000
      5420        46  CHL1      H11B          -11.2681215169      -26.3887471924       12.2991595361  MEMB      46              0.0000000000
      5421        46  CHL1      C9            -13.3260348836      -26.4937732257       13.0487732885  MEMB      46              0.0000000000
      5422        46  CHL1      H9            -13.3668158032      -25.3766962802       13.0381447001  MEMB      46              0.0000000000
      5423        46  CHL1      C10           -13.1392116922      -26.8333518075       14.5552651701  MEMB      46              0.0000000000
      5424        46  CHL1      C19           -12.7908185885      -28.2733475037       14.7784100460  MEMB      46              0.0000000000
      5425        46  CHL1      H19A          -12.4958886232      -28.7070806173       15.7441646007  MEMB      46              0.0000000000
      5426        46  CHL1      H19B          -13.7465362842      -28.8049732743       14.5447248339  MEMB      46              0.0000000000
      5427        46  CHL1      H19C          -11.9451133830      -28.5498005191       14.1167660559  MEMB      46              0.0000000000
      5428        46  CHL1      C1            -11.9959606703      -26.0352420422       15.1078256524  MEMB      46              0.0000000000
      5429        46  CHL1      H1A           -11.2607812329      -26.3000879193       14.3651383539  MEMB      46              0.0000000000
      5430        46  CHL1      H1B           -12.1176055282      -24.9550362020       14.9651214352  MEMB      46              0.0000000000
      5431        46  CHL1      C2            -11.7144732918      -26.3881186167       16.5790397962  MEMB      46              0.0000000000
      5432        46  CHL1      H2A           -10.9991905613      -25.7196564729       17.0704832693  MEMB      46              0.0000000000
      5433        46  CHL1      H2B           -11.2961364007      -27.4131911326       16.7014240884  MEMB      46              0.0000000000
      5434        46  CHL1      C20           -13.9839840746      -26.5078372653        7.3811973158  MEMB      46              0.0000000000
      5435        46  CHL1      H20           -14.4086968766      -27.5306385414        7.1463616168  MEMB      46              0.0000000000
      5436        46  CHL1      C21           -12.5025843138      -26.4347428454        7.0985530602  MEMB      46              0.0000000000
      5437        46  CHL1      H21A          -11.9603392660      -27.2497830907        7.6035990845  MEMB      46              0.0000000000
      5438        46  CHL1      H21B          -12.1787391048      -25.4266040028        7.4266679300  MEMB      46              0.0000000000
      5439        46  CHL1      H21C          -12.2719052350      -26.5553661189        6.0302202350  MEMB      46              0.0000000000
      5440        46  CHL1      C22           -14.6934055512      -25.6611886874        6.3624435319  MEMB      46              0.0000000000
      5441        46  CHL1      H22A          -15.7608439260      -25.8873769751        6.5468122469  MEMB      46              0.0000000000
      5442        46  CHL1      H22B          -14.5217209585      -24.5944858614        6.5460252294  MEMB      46              0.0000000000
      5443        46  CHL1      C23           -14.2252847733      -26.0690209971        4.9405660452  MEMB      46              0.0000000000
      5444        46  CHL1      H23A          -13.3330473741      -25.5510613521        4.5975332362  MEMB      46              0.0000000000
      5445        46  CHL1      H23B          -14.1213235065      -27.1924983150        4.9535410614  MEMB      46              0.0000000000
      5446        46  CHL1      C24           -15.1302464672      -25.7075243564        3.8106612824  MEMB      46              0.0000000000
      5447        46  CHL1      H24A          -15.7079003237      -26.1883020574        4.5694622896  MEMB      46              0.0000000000
      5448        46  CHL1      H24B          -15.8282099586      -24.8884432363        3.8122335610  MEMB      46              0.0000000000
      5449        46  CHL1      C25           -14.9449873953      -26.3269616750        2.3660087672  MEMB      46              0.0000000000
      5450        46  CHL1      H25           -13.9821961406      -25.8748009136        2.1278658303  MEMB      46              0.0000000000
      5451        46  CHL1      C26           -14.6080704717      -27.9506883652        2.3381144609  MEMB      46              0.0000000000
      5452        46  CHL1      H26A          -15.4064213603      -28.7288869585        2.4618052171  MEMB      46              0.0000000000
      5453        46  CHL1      H26B          -14.4412092633      -28.3008612943        1.3096834495  MEMB      46              0.0000000000
      5454        46  CHL1      H26C          -14.1696323344      -28.4290112955        3.2360942154  MEMB      46              0.0000000000
      5455        46  CHL1      C27           -15.8863650501      -25.5646767722        1.2295310346  MEMB      46              0.0000000000
      5456        46  CHL1      H27A          -15.6065793280      -25.6513134260        0.1737374425  MEMB      46              0.0000000000
      5457        46  CHL1      H27B          -16.7673138431      -26.0325532923        0.7628010830  MEMB      46              0.0000000000
      5458        46  CHL1      H27C          -16.5677027558      -24.7689095912        1.6222555633  MEMB      46              0.0000000000
      5459        47  SAPS      N              -9.2216543788       25.6180241280       19.4131248882  MEMB      47              0.0000000000
      5460        47  SAPS      HN1            -8.6496187035       24.8244637859       19.7848813172  MEMB      47              0.0000000000
      5461        47  SAPS      HN2            -9.8873644245       25.3278030681       18.6709924307  MEMB      47              0.0000000000
      5462        47  SAPS      HN3            -8.6018069020       26.3954115426       19.1065678875  MEMB      47              0.0000000000
      5463        47  SAPS      C12           -10.0204200503       26.1411689559       20.5661674211  MEMB      47              0.0000000000
      5464        47  SAPS      H12A          -10.1699982419       25.3286491403       21.2595960664  MEMB      47              0.0000000000
      5465        47  SAPS      C13            -9.3717687201       27.3110189676       21.3304054608  MEMB      47              0.0000000000
      5466        47  SAPS      O13A           -8.2316840868       27.7124801111       20.9688212619  MEMB      47              0.0000000000
      5467        47  SAPS      O13B           -9.9353091806       27.6521972198       22.3967268163  MEMB      47              0.0000000000
      5468        47  SAPS      C11           -11.3856238294       26.6250515339       20.0653302761  MEMB      47              0.0000000000
      5469        47  SAPS      H11A          -11.1834393802       27.4409929992       19.3603689984  MEMB      47              0.0000000000
      5470        47  SAPS      H11B          -11.9317945154       27.0571023489       20.9398705904  MEMB      47              0.0000000000
      5471        47  SAPS      P             -13.6359666949       25.7648066696       19.0429123444  MEMB      47              0.0000000000
      5472        47  SAPS      O13           -13.8596539010       24.9921000655       17.8083686465  MEMB      47              0.0000000000
      5473        47  SAPS      O14           -14.4804792271       25.5526011006       20.2441153614  MEMB      47              0.0000000000
      5474        47  SAPS      O12           -12.0987947830       25.5568879451       19.4398108668  MEMB      47              0.0000000000
      5475        47  SAPS      O11           -13.6677228137       27.2686260057       18.6354059666  MEMB      47              0.0000000000
      5476        47  SAPS      C1            -14.8979874856       27.9583524554       18.7865556856  MEMB      47              0.0000000000
      5477        47  SAPS      HA            -15.7783681268       27.3344804633       19.1048783074  MEMB      47              0.0000000000
      5478        47  SAPS      HB            -14.7475905340       28.7012246550       19.5841827912  MEMB      47              0.0000000000
      5479        47  SAPS      C2            -15.2376230857       28.7206215775       17.4951459862  MEMB      47              0.0000000000
      5480        47  SAPS      HS            -16.2943288749       28.9844225181       17.4978556825  MEMB      47              0.0000000000
      5481        47  SAPS      O21           -15.0361126906       27.9857428942       16.2987506661  MEMB      47              0.0000000000
      5482        47  SAPS      C21           -15.5551082536       26.8383495608       16.0649911667  MEMB      47              0.0000000000
      5483        47  SAPS      O22           -16.3375699237       26.1524577459       16.6648665487  MEMB      47              0.0000000000
      5484        47  SAPS      C22           -15.0650036033       26.2793789699       14.7908567464  MEMB      47              0.0000000000
      5485        47  SAPS      H2R           -14.2860304160       26.9210674051       14.3619459002  MEMB      47              0.0000000000
      5486        47  SAPS      H2S           -14.6734584114       25.3484314029       15.2635627095  MEMB      47              0.0000000000
      5487        47  SAPS      C3            -14.4087078984       30.0748754646       17.4157122937  MEMB      47              0.0000000000
      5488        47  SAPS      HX            -14.4354213551       30.7494031707       18.2843875668  MEMB      47              0.0000000000
      5489        47  SAPS      HY            -14.7977253244       30.7008069550       16.5670686725  MEMB      47              0.0000000000
      5490        47  SAPS      O31           -13.0521079412       29.8657081481       17.5384077926  MEMB      47              0.0000000000
      5491        47  SAPS      C31           -12.6855064441       29.3263105151       16.4945698422  MEMB      47              0.0000000000
      5492        47  SAPS      O32           -13.1946347731       29.4029647294       15.3648106399  MEMB      47              0.0000000000
      5493        47  SAPS      C32           -11.2744867179       28.9516919242       16.9288061083  MEMB      47              0.0000000000
      5494        47  SAPS      H2X           -11.2551781130       28.3264388487       17.7928396316  MEMB      47              0.0000000000
      5495        47  SAPS      H2Y           -10.6927838272       29.8364767755       17.2499399578  MEMB      47              0.0000000000
      5496        47  SAPS      C23           -16.1393751743       25.7709516119       13.8257789210  MEMB      47              0.0000000000
      5497        47  SAPS      H3R           -16.7186228562       26.5744136941       13.3679036924  MEMB      47              0.0000000000
      5498        47  SAPS      H3S           -16.8838618512       25.1732730508       14.3729403878  MEMB      47              0.0000000000
      5499        47  SAPS      C24           -15.5164142903       24.9673094585       12.7343811711  MEMB      47              0.0000000000
      5500        47  SAPS      H4R           -15.2205504444       23.9873512546       13.1437751839  MEMB      47              0.0000000000
      5501        47  SAPS      H4S           -14.5642786926       25.4510724214       12.4514355965  MEMB      47              0.0000000000
      5502        47  SAPS      C25           -16.5103619177       24.9224365575       11.6208794502  MEMB      47              0.0000000000
      5503        47  SAPS      H5R           -17.4188780036       24.3500088976       11.8224734373  MEMB      47              0.0000000000
      5504        47  SAPS      C26           -16.3852238215       25.5587757916       10.4691363543  MEMB      47              0.0000000000
      5505        47  SAPS      H6R           -17.0961686263       25.2687704727        9.6753976001  MEMB      47              0.0000000000
      5506        47  SAPS      C27           -15.1992517781       26.4368007295       10.1289416836  MEMB      47              0.0000000000
      5507        47  SAPS      H7R           -15.1191441723       26.4642588486        9.0288074040  MEMB      47              0.0000000000
      5508        47  SAPS      H7S           -14.2709825889       25.9528011491       10.4579544449  MEMB      47              0.0000000000
      5509        47  SAPS      C28           -15.2319314632       27.8588534865       10.6737764054  MEMB      47              0.0000000000
      5510        47  SAPS      H8R           -16.1337584447       28.0788724925       11.2134734170  MEMB      47              0.0000000000
      5511        47  SAPS      C29           -14.4509081748       28.9203017336       10.3687009626  MEMB      47              0.0000000000
      5512        47  SAPS      H9R           -14.7081757202       29.9100521970       10.7675426234  MEMB      47              0.0000000000
      5513        47  SAPS      C210          -13.3104379137       28.8721481551        9.3651592500  MEMB      47              0.0000000000
      5514        47  SAPS      H10R          -13.2976204282       27.8231747633        8.9597649505  MEMB      47              0.0000000000
      5515        47  SAPS      H10S          -12.3898467686       28.8694886463        9.8742907131  MEMB      47              0.0000000000
      5516        47  SAPS      C211          -12.8039154993       29.7904745258        8.2922414163  MEMB      47              0.0000000000
      5517        47  SAPS      H11R          -12.8621191290       30.8677539411        8.4795707353  MEMB      47              0.0000000000
      5518        47  SAPS      C212          -13.6369954415       29.8421345841        7.3769639139  MEMB      47              0.0000000000
      5519        47  SAPS      H12R          -13.4720862985       30.5863232758        6.5726606982  MEMB      47              0.0000000000
      5520        47  SAPS      C213          -14.9223469890       29.0717299323        7.6419265331  MEMB      47              0.0000000000
      5521        47  SAPS      H13R          -14.6656384416       27.8529415237        7.7896328544  MEMB      47              0.0000000000
      5522        47  SAPS      H13S          -14.1203975499       28.3814902206        6.9005951464  MEMB      47              0.0000000000
      5523        47  SAPS      C214          -16.7865741619       29.6888011596        7.0582938649  MEMB      47              0.0000000000
      5524        47  SAPS      H14R          -16.9760155810       30.7033620450        7.2524238487  MEMB      47              0.0000000000
      5525        47  SAPS      C215          -18.1066740900       28.9007312231        6.1680491148  MEMB      47              0.0000000000
      5526        47  SAPS      H15R          -18.8854438367       28.1458502006        6.2977922998  MEMB      47              0.0000000000
      5527        47  SAPS      C216          -18.3215106283       27.0444424578        5.6381608281  MEMB      47              0.0000000000
      5528        47  SAPS      H16R          -18.1005096427       26.1665575293        6.5289001881  MEMB      47              0.0000000000
      5529        47  SAPS      H16S          -17.6132090406       26.2164249290        6.3290904247  MEMB      47              0.0000000000
      5530        47  SAPS      C217          -18.4370844947       26.4351025979        3.8016836245  MEMB      47              0.0000000000
      5531        47  SAPS      H17R          -17.9108451035       26.8634553383        2.9350274353  MEMB      47              0.0000000000
      5532        47  SAPS      H17S          -19.3465197972       26.8957029378        3.9793488371  MEMB      47              0.0000000000
      5533        47  SAPS      C218          -18.4633207874       24.7571130935        2.9069146774  MEMB      47              0.0000000000
      5534        47  SAPS      H18R          -18.3585691971       23.7190241853        3.3898581116  MEMB      47              0.0000000000
      5535        47  SAPS      H18S          -17.8043743160       23.8967582875        3.2679355876  MEMB      47              0.0000000000
      5536        47  SAPS      C219          -18.2831930481       24.6274926090        1.5204831692  MEMB      47              0.0000000000
      5537        47  SAPS      H19R          -17.3577835917       24.9640293181        1.0311319842  MEMB      47              0.0000000000
      5538        47  SAPS      H19S          -18.9776562754       25.4282195888        1.4933709793  MEMB      47              0.0000000000
      5539        47  SAPS      C220          -18.6527555700       23.2689446514        1.0386070316  MEMB      47              0.0000000000
      5540        47  SAPS      H20R          -18.6516035312       23.2056704090       -0.0223035643  MEMB      47              0.0000000000
      5541        47  SAPS      H20S          -19.0803859375       22.4983287352        1.7159784755  MEMB      47              0.0000000000
      5542        47  SAPS      H20T          -17.7445491530       22.7099618352        0.9754209090  MEMB      47              0.0000000000
      5543        47  SAPS      C33           -10.5915653575       28.3592253813       15.7769209460  MEMB      47              0.0000000000
      5544        47  SAPS      H3X            -9.5149672866       28.5570994620       15.9033933493  MEMB      47              0.0000000000
      5545        47  SAPS      H3Y           -11.0386112699       28.9649683261       15.0051523336  MEMB      47              0.0000000000
      5546        47  SAPS      C34           -11.0753934634       27.0099688892       15.3960816527  MEMB      47              0.0000000000
      5547        47  SAPS      H4X           -12.1472342758       27.1096096153       15.1174419566  MEMB      47              0.0000000000
      5548        47  SAPS      H4Y           -10.8858839632       26.5075497354       16.3586548513  MEMB      47              0.0000000000
      5549        47  SAPS      C35           -10.3742375457       26.2630874551       14.2822744054  MEMB      47              0.0000000000
      5550        47  SAPS      H5X           -10.5918010071       25.1953829969       14.4208472323  MEMB      47              0.0000000000
      5551        47  SAPS      H5Y            -9.3292528084       26.4158889875       14.5391007471  MEMB      47              0.0000000000
      5552        47  SAPS      C36           -10.7479502878       26.6347887710       12.8506321368  MEMB      47              0.0000000000
      5553        47  SAPS      H6X           -10.1540771858       27.5513974887       12.5989500966  MEMB      47              0.0000000000
      5554        47  SAPS      H6Y           -11.8020997617       26.9216132670       12.7198312282  MEMB      47              0.0000000000
      5555        47  SAPS      C37           -10.6697660203       25.5648546050       11.7494931574  MEMB      47              0.0000000000
      5556        47  SAPS      H7X           -11.4271947134       24.7915548022       11.6490535134  MEMB      47              0.0000000000
      5557        47  SAPS      H7Y            -9.7954013291       24.8769923272       11.9328391411  MEMB      47              0.0000000000
      5558        47  SAPS      C38           -10.7636735521       26.5323685320       10.5094695156  MEMB      47              0.0000000000
      5559        47  SAPS      H8X           -10.0538191931       27.3291079004       10.7610034105  MEMB      47              0.0000000000
      5560        47  SAPS      H8Y           -11.6972737422       26.9835645317       10.2699495036  MEMB      47              0.0000000000
      5561        47  SAPS      C39           -10.4342784519       25.8823504690        9.2383347974  MEMB      47              0.0000000000
      5562        47  SAPS      H9X           -10.9361973160       24.9164501205        9.4113896131  MEMB      47              0.0000000000
      5563        47  SAPS      H9Y            -9.4023792275       25.8998203906        9.6281846976  MEMB      47              0.0000000000
      5564        47  SAPS      C310          -10.5054525531       26.0705961331        7.6649304081  MEMB      47              0.0000000000
      5565        47  SAPS      H10X          -10.5498356351       25.1252164607        7.0652766379  MEMB      47              0.0000000000
      5566        47  SAPS      H10Y           -9.7220747774       26.5541272698        7.0387720749  MEMB      47              0.0000000000
      5567        47  SAPS      C311          -11.6282392053       26.7872786849        7.3342434602  MEMB      47              0.0000000000
      5568        47  SAPS      H11X          -11.2609550155       27.7040688276        7.8522363286  MEMB      47              0.0000000000
      5569        47  SAPS      H11Y          -12.3888188172       26.1539031117        7.8476007539  MEMB      47              0.0000000000
      5570        47  SAPS      C312          -11.6487207408       26.8718018967        5.8400336032  MEMB      47              0.0000000000
      5571        47  SAPS      H12X          -10.6549333332       26.9221576788        5.3252817269  MEMB      47              0.0000000000
      5572        47  SAPS      H12Y          -12.1236368976       27.8542925533        5.7183737097  MEMB      47              0.0000000000
      5573        47  SAPS      C313          -12.4940689600       25.7683620559        5.2539429773  MEMB      47              0.0000000000
      5574        47  SAPS      H13X          -13.4996368798       25.8745159889        5.7084250735  MEMB      47              0.0000000000
      5575        47  SAPS      H13Y          -12.1418980133       24.7445425895        5.5127215519  MEMB      47              0.0000000000
      5576        47  SAPS      C314          -12.5674028335       25.9702250002        3.7597005270  MEMB      47              0.0000000000
      5577        47  SAPS      H14X          -11.5679764399       26.1769984738        3.3275130685  MEMB      47              0.0000000000
      5578        47  SAPS      H14Y          -13.1998183966       26.8686725112        3.5646562921  MEMB      47              0.0000000000
      5579        47  SAPS      C315          -13.1260414190       24.7600665414        3.0689227731  MEMB      47              0.0000000000
      5580        47  SAPS      H15X          -13.8819068694       25.1407543546        2.3477955510  MEMB      47              0.0000000000
      5581        47  SAPS      H15Y          -13.4451434736       23.9010145080        3.7145447781  MEMB      47              0.0000000000
      5582        47  SAPS      C316          -12.2898731823       24.2042076917        2.0527547277  MEMB      47              0.0000000000
      5583        47  SAPS      H16X          -12.3514845677       23.1111561569        1.8550326006  MEMB      47              0.0000000000
      5584        47  SAPS      H16Y          -11.4201060415       24.2727975775        2.4975365146  MEMB      47              0.0000000000
      5585        47  SAPS      C317          -12.1651824609       25.0853726540        0.8937596514  MEMB      47              0.0000000000
      5586        47  SAPS      H17X          -11.7520356355       26.1079881627        1.0185401088  MEMB      47              0.0000000000
      5587        47  SAPS      H17Y          -13.1462783529       25.2542830713        0.4285837152  MEMB      47              0.0000000000
      5588        47  SAPS      C318          -11.3058553456       24.2818615957        0.0229632143  MEMB      47              0.0000000000
      5589        47  SAPS      H18X          -10.9188909737       25.0372280210       -0.6215225445  MEMB      47              0.0000000000
      5590        47  SAPS      H18Y          -11.8022619403       23.6071210207       -0.7257185535  MEMB      47              0.0000000000
      5591        47  SAPS      H18Z          -10.2668842190       24.1137901661        0.2895519533  MEMB      47              0.0000000000
      5592        48  POPC      N               5.1499336547       28.1409306442       20.2019343591  MEMB      48              0.0000000000
      5593        48  POPC      C12             4.6978644364       28.9967435193       19.0422580896  MEMB      48              0.0000000000
      5594        48  POPC      H12A            5.5698150115       29.4442264202       18.5887968362  MEMB      48              0.0000000000
      5595        48  POPC      H12B            4.0718222380       29.8012930715       19.4234556480  MEMB      48              0.0000000000
      5596        48  POPC      C13             5.7882825499       26.8763328007       19.7193375697  MEMB      48              0.0000000000
      5597        48  POPC      H13A            6.2040604057       26.3162647262       20.5400498022  MEMB      48              0.0000000000
      5598        48  POPC      H13B            5.0642308046       26.2759738238       19.1863611997  MEMB      48              0.0000000000
      5599        48  POPC      H13C            6.6048855593       27.1051356339       19.0354074512  MEMB      48              0.0000000000
      5600        48  POPC      C14             6.2002061189       28.8726643412       20.9507602745  MEMB      48              0.0000000000
      5601        48  POPC      H14A            7.0959378388       28.8979052572       20.3313265662  MEMB      48              0.0000000000
      5602        48  POPC      H14B            5.8613353714       29.8736102891       21.1884107220  MEMB      48              0.0000000000
      5603        48  POPC      H14C            6.4329145381       28.3676690997       21.8759546413  MEMB      48              0.0000000000
      5604        48  POPC      C15             3.9531310724       27.8767411630       21.0638935675  MEMB      48              0.0000000000
      5605        48  POPC      H15A            3.4582883578       28.8242255476       21.2977863285  MEMB      48              0.0000000000
      5606        48  POPC      H15B            4.1776275997       27.3542402049       21.9808056625  MEMB      48              0.0000000000
      5607        48  POPC      H15C            3.2046191721       27.3439707850       20.4731895124  MEMB      48              0.0000000000
      5608        48  POPC      C11             3.8808493562       28.3212982168       17.9322153154  MEMB      48              0.0000000000
      5609        48  POPC      H11A            4.4484172977       27.4859029950       17.4813616397  MEMB      48              0.0000000000
      5610        48  POPC      H11B            3.7123520880       29.0969475946       17.1448122409  MEMB      48              0.0000000000
      5611        48  POPC      P               1.2587961447       28.3512012236       18.0310181451  MEMB      48              0.0000000000
      5612        48  POPC      O13             1.2538048158       29.7981384521       18.3574867341  MEMB      48              0.0000000000
      5613        48  POPC      O14             0.3438658737       27.4008158204       18.6989830242  MEMB      48              0.0000000000
      5614        48  POPC      O12             2.6750477433       27.7808229985       18.4281285420  MEMB      48              0.0000000000
      5615        48  POPC      O11             1.1440713918       28.1599557993       16.4682019709  MEMB      48              0.0000000000
      5616        48  POPC      C1              1.2861384772       26.8640238047       15.9162399751  MEMB      48              0.0000000000
      5617        48  POPC      HA              0.5112729298       26.7252168732       15.1344589682  MEMB      48              0.0000000000
      5618        48  POPC      HB              1.1546169073       26.0513258662       16.6699626689  MEMB      48              0.0000000000
      5619        48  POPC      C2              2.6543780469       26.7134995477       15.2480398290  MEMB      48              0.0000000000
      5620        48  POPC      HS              3.3172350268       26.2834988040       16.0486120745  MEMB      48              0.0000000000
      5621        48  POPC      O21             3.1829692476       27.9781384016       14.8486086996  MEMB      48              0.0000000000
      5622        48  POPC      C21             4.4655470765       28.0766973836       14.6367267883  MEMB      48              0.0000000000
      5623        48  POPC      O22             5.3065962449       27.2135168492       14.8108196035  MEMB      48              0.0000000000
      5624        48  POPC      C22             4.7328237281       29.4590731735       14.0882123120  MEMB      48              0.0000000000
      5625        48  POPC      H2R             5.4291643983       29.9921183806       14.7658268676  MEMB      48              0.0000000000
      5626        48  POPC      H2S             3.7731328141       30.0202288542       14.0696033734  MEMB      48              0.0000000000
      5627        48  POPC      C3              2.5321184870       25.7928191638       14.0018208911  MEMB      48              0.0000000000
      5628        48  POPC      HX              2.2139656993       24.7656250903       14.3319805315  MEMB      48              0.0000000000
      5629        48  POPC      HY              3.5671339068       25.8734321852       13.6403050923  MEMB      48              0.0000000000
      5630        48  POPC      O31             1.8115660895       26.2276718083       12.8503448797  MEMB      48              0.0000000000
      5631        48  POPC      C31             2.0595250710       25.4720099098       11.7535992800  MEMB      48              0.0000000000
      5632        48  POPC      O32             2.6155467902       24.4158889192       11.6810760369  MEMB      48              0.0000000000
      5633        48  POPC      C32             1.4302038609       25.9704142096       10.5284099176  MEMB      48              0.0000000000
      5634        48  POPC      H2X             2.1734233652       26.5670656019        9.9557194144  MEMB      48              0.0000000000
      5635        48  POPC      H2Y             0.5858983359       26.5849404669       10.8785371476  MEMB      48              0.0000000000
      5636        48  POPC      C23             5.2758674317       29.3424529742       12.6507096423  MEMB      48              0.0000000000
      5637        48  POPC      H3R             5.9596724835       28.4743156323       12.5189903724  MEMB      48              0.0000000000
      5638        48  POPC      H3S             5.8575755082       30.2769731756       12.4783585613  MEMB      48              0.0000000000
      5639        48  POPC      C24             4.1226153246       29.2200392933       11.6385415280  MEMB      48              0.0000000000
      5640        48  POPC      H4R             3.4380143021       30.0694881228       11.8530160460  MEMB      48              0.0000000000
      5641        48  POPC      H4S             3.5505259154       28.2731851752       11.7752320546  MEMB      48              0.0000000000
      5642        48  POPC      C25             4.5067426382       29.2309940981       10.1536131272  MEMB      48              0.0000000000
      5643        48  POPC      H5R             3.5672844739       29.1776610840        9.5629945384  MEMB      48              0.0000000000
      5644        48  POPC      H5S             5.0856225443       28.3206431721        9.9134871535  MEMB      48              0.0000000000
      5645        48  POPC      C26             5.3406676177       30.4384005808        9.7454814685  MEMB      48              0.0000000000
      5646        48  POPC      H6R             6.2595688190       30.4256968930       10.3703994772  MEMB      48              0.0000000000
      5647        48  POPC      H6S             4.7722352104       31.3731086372        9.9428129965  MEMB      48              0.0000000000
      5648        48  POPC      C27             5.7307899669       30.4932567329        8.2647264369  MEMB      48              0.0000000000
      5649        48  POPC      H7R             6.1258553061       29.5211031904        7.8973075111  MEMB      48              0.0000000000
      5650        48  POPC      H7S             6.5605942777       31.2365695467        8.2218349070  MEMB      48              0.0000000000
      5651        48  POPC      C28             4.5517085759       30.9833016697        7.4064584745  MEMB      48              0.0000000000
      5652        48  POPC      H8R             4.0701154298       31.8300176277        7.9532879861  MEMB      48              0.0000000000
      5653        48  POPC      H8S             3.7973945995       30.1723531317        7.3465540499  MEMB      48              0.0000000000
      5654        48  POPC      C29             4.9256800494       31.4428635668        6.0246670328  MEMB      48              0.0000000000
      5655        48  POPC      H91             5.1895064353       32.5113705293        5.9652669365  MEMB      48              0.0000000000
      5656        48  POPC      C210            4.8341568382       30.7254365886        4.8878008655  MEMB      48              0.0000000000
      5657        48  POPC      H101            5.1109251019       31.2110802934        3.9403772625  MEMB      48              0.0000000000
      5658        48  POPC      C211            4.3441631656       29.3052487355        4.7296124080  MEMB      48              0.0000000000
      5659        48  POPC      H11R            4.6882614901       28.6475199101        5.5602455740  MEMB      48              0.0000000000
      5660        48  POPC      H11S            4.7709953155       28.8648618075        3.8085102301  MEMB      48              0.0000000000
      5661        48  POPC      C212            2.8126786716       29.1568592445        4.6719126055  MEMB      48              0.0000000000
      5662        48  POPC      H12R            2.3796400896       29.4292029194        5.6584312060  MEMB      48              0.0000000000
      5663        48  POPC      H12S            2.5948570855       28.0804861377        4.4959935889  MEMB      48              0.0000000000
      5664        48  POPC      C213            2.0882648953       29.9555479226        3.5799561542  MEMB      48              0.0000000000
      5665        48  POPC      H13R            2.4560978153       29.6143755329        2.5912898668  MEMB      48              0.0000000000
      5666        48  POPC      H13S            2.3711530228       31.0308097662        3.6657483690  MEMB      48              0.0000000000
      5667        48  POPC      C214            0.5543805079       29.7884188486        3.7061610016  MEMB      48              0.0000000000
      5668        48  POPC      H14R            0.0015757617       30.3282343938        2.9308673745  MEMB      48              0.0000000000
      5669        48  POPC      H14S            0.2288443816       30.2467848241        4.6671787151  MEMB      48              0.0000000000
      5670        48  POPC      C215            0.0019096340       28.3715722934        3.6409191818  MEMB      48              0.0000000000
      5671        48  POPC      H15R           -1.0664722844       28.3730175032        3.9490521882  MEMB      48              0.0000000000
      5672        48  POPC      H15S            0.5559602861       27.7462970370        4.3666119211  MEMB      48              0.0000000000
      5673        48  POPC      C216            0.0728706067       27.7141617861        2.2660031512  MEMB      48              0.0000000000
      5674        48  POPC      H16R           -0.3683573310       26.7009578272        2.3707432461  MEMB      48              0.0000000000
      5675        48  POPC      H16S            1.1405010437       27.6228526364        1.9639697946  MEMB      48              0.0000000000
      5676        48  POPC      C217           -0.5449169067       28.4559461918        1.0971631950  MEMB      48              0.0000000000
      5677        48  POPC      H17R           -0.0279605074       29.4340123789        1.0560935784  MEMB      48              0.0000000000
      5678        48  POPC      H17S           -1.6403893935       28.6718920978        1.1593970669  MEMB      48              0.0000000000
      5679        48  POPC      C218           -0.1804916204       27.7241267728       -0.1830376801  MEMB      48              0.0000000000
      5680        48  POPC      H18R            0.8589011821       27.8824247897       -0.5144611243  MEMB      48              0.0000000000
      5681        48  POPC      H18S           -0.7308621836       28.1659527913       -1.0194127536  MEMB      48              0.0000000000
      5682        48  POPC      H18T           -0.4168291040       26.6459374546       -0.1222497413  MEMB      48              0.0000000000
      5683        48  POPC      C33             1.0390490494       24.6975212032        9.7305892230  MEMB      48              0.0000000000
      5684        48  POPC      H3X             0.4889061829       23.9464605939       10.3439463128  MEMB      48              0.0000000000
      5685        48  POPC      H3Y             1.9328051742       24.1411515217        9.3515264294  MEMB      48              0.0000000000
      5686        48  POPC      C34             0.1465276899       25.0295708589        8.5563314065  MEMB      48              0.0000000000
      5687        48  POPC      H4X            -0.7934007545       25.4753068990        8.9614316517  MEMB      48              0.0000000000
      5688        48  POPC      H4Y            -0.1055457726       24.0635107836        8.0653521620  MEMB      48              0.0000000000
      5689        48  POPC      C35             0.7909019046       26.0255621785        7.5833586520  MEMB      48              0.0000000000
      5690        48  POPC      H5X             0.8366199908       27.0096302021        8.0813337324  MEMB      48              0.0000000000
      5691        48  POPC      H5Y             0.1473114325       26.1074509791        6.6758327093  MEMB      48              0.0000000000
      5692        48  POPC      C36             2.2130512200       25.7462959111        7.0932824295  MEMB      48              0.0000000000
      5693        48  POPC      H6X             3.0202444970       25.7165576687        7.8593570836  MEMB      48              0.0000000000
      5694        48  POPC      H6Y             2.4354504044       26.5445289782        6.3537462789  MEMB      48              0.0000000000
      5695        48  POPC      C37             2.2392269000       24.4186665393        6.4092819076  MEMB      48              0.0000000000
      5696        48  POPC      H7X             1.3597468663       24.3827072933        5.7449169338  MEMB      48              0.0000000000
      5697        48  POPC      H7Y             2.0595747944       23.6958874255        7.2259027512  MEMB      48              0.0000000000
      5698        48  POPC      C38             3.5182029643       24.2175649555        5.6097767827  MEMB      48              0.0000000000
      5699        48  POPC      H8X             3.8911248993       23.2332197685        5.2916585216  MEMB      48              0.0000000000
      5700        48  POPC      H8Y             4.3080268377       24.1686082626        6.3757801900  MEMB      48              0.0000000000
      5701        48  POPC      C39             3.5128692480       25.2375962584        4.4398242939  MEMB      48              0.0000000000
      5702        48  POPC      H9X             3.8370651986       26.1887131952        4.9047070172  MEMB      48              0.0000000000
      5703        48  POPC      H9Y             2.5574218170       25.2508587466        3.8879826867  MEMB      48              0.0000000000
      5704        48  POPC      C310            4.4224140333       25.0982865333        3.2575700717  MEMB      48              0.0000000000
      5705        48  POPC      H10X            4.2358753528       24.1462993563        2.7343234244  MEMB      48              0.0000000000
      5706        48  POPC      H10Y            5.4085841713       24.9748944505        3.5436668621  MEMB      48              0.0000000000
      5707        48  POPC      C311            4.9866901482       26.3367557688        2.5375348536  MEMB      48              0.0000000000
      5708        48  POPC      H11X            5.9479295913       26.2003984233        1.9707723229  MEMB      48              0.0000000000
      5709        48  POPC      H11Y            5.3588573185       27.0981369303        3.2364126179  MEMB      48              0.0000000000
      5710        48  POPC      C312            3.9489994699       26.5921388743        1.5187531964  MEMB      48              0.0000000000
      5711        48  POPC      H12X            2.9685005203       26.4994213405        2.0211229325  MEMB      48              0.0000000000
      5712        48  POPC      H12Y            4.0102146993       25.7482734040        0.7878681243  MEMB      48              0.0000000000
      5713        48  POPC      C313            4.1354772287       27.9640152053        0.9353088438  MEMB      48              0.0000000000
      5714        48  POPC      H13X            4.2225616970       28.6827069369        1.7774967497  MEMB      48              0.0000000000
      5715        48  POPC      H13Y            3.2333262017       28.1892375644        0.3368411940  MEMB      48              0.0000000000
      5716        48  POPC      C314            5.3993261384       28.0071206991        0.0902549238  MEMB      48              0.0000000000
      5717        48  POPC      H14X            5.2247516086       27.3150454592       -0.7635449518  MEMB      48              0.0000000000
      5718        48  POPC      H14Y            6.2574215385       27.6498904788        0.7008253140  MEMB      48              0.0000000000
      5719        48  POPC      C315            5.8081609273       29.3534687266       -0.4771854699  MEMB      48              0.0000000000
      5720        48  POPC      H15X            6.7009279226       29.1523601929       -1.1167169669  MEMB      48              0.0000000000
      5721        48  POPC      H15Y            6.1078563960       30.0291179055        0.3551539035  MEMB      48              0.0000000000
      5722        48  POPC      C316            4.7288454116       30.0102485607       -1.3207370161  MEMB      48              0.0000000000
      5723        48  POPC      H16X            4.2301092144       29.2446456363       -1.9550877729  MEMB      48              0.0000000000
      5724        48  POPC      H16Y            5.1793088173       30.7721273898       -1.9863531887  MEMB      48              0.0000000000
      5725        48  POPC      H16Z            3.9848414491       30.5026344057       -0.6587707914  MEMB      48              0.0000000000
      5726        49  SAPS      N              14.5110141729       22.6351040743       21.1176670506  MEMB      49              0.0000000000
      5727        49  SAPS      HN1            14.7770094885       22.9112745061       22.0833155521  MEMB      49              0.0000000000
      5728        49  SAPS      HN2            13.4893338968       22.8343661920       21.0004992808  MEMB      49              0.0000000000
      5729        49  SAPS      HN3            14.7550470869       21.6466181950       20.9220473088  MEMB      49              0.0000000000
      5730        49  SAPS      C12            15.2614551530       23.5876199619       20.2480013590  MEMB      49              0.0000000000
      5731        49  SAPS      H12A           14.9530978397       23.4254913040       19.2257032590  MEMB      49              0.0000000000
      5732        49  SAPS      C13            14.9206198682       25.0302233634       20.6313887797  MEMB      49              0.0000000000
      5733        49  SAPS      O13A           14.1577269859       25.2333110208       21.6220381488  MEMB      49              0.0000000000
      5734        49  SAPS      O13B           15.3746889966       25.9390282511       19.9092269892  MEMB      49              0.0000000000
      5735        49  SAPS      C11            16.7903261022       23.3592919785       20.4288875562  MEMB      49              0.0000000000
      5736        49  SAPS      H11A           16.9596736959       22.2674325989       20.3373851807  MEMB      49              0.0000000000
      5737        49  SAPS      H11B           17.1074873757       23.6658742623       21.4533092975  MEMB      49              0.0000000000
      5738        49  SAPS      P              19.0926872463       23.6906248321       19.2786109834  MEMB      49              0.0000000000
      5739        49  SAPS      O13            19.8365508532       24.7467635243       18.5677987796  MEMB      49              0.0000000000
      5740        49  SAPS      O14            19.5702982458       23.2333613958       20.6045089395  MEMB      49              0.0000000000
      5741        49  SAPS      O12            17.5633474610       24.0580508284       19.4421471376  MEMB      49              0.0000000000
      5742        49  SAPS      O11            18.9511365019       22.4114835143       18.3744745072  MEMB      49              0.0000000000
      5743        49  SAPS      C1             17.9666041659       22.5198017888       17.3286479555  MEMB      49              0.0000000000
      5744        49  SAPS      HA             16.9370995371       22.4444795419       17.7228309223  MEMB      49              0.0000000000
      5745        49  SAPS      HB             18.1262578608       23.4466103659       16.7211477429  MEMB      49              0.0000000000
      5746        49  SAPS      C2             18.0827481156       21.3906165982       16.3502870885  MEMB      49              0.0000000000
      5747        49  SAPS      HS             17.8326566418       20.4328155868       16.8680738798  MEMB      49              0.0000000000
      5748        49  SAPS      O21            19.4314840498       21.4679782165       16.0521781156  MEMB      49              0.0000000000
      5749        49  SAPS      C21            19.7284499507       20.4674103696       15.4059265899  MEMB      49              0.0000000000
      5750        49  SAPS      O22            19.0915174822       19.4242596808       15.2938144026  MEMB      49              0.0000000000
      5751        49  SAPS      C22            20.9151894017       21.0096880692       14.7676848380  MEMB      49              0.0000000000
      5752        49  SAPS      H2R            21.3708725338       21.8820218249       15.2508097891  MEMB      49              0.0000000000
      5753        49  SAPS      H2S            21.6165998910       20.3273514057       14.9037584405  MEMB      49              0.0000000000
      5754        49  SAPS      C3             17.2305430077       21.5678792800       15.0618382114  MEMB      49              0.0000000000
      5755        49  SAPS      HX             16.2068932557       21.7641250256       15.4491596450  MEMB      49              0.0000000000
      5756        49  SAPS      HY             17.2269820497       20.6359831890       14.4516775130  MEMB      49              0.0000000000
      5757        49  SAPS      O31            17.7319497995       22.6460019946       14.2458582916  MEMB      49              0.0000000000
      5758        49  SAPS      C31            16.8004730938       23.1231703550       13.4578345721  MEMB      49              0.0000000000
      5759        49  SAPS      O32            15.6415760876       22.7416372991       13.4057128279  MEMB      49              0.0000000000
      5760        49  SAPS      C32            17.3982440537       24.1758858581       12.5719876956  MEMB      49              0.0000000000
      5761        49  SAPS      H2X            18.2330468512       23.7584148476       11.9716415053  MEMB      49              0.0000000000
      5762        49  SAPS      H2Y            17.7392927993       25.0671197524       13.1346341256  MEMB      49              0.0000000000
      5763        49  SAPS      C23            21.3578765168       20.6559996104       13.4195425251  MEMB      49              0.0000000000
      5764        49  SAPS      H3R            20.8512969031       19.7823539130       13.1591396550  MEMB      49              0.0000000000
      5765        49  SAPS      H3S            22.4933610394       20.4500699446       13.4032353224  MEMB      49              0.0000000000
      5766        49  SAPS      C24            20.6973399639       21.6746911167       12.6364463090  MEMB      49              0.0000000000
      5767        49  SAPS      H4R            21.0028343840       22.3752548412       13.3394872166  MEMB      49              0.0000000000
      5768        49  SAPS      H4S            19.7367708627       21.9932152398       13.0302039019  MEMB      49              0.0000000000
      5769        49  SAPS      C25            20.9851007634       22.0629799133       11.2226907815  MEMB      49              0.0000000000
      5770        49  SAPS      H5R            22.0399874374       22.0253872725       10.8915088236  MEMB      49              0.0000000000
      5771        49  SAPS      C26            20.0277812662       21.8820062297       10.3458849114  MEMB      49              0.0000000000
      5772        49  SAPS      H6R            20.3948215554       21.7320965095        9.3108926880  MEMB      49              0.0000000000
      5773        49  SAPS      C27            18.7139825264       21.2454502738       10.8641968312  MEMB      49              0.0000000000
      5774        49  SAPS      H7R            18.5362723129       21.1667928781       11.9530523668  MEMB      49              0.0000000000
      5775        49  SAPS      H7S            18.5591913038       20.1642103753       10.8263985878  MEMB      49              0.0000000000
      5776        49  SAPS      C28            17.5974932358       21.6236344608       10.0441099796  MEMB      49              0.0000000000
      5777        49  SAPS      H8R            17.2747574858       22.5522358781       10.4495678489  MEMB      49              0.0000000000
      5778        49  SAPS      C29            16.9885160952       21.1058054635        8.9729073461  MEMB      49              0.0000000000
      5779        49  SAPS      H9R            16.1217884496       21.6262236461        8.6312685832  MEMB      49              0.0000000000
      5780        49  SAPS      C210           17.1595055663       19.9173641442        8.1255856747  MEMB      49              0.0000000000
      5781        49  SAPS      H10R           16.4895444200       19.8148280469        7.2852277086  MEMB      49              0.0000000000
      5782        49  SAPS      H10S           16.9320248218       19.0479309850        8.7586833231  MEMB      49              0.0000000000
      5783        49  SAPS      C211           18.3844805203       19.8865224597        7.3610211752  MEMB      49              0.0000000000
      5784        49  SAPS      H11R           19.1139719295       19.3720307965        7.8493587343  MEMB      49              0.0000000000
      5785        49  SAPS      C212           18.7368448263       20.0180171759        6.1493321186  MEMB      49              0.0000000000
      5786        49  SAPS      H12R           19.7784615736       20.0597054638        5.9433488758  MEMB      49              0.0000000000
      5787        49  SAPS      C213           17.9675087954       20.2889697799        5.0220786316  MEMB      49              0.0000000000
      5788        49  SAPS      H13R           17.8088030114       21.3391292037        5.1422088517  MEMB      49              0.0000000000
      5789        49  SAPS      H13S           17.1625758730       19.5630166029        4.9682604946  MEMB      49              0.0000000000
      5790        49  SAPS      C214           18.8230673698       20.0535959503        3.9224073221  MEMB      49              0.0000000000
      5791        49  SAPS      H14R           18.5494963062       19.1468029370        3.6638224116  MEMB      49              0.0000000000
      5792        49  SAPS      C215           19.7846588037       20.6188560003        3.3126943589  MEMB      49              0.0000000000
      5793        49  SAPS      H15R           20.2585355531       20.2035485349        2.3860520928  MEMB      49              0.0000000000
      5794        49  SAPS      C216           20.1128153383       21.8762903227        3.9151164946  MEMB      49              0.0000000000
      5795        49  SAPS      H16R           21.0401971308       21.6645705101        4.1831515225  MEMB      49              0.0000000000
      5796        49  SAPS      H16S           19.9179868959       21.9967113723        4.9913387370  MEMB      49              0.0000000000
      5797        49  SAPS      C217           20.4107553869       22.9567597782        2.9279739372  MEMB      49              0.0000000000
      5798        49  SAPS      H17R           19.4341551829       23.4227376851        2.8251696897  MEMB      49              0.0000000000
      5799        49  SAPS      H17S           20.7176102260       22.5886343834        1.9149683582  MEMB      49              0.0000000000
      5800        49  SAPS      C218           21.5171334180       23.8842001247        3.4127269040  MEMB      49              0.0000000000
      5801        49  SAPS      H18R           22.5430833548       23.4636171548        3.3219206949  MEMB      49              0.0000000000
      5802        49  SAPS      H18S           21.3214430837       24.1402006041        4.4755794489  MEMB      49              0.0000000000
      5803        49  SAPS      C219           21.4975698475       25.1278909589        2.5646608404  MEMB      49              0.0000000000
      5804        49  SAPS      H19R           21.5671680538       24.7894582203        1.5028709744  MEMB      49              0.0000000000
      5805        49  SAPS      H19S           22.3979191523       25.7358002872        2.8028665623  MEMB      49              0.0000000000
      5806        49  SAPS      C220           20.2108117039       25.9145608470        2.7809502459  MEMB      49              0.0000000000
      5807        49  SAPS      H20R           20.2376059684       26.8379951167        2.2175341192  MEMB      49              0.0000000000
      5808        49  SAPS      H20S           20.0264699862       26.1708852770        3.8452827100  MEMB      49              0.0000000000
      5809        49  SAPS      H20T           19.3331263106       25.3748191335        2.3782364629  MEMB      49              0.0000000000
      5810        49  SAPS      C33            16.3574930554       24.6372062752       11.6059832141  MEMB      49              0.0000000000
      5811        49  SAPS      H3X            15.5763626357       25.2269372941       12.1684110319  MEMB      49              0.0000000000
      5812        49  SAPS      H3Y            15.7982431068       23.8386862469       11.0693013706  MEMB      49              0.0000000000
      5813        49  SAPS      C34            17.0988271445       25.4426284350       10.5396070739  MEMB      49              0.0000000000
      5814        49  SAPS      H4X            17.4605362325       26.4085826367       10.9698067669  MEMB      49              0.0000000000
      5815        49  SAPS      H4Y            16.1240778811       25.4559586421       10.0502793937  MEMB      49              0.0000000000
      5816        49  SAPS      C35            17.7313671578       24.9049312162        9.2136285924  MEMB      49              0.0000000000
      5817        49  SAPS      H5X            17.0943114743       24.0309430178        8.9993191590  MEMB      49              0.0000000000
      5818        49  SAPS      H5Y            18.7528100581       24.7121609329        9.5680408488  MEMB      49              0.0000000000
      5819        49  SAPS      C36            17.8576943465       25.7384448347        7.8797113545  MEMB      49              0.0000000000
      5820        49  SAPS      H6X            18.6418361658       26.4752446695        8.1435441034  MEMB      49              0.0000000000
      5821        49  SAPS      H6Y            16.9774396885       26.1985185217        7.3634905412  MEMB      49              0.0000000000
      5822        49  SAPS      C37            18.5145173833       25.3473905012        6.6184747779  MEMB      49              0.0000000000
      5823        49  SAPS      H7X            19.5684115217       25.3027343179        6.9165268385  MEMB      49              0.0000000000
      5824        49  SAPS      H7Y            18.4285577682       26.1907477424        5.8876303492  MEMB      49              0.0000000000
      5825        49  SAPS      C38            17.8521018432       24.0827681234        6.1506775022  MEMB      49              0.0000000000
      5826        49  SAPS      H8X            18.0357497239       23.3751733633        6.9822398099  MEMB      49              0.0000000000
      5827        49  SAPS      H8Y            18.4135829189       23.8063146677        5.2436543650  MEMB      49              0.0000000000
      5828        49  SAPS      C39            16.3188922525       24.0686121331        5.9144599681  MEMB      49              0.0000000000
      5829        49  SAPS      H9X            15.7416871537       24.3061164883        6.8387306428  MEMB      49              0.0000000000
      5830        49  SAPS      H9Y            16.0013712058       23.0725733347        5.5529802580  MEMB      49              0.0000000000
      5831        49  SAPS      C310           15.8729052149       25.0778735514        4.9007856109  MEMB      49              0.0000000000
      5832        49  SAPS      H10X           16.2358526554       26.0086526821        5.3913996485  MEMB      49              0.0000000000
      5833        49  SAPS      H10Y           14.7743826438       25.2097384160        4.7888180532  MEMB      49              0.0000000000
      5834        49  SAPS      C311           16.5051165829       24.9501989940        3.5059086935  MEMB      49              0.0000000000
      5835        49  SAPS      H11X           17.5637437633       25.2806630993        3.5262618020  MEMB      49              0.0000000000
      5836        49  SAPS      H11Y           15.9439249154       25.5947653370        2.7913441097  MEMB      49              0.0000000000
      5837        49  SAPS      C312           16.2274324322       23.6960046488        2.8091480060  MEMB      49              0.0000000000
      5838        49  SAPS      H12X           15.2190741417       23.3330502422        3.1149807234  MEMB      49              0.0000000000
      5839        49  SAPS      H12Y           17.0322269500       23.0109461271        3.1544348818  MEMB      49              0.0000000000
      5840        49  SAPS      C313           16.1591782144       23.9278744206        1.3097363808  MEMB      49              0.0000000000
      5841        49  SAPS      H13X           17.1817992326       24.1211895642        0.8875500157  MEMB      49              0.0000000000
      5842        49  SAPS      H13Y           15.4203726150       24.6420162741        0.8988596524  MEMB      49              0.0000000000
      5843        49  SAPS      C314           15.6659794824       22.6792716863        0.7879904386  MEMB      49              0.0000000000
      5844        49  SAPS      H14X           15.7515780818       22.8585679188       -0.2783800329  MEMB      49              0.0000000000
      5845        49  SAPS      H14Y           14.6054841730       22.3543673194        0.8895247541  MEMB      49              0.0000000000
      5846        49  SAPS      C315           16.6387711191       21.6296171480        1.3020074007  MEMB      49              0.0000000000
      5847        49  SAPS      H15X           16.5387735186       21.1740187030        2.3166608108  MEMB      49              0.0000000000
      5848        49  SAPS      H15Y           17.5855855224       22.1654970681        1.2970627220  MEMB      49              0.0000000000
      5849        49  SAPS      C316           16.4250751802       20.4679197379        0.4047710273  MEMB      49              0.0000000000
      5850        49  SAPS      H16X           15.4474379064       20.7333915740        0.6764236551  MEMB      49              0.0000000000
      5851        49  SAPS      H16Y           16.3635553306       19.5923013265        0.8196759109  MEMB      49              0.0000000000
      5852        49  SAPS      C317           16.9770646162       19.6364320179       -1.1113136697  MEMB      49              0.0000000000
      5853        49  SAPS      H17X           16.4508581909       20.3763076346       -1.6370521314  MEMB      49              0.0000000000
      5854        49  SAPS      H17Y           17.3289064464       18.7954950562       -1.5790417999  MEMB      49              0.0000000000
      5855        49  SAPS      C318           18.9477207147       18.9750399985       -1.6052507678  MEMB      49              0.0000000000
      5856        49  SAPS      H18X           19.7493405357       19.6447467951       -2.1007342143  MEMB      49              0.0000000000
      5857        49  SAPS      H18Y           19.6005661032       18.8766002149       -0.8797948896  MEMB      49              0.0000000000
      5858        49  SAPS      H18Z           19.6910041351       19.9074066168       -1.7107647142  MEMB      49              0.0000000000
      5859        50  OSM       N             -24.4258806452       17.0444691569       21.9122890363  MEMB      50              0.0000000000
      5860        50  OSM       C15           -23.7522075154       16.7175060747       23.2206656128  MEMB      50              0.0000000000
      5861        50  OSM       H15A          -22.9818377929       17.4472662997       23.4406285881  MEMB      50              0.0000000000
      5862        50  OSM       H15B          -23.2469910257       15.7471413904       23.2069998942  MEMB      50              0.0000000000
      5863        50  OSM       H15C          -24.4573913542       16.6766877169       24.0395369338  MEMB      50              0.0000000000
      5864        50  OSM       C14           -25.4093114566       15.9550376719       21.6749097284  MEMB      50              0.0000000000
      5865        50  OSM       H14A          -26.1785083396       15.9673031086       22.4335843504  MEMB      50              0.0000000000
      5866        50  OSM       H14B          -24.9119964104       14.9887502136       21.7292998692  MEMB      50              0.0000000000
      5867        50  OSM       H14C          -25.8528858117       16.0692187341       20.6981928261  MEMB      50              0.0000000000
      5868        50  OSM       C13           -25.1737685307       18.3525490900       21.9962769364  MEMB      50              0.0000000000
      5869        50  OSM       H13A          -25.9509033584       18.2877196643       22.7450757487  MEMB      50              0.0000000000
      5870        50  OSM       H13B          -25.6236585045       18.6130315485       21.0420771989  MEMB      50              0.0000000000
      5871        50  OSM       H13C          -24.5315902292       19.1959289674       22.2621824349  MEMB      50              0.0000000000
      5872        50  OSM       C12           -23.3903085759       17.0002804964       20.7816167006  MEMB      50              0.0000000000
      5873        50  OSM       H12A          -23.8552944871       17.3175143252       19.8541863711  MEMB      50              0.0000000000
      5874        50  OSM       H12B          -23.0289663767       15.9878037340       20.6719035451  MEMB      50              0.0000000000
      5875        50  OSM       C11           -22.0909643503       17.7961435558       20.9089089733  MEMB      50              0.0000000000
      5876        50  OSM       H11A          -21.4051601571       17.5311672022       20.0660291165  MEMB      50              0.0000000000
      5877        50  OSM       H11B          -21.5695047079       17.5730701495       21.8586867832  MEMB      50              0.0000000000
      5878        50  OSM       P             -21.5540228669       20.2227128916       20.2024119991  MEMB      50              0.0000000000
      5879        50  OSM       O13           -21.8707980702       21.4128300104       20.9971089982  MEMB      50              0.0000000000
      5880        50  OSM       O14           -20.1472067843       19.7839672014       20.0164222126  MEMB      50              0.0000000000
      5881        50  OSM       O11           -22.3022151160       20.2927604964       18.8122757168  MEMB      50              0.0000000000
      5882        50  OSM       O12           -22.4440220950       19.1340437320       20.8850692034  MEMB      50              0.0000000000
      5883        50  OSM       C1S           -23.5889510947       20.9212177823       18.8015569157  MEMB      50              0.0000000000
      5884        50  OSM       H1S           -23.4967779372       22.0033043720       19.0868341499  MEMB      50              0.0000000000
      5885        50  OSM       H1T           -24.2814192045       20.4390090794       19.5045685387  MEMB      50              0.0000000000
      5886        50  OSM       NF            -24.5732787332       19.4973985154       17.0445596868  MEMB      50              0.0000000000
      5887        50  OSM       HNF           -23.9204813805       19.0353052834       16.4592270456  MEMB      50              0.0000000000
      5888        50  OSM       C2S           -24.1675595005       20.8152499420       17.3720614961  MEMB      50              0.0000000000
      5889        50  OSM       H2S           -25.0108311471       21.5537863504       17.2665139394  MEMB      50              0.0000000000
      5890        50  OSM       C3S           -23.1085357730       21.2000446793       16.4276639584  MEMB      50              0.0000000000
      5891        50  OSM       H3S           -22.3056445858       20.4402139849       16.2829346938  MEMB      50              0.0000000000
      5892        50  OSM       O3            -22.4540608170       22.3122438589       17.0192615785  MEMB      50              0.0000000000
      5893        50  OSM       HO3           -22.9710293552       22.6598747620       17.7423269849  MEMB      50              0.0000000000
      5894        50  OSM       C4S           -23.7492380826       21.2831345337       15.0271783244  MEMB      50              0.0000000000
      5895        50  OSM       H4S           -23.9913234787       20.3476953920       14.5194150228  MEMB      50              0.0000000000
      5896        50  OSM       C5S           -24.1362597142       22.3550145977       14.3773246588  MEMB      50              0.0000000000
      5897        50  OSM       H5S           -23.8341292303       23.3190714746       14.8059134656  MEMB      50              0.0000000000
      5898        50  OSM       C6S           -24.7308943759       22.4456018298       13.0204520895  MEMB      50              0.0000000000
      5899        50  OSM       H6S           -24.1231340163       23.2672929456       12.5963839029  MEMB      50              0.0000000000
      5900        50  OSM       H6T           -25.7902643564       22.7696230542       13.1337047011  MEMB      50              0.0000000000
      5901        50  OSM       C7S           -24.6409756849       21.3325212110       11.9814691549  MEMB      50              0.0000000000
      5902        50  OSM       H7S           -25.2249745651       20.5032706930       12.4211395485  MEMB      50              0.0000000000
      5903        50  OSM       H7T           -23.5906326877       21.0332571041       11.7927842487  MEMB      50              0.0000000000
      5904        50  OSM       C8S           -25.3315366080       21.6038951686       10.6518092074  MEMB      50              0.0000000000
      5905        50  OSM       H8S           -25.0415916551       22.5679190067       10.1740263857  MEMB      50              0.0000000000
      5906        50  OSM       H8T           -26.4123666203       21.6139146443       10.9195577620  MEMB      50              0.0000000000
      5907        50  OSM       C9S           -25.1645353146       20.4566802780        9.6697753066  MEMB      50              0.0000000000
      5908        50  OSM       H9S           -25.7737450408       20.6958820456        8.7764136916  MEMB      50              0.0000000000
      5909        50  OSM       H9T           -25.4795563717       19.4997564650       10.1230993113  MEMB      50              0.0000000000
      5910        50  OSM       C10S          -23.7970223810       20.2211434272        9.1304615757  MEMB      50              0.0000000000
      5911        50  OSM       H10S          -23.8115330804       19.3580474138        8.4248747007  MEMB      50              0.0000000000
      5912        50  OSM       H10T          -23.0085538113       20.0195543766        9.8922193253  MEMB      50              0.0000000000
      5913        50  OSM       C11S          -23.4418156181       21.3297527227        8.2384440626  MEMB      50              0.0000000000
      5914        50  OSM       H11S          -23.1724601723       22.2023917911        8.8115400958  MEMB      50              0.0000000000
      5915        50  OSM       H11T          -24.1672441790       21.8167931928        7.5710975629  MEMB      50              0.0000000000
      5916        50  OSM       C12S          -22.3049611149       20.7849513063        7.4713125818  MEMB      50              0.0000000000
      5917        50  OSM       H12S          -21.4817025547       20.4354605175        8.1635887446  MEMB      50              0.0000000000
      5918        50  OSM       H12T          -22.2765964903       21.7409850199        6.8883201659  MEMB      50              0.0000000000
      5919        50  OSM       C13S          -22.3284853583       19.8324692754        6.3493098361  MEMB      50              0.0000000000
      5920        50  OSM       H13S          -23.3235395119       20.0762184742        5.9458935768  MEMB      50              0.0000000000
      5921        50  OSM       H13T          -22.1753983279       18.8626359541        6.8696362446  MEMB      50              0.0000000000
      5922        50  OSM       C14S          -21.2893554337       19.9436771869        5.2216633523  MEMB      50              0.0000000000
      5923        50  OSM       H14S          -21.3474701369       18.9433300228        4.7446071093  MEMB      50              0.0000000000
      5924        50  OSM       H14T          -20.2492028902       20.0077238809        5.5747642369  MEMB      50              0.0000000000
      5925        50  OSM       C15S          -21.6563053318       20.9564567654        4.1283735693  MEMB      50              0.0000000000
      5926        50  OSM       H15S          -21.4032925390       22.0010479144        4.3846471052  MEMB      50              0.0000000000
      5927        50  OSM       H15T          -22.7612821441       20.9535030266        4.0480345238  MEMB      50              0.0000000000
      5928        50  OSM       C16S          -21.0938058501       20.5815192188        2.7488973192  MEMB      50              0.0000000000
      5929        50  OSM       H16S          -21.6752335589       19.7027643045        2.3918120524  MEMB      50              0.0000000000
      5930        50  OSM       H16T          -20.0417015201       20.2782202953        2.7263840838  MEMB      50              0.0000000000
      5931        50  OSM       C17S          -21.2648331450       21.6478326646        1.6937707272  MEMB      50              0.0000000000
      5932        50  OSM       H17S          -20.8778454150       21.2247177511        0.7620900944  MEMB      50              0.0000000000
      5933        50  OSM       H17T          -20.8890266948       22.6663200590        1.9451115595  MEMB      50              0.0000000000
      5934        50  OSM       C18S          -22.6738094422       21.8410838559        1.4794319231  MEMB      50              0.0000000000
      5935        50  OSM       H18S          -23.1571559195       20.9111609854        1.5033116694  MEMB      50              0.0000000000
      5936        50  OSM       H18T          -22.9433684100       22.4413463349        0.5847468643  MEMB      50              0.0000000000
      5937        50  OSM       H18U          -22.9885199461       22.2350367993        2.4451989830  MEMB      50              0.0000000000
      5938        50  OSM       C1F           -25.6013823620       18.9157678569       17.6039237510  MEMB      50              0.0000000000
      5939        50  OSM       OF            -26.2290571396       19.4545709613       18.5068990744  MEMB      50              0.0000000000
      5940        50  OSM       C2F           -25.8775584559       17.5398327642       17.1284425214  MEMB      50              0.0000000000
      5941        50  OSM       H2F           -26.3293054487       16.9767761916       17.9731442547  MEMB      50              0.0000000000
      5942        50  OSM       H2G           -24.9127586351       17.0665948674       16.8494870368  MEMB      50              0.0000000000
      5943        50  OSM       C3F           -26.8491054371       17.5938295051       15.9292837816  MEMB      50              0.0000000000
      5944        50  OSM       H3F           -27.7261241924       18.2166882663       16.2392934483  MEMB      50              0.0000000000
      5945        50  OSM       H3G           -27.2672000189       16.5822125926       15.7495233254  MEMB      50              0.0000000000
      5946        50  OSM       C4F           -26.2658650903       18.1751873359       14.6103400423  MEMB      50              0.0000000000
      5947        50  OSM       H4F           -25.9938087467       19.2346522924       14.7919005733  MEMB      50              0.0000000000
      5948        50  OSM       H4G           -27.0989759368       18.2174714258       13.8721985884  MEMB      50              0.0000000000
      5949        50  OSM       C5F           -25.0572858110       17.4170149541       14.0016661193  MEMB      50              0.0000000000
      5950        50  OSM       H5F           -25.3397000380       16.3482428080       13.8747179739  MEMB      50              0.0000000000
      5951        50  OSM       H5G           -24.1652695969       17.4229320435       14.6625868067  MEMB      50              0.0000000000
      5952        50  OSM       C6F           -24.6207633148       17.8897286437       12.5981697417  MEMB      50              0.0000000000
      5953        50  OSM       H6F           -24.0065516772       18.8143997435       12.6455741740  MEMB      50              0.0000000000
      5954        50  OSM       H6G           -25.5408157845       18.1263643895       12.0184469681  MEMB      50              0.0000000000
      5955        50  OSM       C7F           -23.8339927668       16.7765244152       11.8722044663  MEMB      50              0.0000000000
      5956        50  OSM       H7F           -24.5291764011       15.9213615065       11.7130855691  MEMB      50              0.0000000000
      5957        50  OSM       H7G           -23.0347019087       16.4042151000       12.5485467306  MEMB      50              0.0000000000
      5958        50  OSM       C8F           -23.1654603020       17.2030878990       10.5487043091  MEMB      50              0.0000000000
      5959        50  OSM       H8F           -22.4850330803       18.0573124618       10.7517785972  MEMB      50              0.0000000000
      5960        50  OSM       H8G           -23.9495406261       17.5691016320        9.8480788261  MEMB      50              0.0000000000
      5961        50  OSM       C9F           -22.3665010725       16.0737933930        9.9436207252  MEMB      50              0.0000000000
      5962        50  OSM       H9F           -21.2785333462       16.1516916234       10.0957939263  MEMB      50              0.0000000000
      5963        50  OSM       C10F          -22.8797693330       15.1108106773        9.1524039732  MEMB      50              0.0000000000
      5964        50  OSM       H10F          -22.2380850068       14.3141373299        8.7376949717  MEMB      50              0.0000000000
      5965        50  OSM       C11F          -24.3336004452       15.0370186550        8.7613555291  MEMB      50              0.0000000000
      5966        50  OSM       H11F          -24.9898500859       15.5470080545        9.5068957182  MEMB      50              0.0000000000
      5967        50  OSM       H11G          -24.6997352511       13.9899886429        8.6994034998  MEMB      50              0.0000000000
      5968        50  OSM       C12F          -24.5387586787       15.7467051486        7.4094534581  MEMB      50              0.0000000000
      5969        50  OSM       H12F          -24.2697852117       16.8236534089        7.5225062479  MEMB      50              0.0000000000
      5970        50  OSM       H12G          -25.6253314134       15.6941522000        7.1871991404  MEMB      50              0.0000000000
      5971        50  OSM       C13F          -23.7829096871       15.1279477111        6.2154872661  MEMB      50              0.0000000000
      5972        50  OSM       H13F          -24.0263569374       14.0445627102        6.1618945123  MEMB      50              0.0000000000
      5973        50  OSM       H13G          -22.6929277722       15.2022035082        6.3967912274  MEMB      50              0.0000000000
      5974        50  OSM       C14F          -24.1486360236       15.7784556408        4.8676841192  MEMB      50              0.0000000000
      5975        50  OSM       H14F          -25.2530428437       15.8648742098        4.8006866965  MEMB      50              0.0000000000
      5976        50  OSM       H14G          -23.8134657485       15.1602349828        4.0037393330  MEMB      50              0.0000000000
      5977        50  OSM       C15F          -23.6293819907       17.2038167609        4.6875844970  MEMB      50              0.0000000000
      5978        50  OSM       H15F          -22.6079222855       17.2925780927        5.1081855517  MEMB      50              0.0000000000
      5979        50  OSM       H15G          -24.2799185078       17.8927878313        5.2639723416  MEMB      50              0.0000000000
      5980        50  OSM       C16F          -23.6197060224       17.6325787380        3.2235401738  MEMB      50              0.0000000000
      5981        50  OSM       H16F          -22.7061755981       17.2449967401        2.7404567335  MEMB      50              0.0000000000
      5982        50  OSM       H16G          -23.5331200408       18.7339052423        3.1401241024  MEMB      50              0.0000000000
      5983        50  OSM       C17F          -24.8185810296       17.1648490671        2.4003903025  MEMB      50              0.0000000000
      5984        50  OSM       H17F          -25.0041282139       16.0764709640        2.3645593070  MEMB      50              0.0000000000
      5985        50  OSM       H17G          -24.4914653974       17.4356200885        1.3942580751  MEMB      50              0.0000000000
      5986        50  OSM       C18F          -26.1449361241       17.8229480712        2.7071719399  MEMB      50              0.0000000000
      5987        50  OSM       H18F          -26.8257109394       17.6874270609        1.8693363808  MEMB      50              0.0000000000
      5988        50  OSM       H18G          -26.1209856591       18.9358876955        2.8379921457  MEMB      50              0.0000000000
      5989        50  OSM       H18H          -26.6399848251       17.3638817740        3.5559910328  MEMB      50              0.0000000000
      5990        51  CHL1      C3            -28.2810841228       -7.8807068122       17.4117352999  MEMB      51              0.0000000000
      5991        51  CHL1      H3            -27.3414919489       -7.3490001335       17.6621786117  MEMB      51              0.0000000000
      5992        51  CHL1      O3            -28.9260623916       -7.6953800129       18.6412351256  MEMB      51              0.0000000000
      5993        51  CHL1      H3'           -29.6477207277       -8.3515043328       18.6510651806  MEMB      51              0.0000000000
      5994        51  CHL1      C4            -29.1417669899       -7.3419995706       16.1833681935  MEMB      51              0.0000000000
      5995        51  CHL1      H4A           -30.1950293058       -7.6412284871       16.2476964742  MEMB      51              0.0000000000
      5996        51  CHL1      H4B           -29.1824755748       -6.2404027644       16.3753661576  MEMB      51              0.0000000000
      5997        51  CHL1      C5            -28.6343327696       -7.6796366030       14.7552035447  MEMB      51              0.0000000000
      5998        51  CHL1      C6            -28.5790363619       -6.8139663467       13.7124271845  MEMB      51              0.0000000000
      5999        51  CHL1      H6            -28.9788346912       -5.8164098801       13.7629802911  MEMB      51              0.0000000000
      6000        51  CHL1      C7            -27.7526585085       -6.8243394980       12.4687704878  MEMB      51              0.0000000000
      6001        51  CHL1      H7A           -28.1820295975       -6.0951433243       11.7584145702  MEMB      51              0.0000000000
      6002        51  CHL1      H7B           -26.6721237283       -6.5035589624       12.5406743907  MEMB      51              0.0000000000
      6003        51  CHL1      C8            -27.7081230348       -8.2669686084       12.1596108485  MEMB      51              0.0000000000
      6004        51  CHL1      H8            -28.7539615577       -8.5915247486       11.9794482933  MEMB      51              0.0000000000
      6005        51  CHL1      C14           -26.8920819402       -8.3326990617       10.9358033484  MEMB      51              0.0000000000
      6006        51  CHL1      H14           -25.8362937339       -8.0144669107       11.1435281184  MEMB      51              0.0000000000
      6007        51  CHL1      C15           -27.4164079378       -7.5519925740        9.7260481133  MEMB      51              0.0000000000
      6008        51  CHL1      H15A          -28.5169464302       -7.6442057306        9.6597594150  MEMB      51              0.0000000000
      6009        51  CHL1      H15B          -27.0313122979       -6.5267776903        9.7205370038  MEMB      51              0.0000000000
      6010        51  CHL1      C16           -26.8954099722       -8.2348267278        8.5225043662  MEMB      51              0.0000000000
      6011        51  CHL1      H16A          -27.7029749573       -8.5773278672        7.8238811114  MEMB      51              0.0000000000
      6012        51  CHL1      H16B          -26.1623336027       -7.6790738040        7.9491814222  MEMB      51              0.0000000000
      6013        51  CHL1      C17           -26.1984798395       -9.3780273806        9.1093527060  MEMB      51              0.0000000000
      6014        51  CHL1      H17           -25.1769964384       -9.3051845048        9.5783602415  MEMB      51              0.0000000000
      6015        51  CHL1      C13           -26.8054779278       -9.6869421735       10.5084822829  MEMB      51              0.0000000000
      6016        51  CHL1      C18           -28.2354267345      -10.2255136081       10.2915110496  MEMB      51              0.0000000000
      6017        51  CHL1      H18A          -28.1921120116      -11.1379165322        9.7169321669  MEMB      51              0.0000000000
      6018        51  CHL1      H18B          -28.7703655837      -10.4092796650       11.2438679127  MEMB      51              0.0000000000
      6019        51  CHL1      H18C          -28.8714385610       -9.6583828957        9.6098777127  MEMB      51              0.0000000000
      6020        51  CHL1      C12           -25.8458482191      -10.3579315189       11.5759021786  MEMB      51              0.0000000000
      6021        51  CHL1      H12A          -25.3333441207      -11.2641068479       11.2355438274  MEMB      51              0.0000000000
      6022        51  CHL1      H12B          -24.9107210710       -9.7750190055       11.6785626552  MEMB      51              0.0000000000
      6023        51  CHL1      C11           -26.5768413190      -10.4484195329       12.9195658727  MEMB      51              0.0000000000
      6024        51  CHL1      H11A          -27.4390247617      -11.1277635723       12.8615376038  MEMB      51              0.0000000000
      6025        51  CHL1      H11B          -25.9278355094      -10.8400167407       13.7203281023  MEMB      51              0.0000000000
      6026        51  CHL1      C9            -27.0818770091       -9.0565352627       13.3282846402  MEMB      51              0.0000000000
      6027        51  CHL1      H9            -26.1329208423       -8.5025280209       13.5393311577  MEMB      51              0.0000000000
      6028        51  CHL1      C10           -27.9354597435       -9.0182316516       14.6307068469  MEMB      51              0.0000000000
      6029        51  CHL1      C19           -29.1611110255       -9.9464924387       14.5596346787  MEMB      51              0.0000000000
      6030        51  CHL1      H19A          -28.8525924934      -11.0023613377       14.6533532921  MEMB      51              0.0000000000
      6031        51  CHL1      H19B          -29.8623475017       -9.7351202719       15.3997669627  MEMB      51              0.0000000000
      6032        51  CHL1      H19C          -29.6990162094       -9.8114295654       13.6056730908  MEMB      51              0.0000000000
      6033        51  CHL1      C1            -27.0939624593       -9.4493878388       15.8603800136  MEMB      51              0.0000000000
      6034        51  CHL1      H1A           -26.8322868452      -10.5144337533       15.7008963200  MEMB      51              0.0000000000
      6035        51  CHL1      H1B           -26.1446534474       -8.8712862838       15.8787013418  MEMB      51              0.0000000000
      6036        51  CHL1      C2            -27.8184999602       -9.3159338856       17.2171622350  MEMB      51              0.0000000000
      6037        51  CHL1      H2A           -27.1078528184       -9.5625343560       18.0369012306  MEMB      51              0.0000000000
      6038        51  CHL1      H2B           -28.6919425446       -9.9892640296       17.3048872067  MEMB      51              0.0000000000
      6039        51  CHL1      C20           -26.2120236804      -10.3269799019        7.9389705334  MEMB      51              0.0000000000
      6040        51  CHL1      H20           -27.3092290495      -10.6466846955        7.9875283119  MEMB      51              0.0000000000
      6041        51  CHL1      C21           -25.2767536769      -11.0984579150        8.7175058247  MEMB      51              0.0000000000
      6042        51  CHL1      H21A          -25.1912819847      -12.0774566446        8.4701212266  MEMB      51              0.0000000000
      6043        51  CHL1      H21B          -26.0665039904      -11.2830181205        9.3893371606  MEMB      51              0.0000000000
      6044        51  CHL1      H21C          -24.2556906441      -11.3997513871        8.8244364086  MEMB      51              0.0000000000
      6045        51  CHL1      C22           -25.6917865817      -10.1047000976        6.4402153647  MEMB      51              0.0000000000
      6046        51  CHL1      H22A          -26.2825935115       -9.2475038067        6.1368469426  MEMB      51              0.0000000000
      6047        51  CHL1      H22B          -24.6606180666      -10.0268420321        6.7843303994  MEMB      51              0.0000000000
      6048        51  CHL1      C23           -25.5989485972      -11.0806142890        5.1657556345  MEMB      51              0.0000000000
      6049        51  CHL1      H23A          -24.6883410013      -11.7935497928        5.1241972207  MEMB      51              0.0000000000
      6050        51  CHL1      H23B          -26.5309559200      -11.6023529187        4.9736560637  MEMB      51              0.0000000000
      6051        51  CHL1      C24           -24.9877177071      -10.8798140736        3.9413015334  MEMB      51              0.0000000000
      6052        51  CHL1      H24A          -24.1091643043      -10.3832847385        4.3219928631  MEMB      51              0.0000000000
      6053        51  CHL1      H24B          -24.6774135565      -11.7672660123        3.3011335834  MEMB      51              0.0000000000
      6054        51  CHL1      C25           -25.8874934371       -9.9063698048        3.3886767286  MEMB      51              0.0000000000
      6055        51  CHL1      H25           -25.9475022070       -9.0704256862        4.1331673931  MEMB      51              0.0000000000
      6056        51  CHL1      C26           -25.0374716396       -9.6311086590        2.2889753446  MEMB      51              0.0000000000
      6057        51  CHL1      H26A          -25.2993018304       -8.7311294852        1.7475339290  MEMB      51              0.0000000000
      6058        51  CHL1      H26B          -24.2891463941       -9.2988975528        3.0078055639  MEMB      51              0.0000000000
      6059        51  CHL1      H26C          -24.5153056070      -10.4496621498        1.7438443891  MEMB      51              0.0000000000
      6060        51  CHL1      C27           -27.1866601555      -10.3766415974        2.8877992172  MEMB      51              0.0000000000
      6061        51  CHL1      H27A          -27.8198735146      -10.8145168891        3.6880416260  MEMB      51              0.0000000000
      6062        51  CHL1      H27B          -27.6612221393       -9.5527861525        2.3546107548  MEMB      51              0.0000000000
      6063        51  CHL1      H27C          -26.8788656745      -11.1257470563        2.1486014305  MEMB      51              0.0000000000
      6064        52  CHL1      C3             28.2147230899       11.8995478533       17.3645127548  MEMB      52              0.0000000000
      6065        52  CHL1      H3             28.9651178283       12.7259944545       17.3738160934  MEMB      52              0.0000000000
      6066        52  CHL1      O3             27.9307189670       11.4598279690       18.6742373134  MEMB      52              0.0000000000
      6067        52  CHL1      H3'            28.2947600486       12.1623057451       19.2397762303  MEMB      52              0.0000000000
      6068        52  CHL1      C4             26.9237472804       12.4133993967       16.7666270770  MEMB      52              0.0000000000
      6069        52  CHL1      H4A            26.1027743466       11.6747012660       16.8111245162  MEMB      52              0.0000000000
      6070        52  CHL1      H4B            26.6036482064       13.3119141466       17.3491057359  MEMB      52              0.0000000000
      6071        52  CHL1      C5             27.0614515655       12.6619840446       15.3203093285  MEMB      52              0.0000000000
      6072        52  CHL1      C6             26.5333426159       13.7093846369       14.8000805647  MEMB      52              0.0000000000
      6073        52  CHL1      H6             26.3666456375       14.6036223854       15.4916065367  MEMB      52              0.0000000000
      6074        52  CHL1      C7             26.8546268935       13.7839970419       13.3282981744  MEMB      52              0.0000000000
      6075        52  CHL1      H7A            26.2614000928       14.5860502175       13.4904409791  MEMB      52              0.0000000000
      6076        52  CHL1      H7B            27.6032592269       14.3747712223       12.6421890147  MEMB      52              0.0000000000
      6077        52  CHL1      C8             27.1704879206       12.9127253863       12.2215971103  MEMB      52              0.0000000000
      6078        52  CHL1      H8             26.1205782625       12.6364198866       12.2341616031  MEMB      52              0.0000000000
      6079        52  CHL1      C14            27.7051051935       13.5082845516       10.7827050026  MEMB      52              0.0000000000
      6080        52  CHL1      H14            28.6459383961       14.1078817788       10.9022226061  MEMB      52              0.0000000000
      6081        52  CHL1      C15            26.9218262359       14.3464166635        9.7437202969  MEMB      52              0.0000000000
      6082        52  CHL1      H15A           25.8379202394       14.1207407893        9.8739460459  MEMB      52              0.0000000000
      6083        52  CHL1      H15B           27.2629178695       15.3749678775        9.9407415716  MEMB      52              0.0000000000
      6084        52  CHL1      C16            27.1379652830       14.4263200583        8.4149362749  MEMB      52              0.0000000000
      6085        52  CHL1      H16A           26.0823810453       14.3264366236        8.0079982491  MEMB      52              0.0000000000
      6086        52  CHL1      H16B           27.5414637121       15.4403775340        8.1343107340  MEMB      52              0.0000000000
      6087        52  CHL1      C17            28.0639554147       13.2475638879        8.5581477925  MEMB      52              0.0000000000
      6088        52  CHL1      H17            29.0770563530       13.6866188199        8.6320959287  MEMB      52              0.0000000000
      6089        52  CHL1      C13            27.8953498314       12.4888342018        9.8790609352  MEMB      52              0.0000000000
      6090        52  CHL1      C18            26.5896300156       11.7761428733        9.7743778393  MEMB      52              0.0000000000
      6091        52  CHL1      H18A           26.4850280043       11.3028368625       10.7174615181  MEMB      52              0.0000000000
      6092        52  CHL1      H18B           25.6501545200       12.3349938029        9.5671942553  MEMB      52              0.0000000000
      6093        52  CHL1      H18C           26.6482147405       10.9688578634        9.0555622014  MEMB      52              0.0000000000
      6094        52  CHL1      C12            29.0417988598       11.7499637679       10.5572787298  MEMB      52              0.0000000000
      6095        52  CHL1      H12A           29.3937214852       11.0321256047        9.8254522481  MEMB      52              0.0000000000
      6096        52  CHL1      H12B           29.8377610115       12.4962753207       10.8050426254  MEMB      52              0.0000000000
      6097        52  CHL1      C11            28.6770497167       11.0435755945       11.8867856040  MEMB      52              0.0000000000
      6098        52  CHL1      H11A           27.9133089034       10.2883282744       11.6777057623  MEMB      52              0.0000000000
      6099        52  CHL1      H11B           29.5962313754       10.6056676569       12.3205478992  MEMB      52              0.0000000000
      6100        52  CHL1      C9             28.1759665094       12.0278902022       12.9206830676  MEMB      52              0.0000000000
      6101        52  CHL1      H9             29.1937984888       12.4119231113       13.0796185232  MEMB      52              0.0000000000
      6102        52  CHL1      C10            27.8449310124       11.6631615236       14.4091191956  MEMB      52              0.0000000000
      6103        52  CHL1      C19            26.8325700175       10.6171968129       14.1831068078  MEMB      52              0.0000000000
      6104        52  CHL1      H19A           26.5321106813       10.0486956779       15.0758962238  MEMB      52              0.0000000000
      6105        52  CHL1      H19B           26.0635236725       11.2982670833       13.8105296194  MEMB      52              0.0000000000
      6106        52  CHL1      H19C           26.9642388496        9.9540852384       13.3252889163  MEMB      52              0.0000000000
      6107        52  CHL1      C1             29.0894228007       11.1518912658       15.1398454261  MEMB      52              0.0000000000
      6108        52  CHL1      H1A            29.5222733154       10.3100676580       14.5647981531  MEMB      52              0.0000000000
      6109        52  CHL1      H1B            29.8305637878       11.9785708574       15.1502578575  MEMB      52              0.0000000000
      6110        52  CHL1      C2             28.7975324099       10.7289494657       16.5810026945  MEMB      52              0.0000000000
      6111        52  CHL1      H2A            29.7365637352       10.3894102387       17.0636436989  MEMB      52              0.0000000000
      6112        52  CHL1      H2B            28.0662059887        9.8946501329       16.5988393573  MEMB      52              0.0000000000
      6113        52  CHL1      C20            27.7426928588       12.5011001330        7.3553776375  MEMB      52              0.0000000000
      6114        52  CHL1      H20            26.6611724025       12.1977164153        7.2916086449  MEMB      52              0.0000000000
      6115        52  CHL1      C21            28.6323064610       11.2799823496        7.2771908663  MEMB      52              0.0000000000
      6116        52  CHL1      H21A           28.3765802447       10.5478681559        8.0609904760  MEMB      52              0.0000000000
      6117        52  CHL1      H21B           29.6831981477       11.6213619504        7.3688941490  MEMB      52              0.0000000000
      6118        52  CHL1      H21C           28.4706523738       10.7524438579        6.3256343035  MEMB      52              0.0000000000
      6119        52  CHL1      C22            27.9885670295       13.4718163751        6.2332940299  MEMB      52              0.0000000000
      6120        52  CHL1      H22A           27.2243357526       14.2945221780        6.2085047035  MEMB      52              0.0000000000
      6121        52  CHL1      H22B           28.9835233434       13.9604378325        6.3457537172  MEMB      52              0.0000000000
      6122        52  CHL1      C23            27.9117067817       12.6801373226        4.9342008335  MEMB      52              0.0000000000
      6123        52  CHL1      H23A           28.7545728622       11.9931372772        4.8535735114  MEMB      52              0.0000000000
      6124        52  CHL1      H23B           26.9372337170       12.1111810302        4.9830939865  MEMB      52              0.0000000000
      6125        52  CHL1      C24            28.1239801395       13.6202217729        3.7484633270  MEMB      52              0.0000000000
      6126        52  CHL1      H24A           27.4858481025       14.2400350566        4.3126600390  MEMB      52              0.0000000000
      6127        52  CHL1      H24B           28.7904836381       14.4593869523        3.6981276890  MEMB      52              0.0000000000
      6128        52  CHL1      C25            27.9619585932       13.1334815547        2.2815096247  MEMB      52              0.0000000000
      6129        52  CHL1      H25            27.1548955654       12.3350182717        2.4201964585  MEMB      52              0.0000000000
      6130        52  CHL1      C26            27.7920685459       14.1969746935        1.0086098812  MEMB      52              0.0000000000
      6131        52  CHL1      H26A           28.1288627114       14.0207511523       -0.0197872217  MEMB      52              0.0000000000
      6132        52  CHL1      H26B           26.7454611590       14.5053360783        0.8132439429  MEMB      52              0.0000000000
      6133        52  CHL1      H26C           28.0497399951       15.1999385677        0.9509359962  MEMB      52              0.0000000000
      6134        52  CHL1      C27            28.9824133941       12.2514163412        1.8827435722  MEMB      52              0.0000000000
      6135        52  CHL1      H27A           28.4211921625       11.7434238628        1.0876054542  MEMB      52              0.0000000000
      6136        52  CHL1      H27B           29.6687253731       13.0821273937        1.6163780352  MEMB      52              0.0000000000
      6137        52  CHL1      H27C           29.1823519971       11.5681056415        2.7264687769  MEMB      52              0.0000000000
      6138        53  CHL1      C3              8.7554073809      -29.1214230949       17.3063091365  MEMB      53              0.0000000000
      6139        53  CHL1      H3              9.1600960018      -30.0871974061       16.9198727471  MEMB      53              0.0000000000
      6140        53  CHL1      O3              8.9059933488      -29.0996765283       18.7133754252  MEMB      53              0.0000000000
      6141        53  CHL1      H3'             8.6130219897      -28.2173025913       18.9606229260  MEMB      53              0.0000000000
      6142        53  CHL1      C4              9.5413857364      -27.9383131625       16.7253873344  MEMB      53              0.0000000000
      6143        53  CHL1      H4A             9.2183523930      -26.9816814922       17.1913603591  MEMB      53              0.0000000000
      6144        53  CHL1      H4B            10.5998379775      -28.0904169982       17.0308087280  MEMB      53              0.0000000000
      6145        53  CHL1      C5              9.3748623633      -27.9039548357       15.2215392924  MEMB      53              0.0000000000
      6146        53  CHL1      C6             10.4261569332      -28.0773604738       14.4181118585  MEMB      53              0.0000000000
      6147        53  CHL1      H6             11.4242680611      -28.1725855722       14.8669615126  MEMB      53              0.0000000000
      6148        53  CHL1      C7             10.3056633193      -28.1405425125       12.9245047930  MEMB      53              0.0000000000
      6149        53  CHL1      H7A            11.2061859689      -27.7258061992       12.4257611397  MEMB      53              0.0000000000
      6150        53  CHL1      H7B            10.2640504488      -29.2173480580       12.6539624567  MEMB      53              0.0000000000
      6151        53  CHL1      C8              9.0003581243      -27.4659413714       12.3932559844  MEMB      53              0.0000000000
      6152        53  CHL1      H8              9.0756317499      -26.3668061692       12.5412171932  MEMB      53              0.0000000000
      6153        53  CHL1      C14             8.7938562952      -27.7687751729       10.9115614313  MEMB      53              0.0000000000
      6154        53  CHL1      H14             8.6855190434      -28.8837399131       10.8689299490  MEMB      53              0.0000000000
      6155        53  CHL1      C15             9.9416146848      -27.4934821809        9.9187271372  MEMB      53              0.0000000000
      6156        53  CHL1      H15A           10.4402698746      -26.5100312492       10.0470088955  MEMB      53              0.0000000000
      6157        53  CHL1      H15B           10.7006925330      -28.3037113949        9.9812326448  MEMB      53              0.0000000000
      6158        53  CHL1      C16             9.2325880364      -27.5465165320        8.5597350121  MEMB      53              0.0000000000
      6159        53  CHL1      H16A            9.3634913177      -26.5806039212        8.0208732357  MEMB      53              0.0000000000
      6160        53  CHL1      H16B            9.6853039648      -28.3723619401        7.9769583027  MEMB      53              0.0000000000
      6161        53  CHL1      C17             7.7057900548      -27.7876098708        8.8272999364  MEMB      53              0.0000000000
      6162        53  CHL1      H17             7.5763565219      -28.8903075104        8.9153196815  MEMB      53              0.0000000000
      6163        53  CHL1      C13             7.5003900161      -27.2447317173       10.2683667016  MEMB      53              0.0000000000
      6164        53  CHL1      C18             7.5012221472      -25.7042501416       10.1964653982  MEMB      53              0.0000000000
      6165        53  CHL1      H18A            8.2513976513      -25.3553204397        9.4618312039  MEMB      53              0.0000000000
      6166        53  CHL1      H18B            6.5000406957      -25.3605071811        9.8603163407  MEMB      53              0.0000000000
      6167        53  CHL1      H18C            7.7304208458      -25.2495538630       11.1803081868  MEMB      53              0.0000000000
      6168        53  CHL1      C12             6.2874281038      -27.7554124722       11.0777008855  MEMB      53              0.0000000000
      6169        53  CHL1      H12A            5.3415337431      -27.2720452906       10.7592333295  MEMB      53              0.0000000000
      6170        53  CHL1      H12B            6.1952259436      -28.8462913691       10.8969955105  MEMB      53              0.0000000000
      6171        53  CHL1      C11             6.4288525324      -27.4595694220       12.5827988764  MEMB      53              0.0000000000
      6172        53  CHL1      H11A            6.3622336161      -26.3597371088       12.7226431741  MEMB      53              0.0000000000
      6173        53  CHL1      H11B            5.5480984585      -27.8904534976       13.1075599637  MEMB      53              0.0000000000
      6174        53  CHL1      C9              7.7773591198      -27.9783526049       13.1701965060  MEMB      53              0.0000000000
      6175        53  CHL1      H9              7.7615188137      -29.0776558851       12.9672262725  MEMB      53              0.0000000000
      6176        53  CHL1      C10             7.9295850650      -27.7892606793       14.7074994519  MEMB      53              0.0000000000
      6177        53  CHL1      C19             7.3904998198      -26.3865650522       15.0707514034  MEMB      53              0.0000000000
      6178        53  CHL1      H19A            6.2905967357      -26.4044977023       14.9540858416  MEMB      53              0.0000000000
      6179        53  CHL1      H19B            7.5838546736      -26.1159340061       16.1255178449  MEMB      53              0.0000000000
      6180        53  CHL1      H19C            7.7992284836      -25.6004905797       14.4021805618  MEMB      53              0.0000000000
      6181        53  CHL1      C1              7.0639813110      -28.8632588364       15.4178144858  MEMB      53              0.0000000000
      6182        53  CHL1      H1A             5.9957814071      -28.6110725736       15.2391003003  MEMB      53              0.0000000000
      6183        53  CHL1      H1B             7.2830697703      -29.8389288347       14.9312687263  MEMB      53              0.0000000000
      6184        53  CHL1      C2              7.2739788186      -28.9871835345       16.9383750332  MEMB      53              0.0000000000
      6185        53  CHL1      H2A             6.6948545507      -29.8535220136       17.3252459945  MEMB      53              0.0000000000
      6186        53  CHL1      H2B             6.8944638268      -28.0586274311       17.4161118251  MEMB      53              0.0000000000
      6187        53  CHL1      C20             6.7914158284      -27.3016340414        7.6727178282  MEMB      53              0.0000000000
      6188        53  CHL1      H20             6.7207675670      -26.1920937957        7.7186688794  MEMB      53              0.0000000000
      6189        53  CHL1      C21             5.3543766624      -27.8721967564        7.8281403120  MEMB      53              0.0000000000
      6190        53  CHL1      H21A            5.3122350531      -28.9650210315        7.6345450817  MEMB      53              0.0000000000
      6191        53  CHL1      H21B            4.6651630585      -27.3871505130        7.1078072633  MEMB      53              0.0000000000
      6192        53  CHL1      H21C            4.9493912335      -27.6700026614        8.8349575097  MEMB      53              0.0000000000
      6193        53  CHL1      C22             7.3339772290      -27.6176293010        6.2393957313  MEMB      53              0.0000000000
      6194        53  CHL1      H22A            8.4274714581      -27.7812543407        6.2309929756  MEMB      53              0.0000000000
      6195        53  CHL1      H22B            6.8807036270      -28.5852893029        5.9254876496  MEMB      53              0.0000000000
      6196        53  CHL1      C23             7.0764258989      -26.4980325773        5.1951173329  MEMB      53              0.0000000000
      6197        53  CHL1      H23A            6.7986514771      -26.9366396244        4.2142507616  MEMB      53              0.0000000000
      6198        53  CHL1      H23B            6.1651441765      -25.9381266613        5.5040331601  MEMB      53              0.0000000000
      6199        53  CHL1      C24             8.2334590659      -25.4686795935        5.0092121222  MEMB      53              0.0000000000
      6200        53  CHL1      H24A            7.8602547172      -24.6455167262        4.3621079550  MEMB      53              0.0000000000
      6201        53  CHL1      H24B            8.5279157545      -25.0388206098        5.9899573755  MEMB      53              0.0000000000
      6202        53  CHL1      C25             9.5364102201      -25.8834744515        4.2972884857  MEMB      53              0.0000000000
      6203        53  CHL1      H25            10.0413274271      -26.6854194559        4.8851900324  MEMB      53              0.0000000000
      6204        53  CHL1      C26             9.2712926519      -26.4142721397        2.8981168714  MEMB      53              0.0000000000
      6205        53  CHL1      H26A           10.2486539456      -26.7670282606        2.5536252578  MEMB      53              0.0000000000
      6206        53  CHL1      H26B            8.5868011786      -27.2820155255        2.9124631261  MEMB      53              0.0000000000
      6207        53  CHL1      H26C            8.9060022122      -25.6371922752        2.1918098333  MEMB      53              0.0000000000
      6208        53  CHL1      C27            10.4998238847      -24.6834199010        4.1806846963  MEMB      53              0.0000000000
      6209        53  CHL1      H27A            9.9381233446      -23.7699435719        3.8878115076  MEMB      53              0.0000000000
      6210        53  CHL1      H27B           11.0094971410      -24.4942082356        5.1456883113  MEMB      53              0.0000000000
      6211        53  CHL1      H27C           11.2789581462      -24.8645375109        3.4116576869  MEMB      53              0.0000000000
      6212        54  POPC      N              30.6965426723       -8.2399337115       20.5391304797  MEMB      54              0.0000000000
      6213        54  POPC      C12            29.9479428976       -9.5123165613       20.8283990745  MEMB      54              0.0000000000
      6214        54  POPC      H12A           28.9553559760       -9.2070325596       21.0943048203  MEMB      54              0.0000000000
      6215        54  POPC      H12B           30.4358770445      -10.0250305688       21.6387617714  MEMB      54              0.0000000000
      6216        54  POPC      C13            30.0391063312       -7.5127264410       19.3978843767  MEMB      54              0.0000000000
      6217        54  POPC      H13A           30.0181823786       -8.1749481819       18.5219455191  MEMB      54              0.0000000000
      6218        54  POPC      H13B           29.0235628627       -7.2600585988       19.6339156319  MEMB      54              0.0000000000
      6219        54  POPC      H13C           30.5602818746       -6.6079838601       19.1012906664  MEMB      54              0.0000000000
      6220        54  POPC      C14            30.9343931847       -7.3570715515       21.7007228319  MEMB      54              0.0000000000
      6221        54  POPC      H14A           31.5765873029       -7.8650881110       22.4091336942  MEMB      54              0.0000000000
      6222        54  POPC      H14B           31.4756706043       -6.4555609737       21.4089084608  MEMB      54              0.0000000000
      6223        54  POPC      H14C           30.0047451483       -7.0676762330       22.1636261468  MEMB      54              0.0000000000
      6224        54  POPC      C15            32.0263768606       -8.6505819512       20.2086617138  MEMB      54              0.0000000000
      6225        54  POPC      H15A           32.6410545769       -9.1377654636       20.9333392750  MEMB      54              0.0000000000
      6226        54  POPC      H15B           32.5823012992       -7.7702666769       19.8534011031  MEMB      54              0.0000000000
      6227        54  POPC      H15C           32.0137051193       -9.2988276637       19.3140547378  MEMB      54              0.0000000000
      6228        54  POPC      C11            29.7433672867      -10.5794083448       19.7222689082  MEMB      54              0.0000000000
      6229        54  POPC      H11A           29.2991183871      -11.4481154175       20.2636383093  MEMB      54              0.0000000000
      6230        54  POPC      H11B           30.6941248618      -10.9228824654       19.2347625862  MEMB      54              0.0000000000
      6231        54  POPC      P              28.3931481770      -11.0563066936       17.5735114417  MEMB      54              0.0000000000
      6232        54  POPC      O13            27.4746091156      -10.3019065594       16.6799567792  MEMB      54              0.0000000000
      6233        54  POPC      O14            28.1179598272      -12.4560082485       17.9436043849  MEMB      54              0.0000000000
      6234        54  POPC      O12            28.7703958452      -10.1128952758       18.8004639551  MEMB      54              0.0000000000
      6235        54  POPC      O11            29.8622559000      -10.9636675268       17.0059923846  MEMB      54              0.0000000000
      6236        54  POPC      C1             30.1078377639       -9.7654732981       16.2730273580  MEMB      54              0.0000000000
      6237        54  POPC      HA             31.0779985086       -9.7240260411       16.6067164603  MEMB      54              0.0000000000
      6238        54  POPC      HB             29.6613144259       -8.8627329139       16.6894328179  MEMB      54              0.0000000000
      6239        54  POPC      C2             30.0397071474       -9.6799647025       14.6895502831  MEMB      54              0.0000000000
      6240        54  POPC      HS             28.9829741808       -9.7390029990       14.3746769332  MEMB      54              0.0000000000
      6241        54  POPC      O21            30.7258340959      -10.7288588364       14.0509259400  MEMB      54              0.0000000000
      6242        54  POPC      C21            30.2971104830      -11.8139171118       14.4994695801  MEMB      54              0.0000000000
      6243        54  POPC      O22            29.2331543595      -11.9842477541       15.0195508821  MEMB      54              0.0000000000
      6244        54  POPC      C22            31.2305116161      -12.8620550428       14.0756754188  MEMB      54              0.0000000000
      6245        54  POPC      H2R            31.3665973822      -13.7915277269       14.7259930063  MEMB      54              0.0000000000
      6246        54  POPC      H2S            31.8382207427      -12.4597931791       13.2960153592  MEMB      54              0.0000000000
      6247        54  POPC      C3             30.5827783111       -8.3671875224       14.0523391858  MEMB      54              0.0000000000
      6248        54  POPC      HX             31.4964617676       -8.0035613727       14.4391544953  MEMB      54              0.0000000000
      6249        54  POPC      HY             30.0134368712       -7.4936808243       14.3497047875  MEMB      54              0.0000000000
      6250        54  POPC      O31            30.8934352954       -8.4789255361       12.6485843677  MEMB      54              0.0000000000
      6251        54  POPC      C31            29.7785650847       -8.4214883503       11.9993485722  MEMB      54              0.0000000000
      6252        54  POPC      O32            28.6748803199       -8.3062058465       12.4917889742  MEMB      54              0.0000000000
      6253        54  POPC      C32            30.0957368119       -8.3637100746       10.5257421765  MEMB      54              0.0000000000
      6254        54  POPC      H2X            29.6196116743       -9.1888334647        9.9763320340  MEMB      54              0.0000000000
      6255        54  POPC      H2Y            31.1966339965       -8.4391546041       10.4074015992  MEMB      54              0.0000000000
      6256        54  POPC      C23            30.7858456538      -13.5248303790       12.8647085582  MEMB      54              0.0000000000
      6257        54  POPC      H3R            29.8303907668      -13.6964979942       13.4584378365  MEMB      54              0.0000000000
      6258        54  POPC      H3S            30.9575278463      -14.6583484607       13.2045806336  MEMB      54              0.0000000000
      6259        54  POPC      C24            30.7401408763      -12.9322536139       11.0711937629  MEMB      54              0.0000000000
      6260        54  POPC      H4R            30.0392576874      -12.0513507538       10.8655415801  MEMB      54              0.0000000000
      6261        54  POPC      H4S            30.0555860546      -13.4665524985       10.3665678392  MEMB      54              0.0000000000
      6262        54  POPC      C25            31.4610816574      -12.1990038921        9.9144584495  MEMB      54              0.0000000000
      6263        54  POPC      H5R            30.7798110973      -12.1673351345        9.0055660472  MEMB      54              0.0000000000
      6264        54  POPC      H5S            32.3134911923      -12.4968494805        9.3558110993  MEMB      54              0.0000000000
      6265        54  POPC      C26            31.9549293090      -10.9777306564       10.4804213483  MEMB      54              0.0000000000
      6266        54  POPC      H6R            31.8099402080      -11.1011197066       11.5759090163  MEMB      54              0.0000000000
      6267        54  POPC      H6S            31.2029347281      -10.3142087371       10.1136512831  MEMB      54              0.0000000000
      6268        54  POPC      C27            33.3760089654      -10.8793651691        9.9564389470  MEMB      54              0.0000000000
      6269        54  POPC      H7R            33.9915411281      -11.7572595424       10.2241754539  MEMB      54              0.0000000000
      6270        54  POPC      H7S            33.8610928878      -10.0434128603       10.4479745240  MEMB      54              0.0000000000
      6271        54  POPC      C28            33.4247350090      -10.9771856613        8.4242513999  MEMB      54              0.0000000000
      6272        54  POPC      H8R            33.0844141000      -11.7977726159        7.8151076440  MEMB      54              0.0000000000
      6273        54  POPC      H8S            34.4420368521      -11.2121392776        8.1826057630  MEMB      54              0.0000000000
      6274        54  POPC      C29            32.4601441030      -10.0494306690        7.8993295356  MEMB      54              0.0000000000
      6275        54  POPC      H91            32.5852783090       -9.2215956487        8.5505361000  MEMB      54              0.0000000000
      6276        54  POPC      C210           31.5012554827      -10.1166928089        6.9972762528  MEMB      54              0.0000000000
      6277        54  POPC      H101           31.2312663478       -9.1951977355        6.4699737139  MEMB      54              0.0000000000
      6278        54  POPC      C211           31.2184507658      -11.3571665431        6.2679519999  MEMB      54              0.0000000000
      6279        54  POPC      H11R           30.4968416499      -11.8884119471        6.9239381147  MEMB      54              0.0000000000
      6280        54  POPC      H11S           32.1061769850      -12.0051299890        6.0207987576  MEMB      54              0.0000000000
      6281        54  POPC      C212           30.6286781972      -10.9849690741        4.9737699239  MEMB      54              0.0000000000
      6282        54  POPC      H12R           29.8771094241      -10.1873401991        5.0658190619  MEMB      54              0.0000000000
      6283        54  POPC      H12S           30.0263866720      -11.8037991162        4.6452112304  MEMB      54              0.0000000000
      6284        54  POPC      C213           31.7090854982      -10.7022023682        3.9495961307  MEMB      54              0.0000000000
      6285        54  POPC      H13R           32.3460095960       -9.8813203651        4.3318431309  MEMB      54              0.0000000000
      6286        54  POPC      H13S           31.1458396826      -10.3280380709        3.0806621370  MEMB      54              0.0000000000
      6287        54  POPC      C214           32.5661321730      -11.9010479321        3.5288982255  MEMB      54              0.0000000000
      6288        54  POPC      H14R           32.0089622775      -12.8618492196        3.5530053337  MEMB      54              0.0000000000
      6289        54  POPC      H14S           33.4529283640      -12.0362887595        4.2007203336  MEMB      54              0.0000000000
      6290        54  POPC      C215           33.1028235488      -11.7342229579        2.1179611567  MEMB      54              0.0000000000
      6291        54  POPC      H15R           33.4984936958      -12.7373157899        1.8469251329  MEMB      54              0.0000000000
      6292        54  POPC      H15S           33.9293745457      -11.0106660361        2.1729146494  MEMB      54              0.0000000000
      6293        54  POPC      C216           32.2171516258      -11.2373945965        0.9715402262  MEMB      54              0.0000000000
      6294        54  POPC      H16R           32.0357897928      -10.1443685399        1.0500774089  MEMB      54              0.0000000000
      6295        54  POPC      H16S           31.2409938328      -11.7493947955        1.0775651781  MEMB      54              0.0000000000
      6296        54  POPC      C217           32.8133087331      -11.5025296434       -0.4259461082  MEMB      54              0.0000000000
      6297        54  POPC      H17R           33.1316417466      -12.5420508715       -0.4865440739  MEMB      54              0.0000000000
      6298        54  POPC      H17S           33.7185095332      -10.8852158443       -0.6307969999  MEMB      54              0.0000000000
      6299        54  POPC      C218           31.7718299604      -11.4136855274       -1.5217590953  MEMB      54              0.0000000000
      6300        54  POPC      H18R           31.1152499782      -12.3085756290       -1.4392756612  MEMB      54              0.0000000000
      6301        54  POPC      H18S           32.1926628392      -11.3873035706       -2.5488471264  MEMB      54              0.0000000000
      6302        54  POPC      H18T           31.1626564145      -10.5157462707       -1.3361327294  MEMB      54              0.0000000000
      6303        54  POPC      C33            29.6300712966       -7.0586030367        9.9443542457  MEMB      54              0.0000000000
      6304        54  POPC      H3X            30.1017611195       -6.3647872629       10.6211843720  MEMB      54              0.0000000000
      6305        54  POPC      H3Y            28.5563572724       -6.8555338549       10.1340821291  MEMB      54              0.0000000000
      6306        54  POPC      C34            30.0589826499       -6.9265045942        8.4788776611  MEMB      54              0.0000000000
      6307        54  POPC      H4X            29.6333621853       -7.7840254647        7.9243116807  MEMB      54              0.0000000000
      6308        54  POPC      H4Y            31.1203868946       -6.8899977072        8.2569975040  MEMB      54              0.0000000000
      6309        54  POPC      C35            29.6505221819       -5.6245372178        7.8846800146  MEMB      54              0.0000000000
      6310        54  POPC      H5X            29.6451275447       -4.8699422478        8.7064749320  MEMB      54              0.0000000000
      6311        54  POPC      H5Y            28.6657963706       -5.9192859645        7.4778947612  MEMB      54              0.0000000000
      6312        54  POPC      C36            30.3474824181       -5.0027713699        6.6883201435  MEMB      54              0.0000000000
      6313        54  POPC      H6X            31.4249394044       -4.9969771278        6.7889095704  MEMB      54              0.0000000000
      6314        54  POPC      H6Y            29.9035008011       -3.9668140380        6.5105783268  MEMB      54              0.0000000000
      6315        54  POPC      C37            30.1297719346       -5.8549879013        5.4743941148  MEMB      54              0.0000000000
      6316        54  POPC      H7X            29.1654566195       -5.2906110017        5.3084923869  MEMB      54              0.0000000000
      6317        54  POPC      H7Y            30.0210027903       -6.9346227254        5.6546015419  MEMB      54              0.0000000000
      6318        54  POPC      C38            31.0072229880       -5.7928808183        4.2158971979  MEMB      54              0.0000000000
      6319        54  POPC      H8X            31.8351114252       -6.4498508452        3.9825903803  MEMB      54              0.0000000000
      6320        54  POPC      H8Y            31.3552967506       -4.8049749970        4.5586666393  MEMB      54              0.0000000000
      6321        54  POPC      C39            30.3640542697       -6.0380798939        2.8200651521  MEMB      54              0.0000000000
      6322        54  POPC      H9X            30.5009570864       -5.5144706714        1.8413775729  MEMB      54              0.0000000000
      6323        54  POPC      H9Y            29.3998011347       -5.6356127842        2.8266114484  MEMB      54              0.0000000000
      6324        54  POPC      C310           29.8642686608       -7.2935911423        2.5532944158  MEMB      54              0.0000000000
      6325        54  POPC      H10X           28.8553417482       -7.1050441628        2.2112776865  MEMB      54              0.0000000000
      6326        54  POPC      H10Y           29.3935743172       -8.0372504254        3.1883188540  MEMB      54              0.0000000000
      6327        54  POPC      C311           30.7461728891       -7.6866230640        1.6517466197  MEMB      54              0.0000000000
      6328        54  POPC      H11X           31.2936669582       -8.4214564698        2.2202109513  MEMB      54              0.0000000000
      6329        54  POPC      H11Y           31.1709793658       -6.9085861072        0.8966551712  MEMB      54              0.0000000000
      6330        54  POPC      C312           29.7477458461       -8.3453413257        1.0479327088  MEMB      54              0.0000000000
      6331        54  POPC      H12X           30.5623828239       -8.5989223897        0.3510759581  MEMB      54              0.0000000000
      6332        54  POPC      H12Y           29.2681358245       -7.4227542359        0.5012966742  MEMB      54              0.0000000000
      6333        54  POPC      C313           28.8020941134       -9.5687773888        1.6042299823  MEMB      54              0.0000000000
      6334        54  POPC      H13X           27.7477877220       -9.4147973630        1.8921736905  MEMB      54              0.0000000000
      6335        54  POPC      H13Y           29.1078887129      -10.0448328945        2.5078548744  MEMB      54              0.0000000000
      6336        54  POPC      C314           28.2931869644      -10.6939827128        0.7509002614  MEMB      54              0.0000000000
      6337        54  POPC      H14X           28.9787109425      -11.3210562993        0.1876089350  MEMB      54              0.0000000000
      6338        54  POPC      H14Y           27.6936598771      -10.3001317336       -0.0799875808  MEMB      54              0.0000000000
      6339        54  POPC      C315           27.2381781116      -11.3680731008        1.4240497291  MEMB      54              0.0000000000
      6340        54  POPC      H15X           26.3732800812      -10.6686802104        1.5438176659  MEMB      54              0.0000000000
      6341        54  POPC      H15Y           27.5144219660      -12.2671815571        1.9991220130  MEMB      54              0.0000000000
      6342        54  POPC      C316           26.7526980756      -11.9201571040        0.3375227751  MEMB      54              0.0000000000
      6343        54  POPC      H16X           27.5902457797      -12.4820262463       -0.1503983279  MEMB      54              0.0000000000
      6344        54  POPC      H16Y           26.1508630045      -11.2195842095       -0.3132998306  MEMB      54              0.0000000000
      6345        54  POPC      H16Z           26.0431425187      -12.5895631252        0.5810010585  MEMB      54              0.0000000000
      6346        55  CHL1      C3              0.9931851555      -30.9128929042       17.3525491532  MEMB      55              0.0000000000
      6347        55  CHL1      H3             -0.0842929497      -31.2108336081       17.3593836689  MEMB      55              0.0000000000
      6348        55  CHL1      O3              1.3470790118      -30.3883708158       18.6135040973  MEMB      55              0.0000000000
      6349        55  CHL1      H3'             0.9992311844      -31.0261223738       19.2472294357  MEMB      55              0.0000000000
      6350        55  CHL1      C4              1.8607424601      -32.1418325884       17.0592132633  MEMB      55              0.0000000000
      6351        55  CHL1      H4A             2.9344601160      -31.8742042020       17.1679890772  MEMB      55              0.0000000000
      6352        55  CHL1      H4B             1.6451735200      -32.9023159873       17.8455567658  MEMB      55              0.0000000000
      6353        55  CHL1      C5              1.5634912076      -32.6646143822       15.6688299841  MEMB      55              0.0000000000
      6354        55  CHL1      C6              1.2064794839      -33.9368934740       15.4998606673  MEMB      55              0.0000000000
      6355        55  CHL1      H6              1.1772973267      -34.6413518375       16.3536264924  MEMB      55              0.0000000000
      6356        55  CHL1      C7              0.9024317954      -34.4529525382       14.1357283494  MEMB      55              0.0000000000
      6357        55  CHL1      H7A             1.6181183683      -35.2553366770       13.8907161549  MEMB      55              0.0000000000
      6358        55  CHL1      H7B            -0.1243331033      -34.8375269169       14.0998803618  MEMB      55              0.0000000000
      6359        55  CHL1      C8              1.2113920528      -33.5792740816       12.8912275701  MEMB      55              0.0000000000
      6360        55  CHL1      H8              2.2636154323      -33.8184752023       12.6685884223  MEMB      55              0.0000000000
      6361        55  CHL1      C14             0.3817548611      -33.8837534618       11.6655992461  MEMB      55              0.0000000000
      6362        55  CHL1      H14            -0.7334826436      -33.7911958189       11.8805730819  MEMB      55              0.0000000000
      6363        55  CHL1      C15             0.5581613097      -35.2289851914       11.2571190579  MEMB      55              0.0000000000
      6364        55  CHL1      H15A            1.5644585475      -35.6960079544       11.2989127516  MEMB      55              0.0000000000
      6365        55  CHL1      H15B            0.0549758148      -35.5103055317       12.1241101585  MEMB      55              0.0000000000
      6366        55  CHL1      C16            -0.2686683385      -35.4163452703       10.0001023008  MEMB      55              0.0000000000
      6367        55  CHL1      H16A            0.2975658975      -36.0556698560        9.3254984336  MEMB      55              0.0000000000
      6368        55  CHL1      H16B           -1.3029665771      -35.7951133736       10.2461521863  MEMB      55              0.0000000000
      6369        55  CHL1      C17            -0.2387785186      -34.1000023924        9.3662348324  MEMB      55              0.0000000000
      6370        55  CHL1      H17            -1.3146194735      -33.9665362424        9.5343236702  MEMB      55              0.0000000000
      6371        55  CHL1      C13             0.7634405332      -33.3492242118       10.3241000342  MEMB      55              0.0000000000
      6372        55  CHL1      C18             2.1583600671      -33.6694400869        9.8834600433  MEMB      55              0.0000000000
      6373        55  CHL1      H18A            2.2904981704      -32.9501153210        9.0470218020  MEMB      55              0.0000000000
      6374        55  CHL1      H18B            2.8446218230      -33.4159622264       10.7127382647  MEMB      55              0.0000000000
      6375        55  CHL1      H18C            2.3080069534      -34.6984354774        9.5219049363  MEMB      55              0.0000000000
      6376        55  CHL1      C12             0.8611994218      -31.8676311141       10.4211347706  MEMB      55              0.0000000000
      6377        55  CHL1      H12A            0.7659495375      -31.0917114619        9.6725299752  MEMB      55              0.0000000000
      6378        55  CHL1      H12B           -0.1176325700      -32.1075222764       10.1302594215  MEMB      55              0.0000000000
      6379        55  CHL1      C11             1.3469120086      -31.2927901006       11.7826399905  MEMB      55              0.0000000000
      6380        55  CHL1      H11A            2.4096417061      -31.1667477027       11.6166048674  MEMB      55              0.0000000000
      6381        55  CHL1      H11B            0.8465676720      -30.3108974091       11.9787276067  MEMB      55              0.0000000000
      6382        55  CHL1      C9              1.1751411363      -32.1267296341       13.0898236214  MEMB      55              0.0000000000
      6383        55  CHL1      H9              0.1905521729      -31.8576404281       13.0076983079  MEMB      55              0.0000000000
      6384        55  CHL1      C10             1.6032279664      -31.6292286935       14.4974605426  MEMB      55              0.0000000000
      6385        55  CHL1      C19             3.0181312915      -31.2057491395       14.2219455713  MEMB      55              0.0000000000
      6386        55  CHL1      H19A            3.4711218322      -30.8111913759       15.1432139978  MEMB      55              0.0000000000
      6387        55  CHL1      H19B            3.5817248813      -32.0728280867       13.8255498234  MEMB      55              0.0000000000
      6388        55  CHL1      H19C            2.9846624365      -30.3896570079       13.4676614971  MEMB      55              0.0000000000
      6389        55  CHL1      C1              0.8334397622      -30.3527361911       14.9174905558  MEMB      55              0.0000000000
      6390        55  CHL1      H1A             0.9006009121      -29.5565468694       14.1539268467  MEMB      55              0.0000000000
      6391        55  CHL1      H1B            -0.2052150147      -30.6230838346       14.9863107531  MEMB      55              0.0000000000
      6392        55  CHL1      C2              1.1613190915      -29.8122411269       16.3092281041  MEMB      55              0.0000000000
      6393        55  CHL1      H2A             0.4667151318      -28.9869066548       16.5857945173  MEMB      55              0.0000000000
      6394        55  CHL1      H2B             2.1885487205      -29.4064812814       16.2988972165  MEMB      55              0.0000000000
      6395        55  CHL1      C20             0.0092707195      -34.1130226845        7.8602342263  MEMB      55              0.0000000000
      6396        55  CHL1      H20             1.0135557461      -34.5194747520        7.6398609589  MEMB      55              0.0000000000
      6397        55  CHL1      C21            -0.1684771784      -32.7378474603        7.3760681691  MEMB      55              0.0000000000
      6398        55  CHL1      H21A            0.3743625708      -31.9832004815        7.9518565843  MEMB      55              0.0000000000
      6399        55  CHL1      H21B           -1.2528253615      -32.6975855705        7.5877064979  MEMB      55              0.0000000000
      6400        55  CHL1      H21C           -0.0640610273      -32.5889820650        6.2885444825  MEMB      55              0.0000000000
      6401        55  CHL1      C22            -1.0955868329      -34.8412251510        7.0752337934  MEMB      55              0.0000000000
      6402        55  CHL1      H22A           -0.9091959385      -35.7550124383        7.4654289815  MEMB      55              0.0000000000
      6403        55  CHL1      H22B           -2.1367048133      -34.7087855322        7.4178226472  MEMB      55              0.0000000000
      6404        55  CHL1      C23            -0.9023081766      -35.0237790817        5.5698421119  MEMB      55              0.0000000000
      6405        55  CHL1      H23A           -1.1021000051      -34.0342337018        5.1328389113  MEMB      55              0.0000000000
      6406        55  CHL1      H23B            0.1537345578      -35.3291425088        5.3601256444  MEMB      55              0.0000000000
      6407        55  CHL1      C24            -1.8949727474      -36.0118346263        4.9468795574  MEMB      55              0.0000000000
      6408        55  CHL1      H24A           -1.4314932365      -36.9806936146        4.7930776454  MEMB      55              0.0000000000
      6409        55  CHL1      H24B           -2.7767409124      -36.1734589541        5.5979383016  MEMB      55              0.0000000000
      6410        55  CHL1      C25            -2.2505094435      -35.7081801695        3.5073297151  MEMB      55              0.0000000000
      6411        55  CHL1      H25            -2.6434582583      -34.6864777517        3.4026478161  MEMB      55              0.0000000000
      6412        55  CHL1      C26            -1.0725218315      -35.8654453251        2.5675297914  MEMB      55              0.0000000000
      6413        55  CHL1      H26A           -0.5872881940      -36.8250564320        2.7603176350  MEMB      55              0.0000000000
      6414        55  CHL1      H26B           -1.3685542164      -35.8634023063        1.4945395472  MEMB      55              0.0000000000
      6415        55  CHL1      H26C           -0.3910473559      -35.0238302179        2.7465157118  MEMB      55              0.0000000000
      6416        55  CHL1      C27            -3.2319266425      -36.6748622426        2.9756729320  MEMB      55              0.0000000000
      6417        55  CHL1      H27A           -3.1121549587      -36.4685630119        1.8955385043  MEMB      55              0.0000000000
      6418        55  CHL1      H27B           -3.0186840549      -37.7487589047        3.0231809095  MEMB      55              0.0000000000
      6419        55  CHL1      H27C           -4.2682446654      -36.4596625554        3.3171836764  MEMB      55              0.0000000000
      6420        56  OSM       N              29.4823322228       -2.6011794567       22.3146534888  MEMB      56              0.0000000000
      6421        56  OSM       C15            28.0293617765       -2.4612552726       22.6100404430  MEMB      56              0.0000000000
      6422        56  OSM       H15A           27.7812635272       -3.2372034405       23.3203235599  MEMB      56              0.0000000000
      6423        56  OSM       H15B           27.4436203852       -2.5444868089       21.7038902313  MEMB      56              0.0000000000
      6424        56  OSM       H15C           27.8548706203       -1.5074300586       23.0897075164  MEMB      56              0.0000000000
      6425        56  OSM       C14            30.1232221981       -2.7212960810       23.6599573033  MEMB      56              0.0000000000
      6426        56  OSM       H14A           29.9320027980       -1.8354360357       24.2681886147  MEMB      56              0.0000000000
      6427        56  OSM       H14B           31.1987780970       -2.8385186835       23.5980952546  MEMB      56              0.0000000000
      6428        56  OSM       H14C           29.7003648281       -3.5689375765       24.1794951697  MEMB      56              0.0000000000
      6429        56  OSM       C13            29.6407031847       -3.8261170750       21.4591319322  MEMB      56              0.0000000000
      6430        56  OSM       H13A           28.9805411361       -4.6285881622       21.7743917679  MEMB      56              0.0000000000
      6431        56  OSM       H13B           30.6753855008       -4.1514826192       21.4378113034  MEMB      56              0.0000000000
      6432        56  OSM       H13C           29.4130856123       -3.5863454763       20.4247472646  MEMB      56              0.0000000000
      6433        56  OSM       C12            29.9496025962       -1.3602898305       21.5842290000  MEMB      56              0.0000000000
      6434        56  OSM       H12A           29.7065457549       -0.5294856137       22.2291376588  MEMB      56              0.0000000000
      6435        56  OSM       H12B           29.3575495593       -1.2310799840       20.6853229344  MEMB      56              0.0000000000
      6436        56  OSM       C11            31.4327269874       -1.1947951513       21.1516223521  MEMB      56              0.0000000000
      6437        56  OSM       H11A           32.0993494426       -1.0993574235       22.0407807171  MEMB      56              0.0000000000
      6438        56  OSM       H11B           31.4416498763       -0.1983648554       20.6385875714  MEMB      56              0.0000000000
      6439        56  OSM       P              33.4174063000       -2.0021634816       19.7251025367  MEMB      56              0.0000000000
      6440        56  OSM       O13            33.6648685572       -0.5430510854       19.7021346233  MEMB      56              0.0000000000
      6441        56  OSM       O14            34.3514401780       -2.8429985341       20.4993576702  MEMB      56              0.0000000000
      6442        56  OSM       O11            33.4039837233       -2.5617478021       18.2217729620  MEMB      56              0.0000000000
      6443        56  OSM       O12            31.9022451754       -2.2292218304       20.2640950967  MEMB      56              0.0000000000
      6444        56  OSM       C1S            32.5693221051       -1.9024135562       17.2559251213  MEMB      56              0.0000000000
      6445        56  OSM       H1S            32.7047026242       -0.8035032805       17.2844841886  MEMB      56              0.0000000000
      6446        56  OSM       H1T            31.5118280551       -2.1425822485       17.5014909925  MEMB      56              0.0000000000
      6447        56  OSM       NF             32.4562670323       -1.4348669226       14.7318873638  MEMB      56              0.0000000000
      6448        56  OSM       HNF            31.7874302906       -1.7672689334       14.0806823990  MEMB      56              0.0000000000
      6449        56  OSM       C2S            32.9109764477       -2.3349700034       15.7864094478  MEMB      56              0.0000000000
      6450        56  OSM       H2S            34.0194807521       -2.4575507716       15.6870812321  MEMB      56              0.0000000000
      6451        56  OSM       C3S            32.3266158292       -3.6982013029       15.6140260176  MEMB      56              0.0000000000
      6452        56  OSM       H3S            31.2478434351       -3.8258233879       15.8822816319  MEMB      56              0.0000000000
      6453        56  OSM       O3             32.9862773449       -4.5428078536       16.3996421646  MEMB      56              0.0000000000
      6454        56  OSM       HO3            33.6363314021       -4.1024389185       16.9498022564  MEMB      56              0.0000000000
      6455        56  OSM       C4S            32.7129306934       -4.3369914297       14.3912650503  MEMB      56              0.0000000000
      6456        56  OSM       H4S            33.7310980598       -4.7188874576       14.2959162987  MEMB      56              0.0000000000
      6457        56  OSM       C5S            31.8051332407       -4.6589966320       13.5400160633  MEMB      56              0.0000000000
      6458        56  OSM       H5S            30.8230476671       -4.4599129620       13.8829845288  MEMB      56              0.0000000000
      6459        56  OSM       C6S            31.8357938416       -5.2848372337       12.2129423741  MEMB      56              0.0000000000
      6460        56  OSM       H6S            31.6270650669       -6.3663392194       12.2659693831  MEMB      56              0.0000000000
      6461        56  OSM       H6T            32.8207116468       -5.1192176748       12.0062993205  MEMB      56              0.0000000000
      6462        56  OSM       C7S            31.5843848616       -4.6256472531       10.7743519954  MEMB      56              0.0000000000
      6463        56  OSM       H7S            30.5749231595       -4.5991408651       10.5146310202  MEMB      56              0.0000000000
      6464        56  OSM       H7T            31.6701932966       -5.2786594639        9.9002797723  MEMB      56              0.0000000000
      6465        56  OSM       C8S            32.0366287490       -3.2336410965       10.4716987293  MEMB      56              0.0000000000
      6466        56  OSM       H8S            32.7619296242       -2.8938285862       11.2311682144  MEMB      56              0.0000000000
      6467        56  OSM       H8T            31.1883126843       -2.5084916087       10.4516899960  MEMB      56              0.0000000000
      6468        56  OSM       C9S            32.5661019392       -3.3378884125        9.0580695848  MEMB      56              0.0000000000
      6469        56  OSM       H9S            31.7272714799       -3.6123994634        8.3818846080  MEMB      56              0.0000000000
      6470        56  OSM       H9T            33.2736681830       -4.1792910811        8.9926002037  MEMB      56              0.0000000000
      6471        56  OSM       C10S           33.2702614610       -2.0639031934        8.6891701100  MEMB      56              0.0000000000
      6472        56  OSM       H10S           34.2714570339       -2.0846788175        9.1780246812  MEMB      56              0.0000000000
      6473        56  OSM       H10T           32.7092082519       -1.2218673735        9.1389452783  MEMB      56              0.0000000000
      6474        56  OSM       C11S           33.3595906726       -1.8647891368        7.1859145838  MEMB      56              0.0000000000
      6475        56  OSM       H11S           32.3568310899       -1.6576361956        6.7427991906  MEMB      56              0.0000000000
      6476        56  OSM       H11T           33.7680910924       -2.8027678317        6.7434119977  MEMB      56              0.0000000000
      6477        56  OSM       C12S           34.2121454152       -0.6542320510        6.8302803560  MEMB      56              0.0000000000
      6478        56  OSM       H12S           35.2004852786       -0.7121710777        7.3351888495  MEMB      56              0.0000000000
      6479        56  OSM       H12T           33.6938537639        0.2642012174        7.1913904299  MEMB      56              0.0000000000
      6480        56  OSM       C13S           34.4020697118       -0.4984081494        5.3281367164  MEMB      56              0.0000000000
      6481        56  OSM       H13S           35.2521550531        0.2073384196        5.1761611523  MEMB      56              0.0000000000
      6482        56  OSM       H13T           33.4852801247       -0.0292363423        4.8988652963  MEMB      56              0.0000000000
      6483        56  OSM       C14S           34.6310683764       -1.8127355263        4.5750707419  MEMB      56              0.0000000000
      6484        56  OSM       H14S           33.8334669092       -2.5588434937        4.6934962264  MEMB      56              0.0000000000
      6485        56  OSM       H14T           35.6039966362       -2.2827374063        4.8774161342  MEMB      56              0.0000000000
      6486        56  OSM       C15S           34.6000328525       -1.5417573538        3.0870771323  MEMB      56              0.0000000000
      6487        56  OSM       H15S           35.5448892754       -0.9839866095        3.2154646529  MEMB      56              0.0000000000
      6488        56  OSM       H15T           33.8595770218       -0.8217538495        2.7126571404  MEMB      56              0.0000000000
      6489        56  OSM       C16S           34.4530110919       -2.8350439576        2.2677013082  MEMB      56              0.0000000000
      6490        56  OSM       H16S           34.2329034577       -3.6991083841        2.9285787309  MEMB      56              0.0000000000
      6491        56  OSM       H16T           35.3603133472       -3.0984287137        1.7560560676  MEMB      56              0.0000000000
      6492        56  OSM       C17S           33.7669342273       -2.9490987822        0.9299004528  MEMB      56              0.0000000000
      6493        56  OSM       H17S           32.7261354721       -2.7620190515        1.0193775754  MEMB      56              0.0000000000
      6494        56  OSM       H17T           34.0305556542       -3.9618549737        0.5146916604  MEMB      56              0.0000000000
      6495        56  OSM       C18S           34.0581770731       -1.9450891123       -0.0907814809  MEMB      56              0.0000000000
      6496        56  OSM       H18S           35.1243943281       -2.0291287701       -0.3379643270  MEMB      56              0.0000000000
      6497        56  OSM       H18T           33.7054575369       -0.9337281794        0.1071052252  MEMB      56              0.0000000000
      6498        56  OSM       H18U           33.7135391207       -2.1760948876       -1.1069134372  MEMB      56              0.0000000000
      6499        56  OSM       C1F            33.0710403446       -0.2737028739       14.5225706844  MEMB      56              0.0000000000
      6500        56  OSM       OF             34.1377080641       -0.0592762190       15.0737956616  MEMB      56              0.0000000000
      6501        56  OSM       C2F            32.4410249738        0.7392102989       13.5942076619  MEMB      56              0.0000000000
      6502        56  OSM       H2F            33.2165214686        1.2182456215       12.9635203222  MEMB      56              0.0000000000
      6503        56  OSM       H2G            32.0172931730        1.5384884793       14.2466282612  MEMB      56              0.0000000000
      6504        56  OSM       C3F            31.3592705714        0.1804920236       12.6338547929  MEMB      56              0.0000000000
      6505        56  OSM       H3F            30.5486866494       -0.2619093802       13.2535628860  MEMB      56              0.0000000000
      6506        56  OSM       H3G            31.7487994976       -0.5733390996       11.9248850316  MEMB      56              0.0000000000
      6507        56  OSM       C4F            30.6748258635        1.2769006519       11.8242201514  MEMB      56              0.0000000000
      6508        56  OSM       H4F            31.2374120549        1.7926356591       11.0252827924  MEMB      56              0.0000000000
      6509        56  OSM       H4G            30.5783317074        2.0067337948       12.6297486163  MEMB      56              0.0000000000
      6510        56  OSM       C5F            29.2950001580        0.8817225544       11.3267666302  MEMB      56              0.0000000000
      6511        56  OSM       H5F            28.5934121265        1.6118376818       11.2042703825  MEMB      56              0.0000000000
      6512        56  OSM       H5G            28.6276825090        0.5665885477       12.1347646369  MEMB      56              0.0000000000
      6513        56  OSM       C6F            29.1679444454        0.2537105698        9.9448466866  MEMB      56              0.0000000000
      6514        56  OSM       H6F            29.8627051933       -0.5720328268       10.1632646515  MEMB      56              0.0000000000
      6515        56  OSM       H6G            29.7936392228        0.5284546413        9.1024964210  MEMB      56              0.0000000000
      6516        56  OSM       C7F            27.6500227709        0.0428213611        9.4786408057  MEMB      56              0.0000000000
      6517        56  OSM       H7F            27.2604961008        1.0126833890        9.1963472204  MEMB      56              0.0000000000
      6518        56  OSM       H7G            26.9797859650       -0.3378206237       10.3049351578  MEMB      56              0.0000000000
      6519        56  OSM       C8F            27.4566443121       -0.8878439803        8.2343290168  MEMB      56              0.0000000000
      6520        56  OSM       H8F            26.4137568848       -1.1079844342        7.9793103245  MEMB      56              0.0000000000
      6521        56  OSM       H8G            27.5455179802       -1.9444538074        8.3667444111  MEMB      56              0.0000000000
      6522        56  OSM       C9F            28.6416789543       -1.0803810616        7.3590087843  MEMB      56              0.0000000000
      6523        56  OSM       H9F            29.5335167931       -1.5955720904        7.7515067405  MEMB      56              0.0000000000
      6524        56  OSM       C10F           28.5397056667       -0.8940366404        6.0851689583  MEMB      56              0.0000000000
      6525        56  OSM       H10F           29.3690211680       -1.0818828020        5.4128982432  MEMB      56              0.0000000000
      6526        56  OSM       C11F           27.2578808300       -0.4951749489        5.5199078763  MEMB      56              0.0000000000
      6527        56  OSM       H11F           27.4171203915        0.0361023697        4.5799252292  MEMB      56              0.0000000000
      6528        56  OSM       H11G           26.6909143917        0.2164383467        6.1562130143  MEMB      56              0.0000000000
      6529        56  OSM       C12F           26.6541436291       -1.8801146616        5.3495963619  MEMB      56              0.0000000000
      6530        56  OSM       H12F           25.6286624974       -1.8684582377        5.2273331147  MEMB      56              0.0000000000
      6531        56  OSM       H12G           25.8923162753       -2.2508090345        6.0417413827  MEMB      56              0.0000000000
      6532        56  OSM       C13F           27.0216365391       -2.7227792104        4.1380939441  MEMB      56              0.0000000000
      6533        56  OSM       H13F           26.1092788048       -3.2175850799        3.7505656068  MEMB      56              0.0000000000
      6534        56  OSM       H13G           27.6282788435       -3.4533101321        4.6806960221  MEMB      56              0.0000000000
      6535        56  OSM       C14F           27.8743336054       -1.9987902754        3.0908389834  MEMB      56              0.0000000000
      6536        56  OSM       H14F           28.7221899014       -1.7162780096        3.7089780424  MEMB      56              0.0000000000
      6537        56  OSM       H14G           27.5298278788       -1.0132491939        2.8807422849  MEMB      56              0.0000000000
      6538        56  OSM       C15F           28.2305051295       -2.5650358439        1.6860723392  MEMB      56              0.0000000000
      6539        56  OSM       H15F           28.9888552646       -2.1227405139        1.0774592239  MEMB      56              0.0000000000
      6540        56  OSM       H15G           27.4991480064       -2.7947448307        0.8935649117  MEMB      56              0.0000000000
      6541        56  OSM       C16F           28.8939528886       -3.7121269733        1.9073379399  MEMB      56              0.0000000000
      6542        56  OSM       H16F           29.0859165236       -4.3667673932        1.0480212254  MEMB      56              0.0000000000
      6543        56  OSM       H16G           27.9106201162       -4.0646470426        2.0852877007  MEMB      56              0.0000000000
      6544        56  OSM       C17F           29.8390399690       -3.4725065073        3.0855863131  MEMB      56              0.0000000000
      6545        56  OSM       H17F           29.4174324207       -4.2144336323        3.7356459709  MEMB      56              0.0000000000
      6546        56  OSM       H17G           29.6609888221       -3.3118818545        4.1632840004  MEMB      56              0.0000000000
      6547        56  OSM       C18F           31.2865998771       -3.4179970763        2.6571019859  MEMB      56              0.0000000000
      6548        56  OSM       H18F           32.0750481083       -3.6132125101        3.4041840330  MEMB      56              0.0000000000
      6549        56  OSM       H18G           31.2985368152       -2.4096856533        2.2615124293  MEMB      56              0.0000000000
      6550        56  OSM       H18H           31.6207523674       -4.1315158757        1.8567230067  MEMB      56              0.0000000000
      6551        57  SAPC      N              27.6766196294      -18.2191289183       21.8820577116  MEMB      57              0.0000000000
      6552        57  SAPC      C12            27.6463883617      -18.8065630363       20.4862370659  MEMB      57              0.0000000000
      6553        57  SAPC      H12A           26.7097602028      -19.3494613426       20.3837891825  MEMB      57              0.0000000000
      6554        57  SAPC      H12B           28.4586283707      -19.5015129987       20.3257693705  MEMB      57              0.0000000000
      6555        57  SAPC      C13            28.7165781054      -17.1637625353       21.9306111580  MEMB      57              0.0000000000
      6556        57  SAPC      H13A           29.7063618301      -17.5625774314       21.8228521901  MEMB      57              0.0000000000
      6557        57  SAPC      H13B           28.5057401425      -16.4774177703       21.0961372206  MEMB      57              0.0000000000
      6558        57  SAPC      H13C           28.5984834370      -16.5713897176       22.8308413326  MEMB      57              0.0000000000
      6559        57  SAPC      C14            26.3726058338      -17.5460666621       22.1869377816  MEMB      57              0.0000000000
      6560        57  SAPC      H14A           26.3792876639      -17.0706042551       23.1539754607  MEMB      57              0.0000000000
      6561        57  SAPC      H14B           26.1855813144      -16.7618887432       21.4331081817  MEMB      57              0.0000000000
      6562        57  SAPC      H14C           25.5160644365      -18.2079501737       22.1080915466  MEMB      57              0.0000000000
      6563        57  SAPC      C15            27.8971897676      -19.2986341245       22.8688498799  MEMB      57              0.0000000000
      6564        57  SAPC      H15A           27.8962384415      -18.9092682945       23.8786139016  MEMB      57              0.0000000000
      6565        57  SAPC      H15B           27.0812036570      -20.0159491137       22.8295024774  MEMB      57              0.0000000000
      6566        57  SAPC      H15C           28.8147249160      -19.8372562469       22.6620525328  MEMB      57              0.0000000000
      6567        57  SAPC      C11            27.5994759404      -17.8035262018       19.3382211656  MEMB      57              0.0000000000
      6568        57  SAPC      H11A           27.6503867937      -18.4165331645       18.4017510611  MEMB      57              0.0000000000
      6569        57  SAPC      H11B           28.4279356446      -17.0617632565       19.3295797851  MEMB      57              0.0000000000
      6570        57  SAPC      P              25.5469861807      -16.6631142132       18.2351948734  MEMB      57              0.0000000000
      6571        57  SAPC      O13            25.1249574865      -17.8577835119       17.4913175714  MEMB      57              0.0000000000
      6572        57  SAPC      O14            24.5054639032      -15.7186009233       18.6650456727  MEMB      57              0.0000000000
      6573        57  SAPC      O12            26.3740058319      -17.1293992997       19.4906849420  MEMB      57              0.0000000000
      6574        57  SAPC      O11            26.6499461797      -15.9268746106       17.4016500804  MEMB      57              0.0000000000
      6575        57  SAPC      C1             26.2807737244      -15.2665542030       16.1937849348  MEMB      57              0.0000000000
      6576        57  SAPC      HA             25.3919277420      -14.6057005646       16.3434401041  MEMB      57              0.0000000000
      6577        57  SAPC      HB             27.1214254347      -14.5913663050       15.9234825987  MEMB      57              0.0000000000
      6578        57  SAPC      C2             26.0873179089      -16.2733841536       15.0116461974  MEMB      57              0.0000000000
      6579        57  SAPC      HS             25.1024887155      -16.7764927897       15.1640483040  MEMB      57              0.0000000000
      6580        57  SAPC      O21            27.2054771574      -17.2048594604       14.9604233968  MEMB      57              0.0000000000
      6581        57  SAPC      C21            26.8884150543      -18.4425157198       14.6316347381  MEMB      57              0.0000000000
      6582        57  SAPC      O22            25.7604455528      -18.8764276422       14.4921528295  MEMB      57              0.0000000000
      6583        57  SAPC      C22            28.1468561965      -19.2669765812       14.3088888955  MEMB      57              0.0000000000
      6584        57  SAPC      H2R            28.9633570386      -18.5972234401       13.9708326945  MEMB      57              0.0000000000
      6585        57  SAPC      H2S            28.4608400123      -19.7877375194       15.2307514095  MEMB      57              0.0000000000
      6586        57  SAPC      C3             25.9870285077      -15.5568901129       13.6543857204  MEMB      57              0.0000000000
      6587        57  SAPC      HX             25.0332893478      -14.9992264414       13.5730291072  MEMB      57              0.0000000000
      6588        57  SAPC      HY             26.1287371819      -16.2790617631       12.8267150311  MEMB      57              0.0000000000
      6589        57  SAPC      O31            26.9986354636      -14.6227200144       13.5750930293  MEMB      57              0.0000000000
      6590        57  SAPC      C31            26.6895082390      -13.5756765465       12.7763830893  MEMB      57              0.0000000000
      6591        57  SAPC      O32            25.8618180565      -13.5476817830       11.9032384287  MEMB      57              0.0000000000
      6592        57  SAPC      C32            27.7168940672      -12.6786470622       12.9014207202  MEMB      57              0.0000000000
      6593        57  SAPC      H2X            28.0105912183      -12.9387808035       13.8824138785  MEMB      57              0.0000000000
      6594        57  SAPC      H2Y            27.6974218878      -11.5414035970       12.8361798322  MEMB      57              0.0000000000
      6595        57  SAPC      C23            27.8357746110      -20.3430827491       13.2377001750  MEMB      57              0.0000000000
      6596        57  SAPC      H3R            27.5582981637      -19.8360546845       12.2974919091  MEMB      57              0.0000000000
      6597        57  SAPC      H3S            26.9812240549      -20.9911021309       13.5101986913  MEMB      57              0.0000000000
      6598        57  SAPC      C24            28.9660234781      -21.2926594192       12.9339821129  MEMB      57              0.0000000000
      6599        57  SAPC      H4R            28.6014440839      -22.0457212825       12.2375362785  MEMB      57              0.0000000000
      6600        57  SAPC      H4S            29.3260931665      -21.8778359033       13.8005961308  MEMB      57              0.0000000000
      6601        57  SAPC      C25            30.0482490867      -20.4658196902       12.3812501212  MEMB      57              0.0000000000
      6602        57  SAPC      H5R            30.9192833141      -20.6321000901       13.0210277060  MEMB      57              0.0000000000
      6603        57  SAPC      C26            30.1391166851      -19.7053164149       11.2602884877  MEMB      57              0.0000000000
      6604        57  SAPC      H6R            31.1141238358      -19.3791617219       10.8576621988  MEMB      57              0.0000000000
      6605        57  SAPC      C27            29.2209684140      -19.4269613013       10.1701761626  MEMB      57              0.0000000000
      6606        57  SAPC      H7R            28.4625502589      -20.1918326203       10.0813209351  MEMB      57              0.0000000000
      6607        57  SAPC      H7S            29.9069505046      -19.3729716248        9.3029359297  MEMB      57              0.0000000000
      6608        57  SAPC      C28            28.3541874201      -18.2880650616       10.1729257629  MEMB      57              0.0000000000
      6609        57  SAPC      H8R            27.5816281346      -18.5908993170       10.8796589534  MEMB      57              0.0000000000
      6610        57  SAPC      C29            27.7974935982      -17.9553836243        9.0130405082  MEMB      57              0.0000000000
      6611        57  SAPC      H9R            27.4058590480      -16.9366967945        8.9898682680  MEMB      57              0.0000000000
      6612        57  SAPC      C210           27.9168118129      -18.6119146793        7.6435537227  MEMB      57              0.0000000000
      6613        57  SAPC      H10R           28.8237901140      -19.2401874268        7.4645892735  MEMB      57              0.0000000000
      6614        57  SAPC      H10S           27.9108410062      -17.8893550089        6.7961473753  MEMB      57              0.0000000000
      6615        57  SAPC      C211           26.6689727858      -19.4584243024        7.6108464379  MEMB      57              0.0000000000
      6616        57  SAPC      H11R           26.8578385661      -20.5336570998        7.5072870621  MEMB      57              0.0000000000
      6617        57  SAPC      C212           25.3868318371      -19.0298771841        7.7236687902  MEMB      57              0.0000000000
      6618        57  SAPC      H12R           24.5920803425      -19.7888651469        7.7197021029  MEMB      57              0.0000000000
      6619        57  SAPC      C213           24.9163985785      -17.5914648497        7.9031919138  MEMB      57              0.0000000000
      6620        57  SAPC      H13R           25.2680634970      -17.1886277096        8.8807082825  MEMB      57              0.0000000000
      6621        57  SAPC      H13S           23.8083744104      -17.5856638690        7.9736784287  MEMB      57              0.0000000000
      6622        57  SAPC      C214           25.3151764478      -16.5643287714        6.8710463162  MEMB      57              0.0000000000
      6623        57  SAPC      H14R           25.9253444568      -15.7320825409        7.2549859335  MEMB      57              0.0000000000
      6624        57  SAPC      C215           25.0439758699      -16.6092016567        5.5577799421  MEMB      57              0.0000000000
      6625        57  SAPC      H15R           25.3452514804      -15.7549593821        4.9315686397  MEMB      57              0.0000000000
      6626        57  SAPC      C216           24.2741137018      -17.7240266855        4.8876598944  MEMB      57              0.0000000000
      6627        57  SAPC      H16R           23.3281472273      -17.9297313797        5.4470777040  MEMB      57              0.0000000000
      6628        57  SAPC      H16S           24.8602269801      -18.6658113312        4.9237341075  MEMB      57              0.0000000000
      6629        57  SAPC      C217           23.9834972259      -17.4905132895        3.3891501485  MEMB      57              0.0000000000
      6630        57  SAPC      H17R           24.9444240249      -17.5304935105        2.8320368368  MEMB      57              0.0000000000
      6631        57  SAPC      H17S           23.5342946285      -16.4907620607        3.2002768426  MEMB      57              0.0000000000
      6632        57  SAPC      C218           23.0173585797      -18.5458157201        2.8277390094  MEMB      57              0.0000000000
      6633        57  SAPC      H18R           22.0024321376      -18.0851257451        2.8664659878  MEMB      57              0.0000000000
      6634        57  SAPC      H18S           23.0193247548      -19.4169602497        3.5199925389  MEMB      57              0.0000000000
      6635        57  SAPC      C219           23.3307503036      -18.9644134447        1.3760859891  MEMB      57              0.0000000000
      6636        57  SAPC      H19R           24.3971280422      -19.2595030983        1.2485805902  MEMB      57              0.0000000000
      6637        57  SAPC      H19S           23.1775495586      -18.0541577015        0.7529968535  MEMB      57              0.0000000000
      6638        57  SAPC      C220           22.4283768661      -20.0538139985        0.7813355119  MEMB      57              0.0000000000
      6639        57  SAPC      H20R           22.7091528626      -20.2292682529       -0.2800427119  MEMB      57              0.0000000000
      6640        57  SAPC      H20S           21.3723368397      -19.7069575169        0.8193212818  MEMB      57              0.0000000000
      6641        57  SAPC      H20T           22.5116404629      -21.0312142815        1.3024362094  MEMB      57              0.0000000000
      6642        57  SAPC      C33            28.3941331189      -13.4756463625       11.8245840898  MEMB      57              0.0000000000
      6643        57  SAPC      H3X            29.0122655471      -12.5483855597       12.1875600270  MEMB      57              0.0000000000
      6644        57  SAPC      H3Y            28.1312104279      -13.0966471705       10.8272180211  MEMB      57              0.0000000000
      6645        57  SAPC      C34            29.1283768260      -15.1067378272       11.9253611993  MEMB      57              0.0000000000
      6646        57  SAPC      H4X            28.5992183433      -15.7564037222       11.2951183791  MEMB      57              0.0000000000
      6647        57  SAPC      H4Y            29.1403401758      -15.4009424674       13.0868762717  MEMB      57              0.0000000000
      6648        57  SAPC      C35            30.6465386368      -15.6418895790       11.2205267487  MEMB      57              0.0000000000
      6649        57  SAPC      H5X            31.3724574833      -16.3032696294       11.7150833374  MEMB      57              0.0000000000
      6650        57  SAPC      H5Y            31.5432798251      -15.0953115515       11.6050710614  MEMB      57              0.0000000000
      6651        57  SAPC      C36            30.9314106189      -15.7261524852        9.6698670104  MEMB      57              0.0000000000
      6652        57  SAPC      H6X            32.0032518303      -16.2120747369        9.4112507633  MEMB      57              0.0000000000
      6653        57  SAPC      H6Y            30.6417054888      -14.7420570946        9.1911420439  MEMB      57              0.0000000000
      6654        57  SAPC      C37            30.2947153159      -16.5697369875        8.7749482057  MEMB      57              0.0000000000
      6655        57  SAPC      H7X            29.3037412041      -16.1575085763        8.9101001898  MEMB      57              0.0000000000
      6656        57  SAPC      H7Y            30.8259380242      -17.4449613759        9.2585027154  MEMB      57              0.0000000000
      6657        57  SAPC      C38            30.2608480710      -16.3367540097        7.3052067991  MEMB      57              0.0000000000
      6658        57  SAPC      H8X            30.0118763850      -17.2798885724        6.8232599589  MEMB      57              0.0000000000
      6659        57  SAPC      H8Y            31.3287905315      -16.4491867754        7.2695921184  MEMB      57              0.0000000000
      6660        57  SAPC      C39            29.4552598433      -15.0731592877        6.7021456747  MEMB      57              0.0000000000
      6661        57  SAPC      H9X            29.8090664997      -14.0079397440        6.6175954436  MEMB      57              0.0000000000
      6662        57  SAPC      H9Y            28.6241942784      -14.8147471730        7.3538212945  MEMB      57              0.0000000000
      6663        57  SAPC      C310           29.2358604931      -15.3380215889        5.2446694121  MEMB      57              0.0000000000
      6664        57  SAPC      H10X           28.5662542266      -16.1860446890        5.2463716082  MEMB      57              0.0000000000
      6665        57  SAPC      H10Y           30.1463338732      -15.8131843368        4.8871811728  MEMB      57              0.0000000000
      6666        57  SAPC      C311           29.0550394309      -14.1290501857        4.3180719110  MEMB      57              0.0000000000
      6667        57  SAPC      H11X           29.9696926056      -13.5331117053        4.3919550567  MEMB      57              0.0000000000
      6668        57  SAPC      H11Y           28.1851871294      -13.5126845584        4.6188473259  MEMB      57              0.0000000000
      6669        57  SAPC      C312           29.0930363891      -14.4918808633        2.8406218914  MEMB      57              0.0000000000
      6670        57  SAPC      H12X           30.1161973999      -14.7821031013        2.5332328780  MEMB      57              0.0000000000
      6671        57  SAPC      H12Y           28.9231444879      -13.5983285554        2.2177109018  MEMB      57              0.0000000000
      6672        57  SAPC      C313           28.0522277137      -15.5696712659        2.5938258243  MEMB      57              0.0000000000
      6673        57  SAPC      H13X           27.0912433512      -15.0627654447        2.8358883749  MEMB      57              0.0000000000
      6674        57  SAPC      H13Y           28.1104723385      -16.4227964013        3.3068674821  MEMB      57              0.0000000000
      6675        57  SAPC      C314           28.0508096015      -16.1559687072        1.1780231149  MEMB      57              0.0000000000
      6676        57  SAPC      H14X           27.1223074519      -16.7575551344        1.0864734258  MEMB      57              0.0000000000
      6677        57  SAPC      H14Y           28.8763116030      -16.8341964977        0.9771654121  MEMB      57              0.0000000000
      6678        57  SAPC      C315           28.0594688272      -15.1910237929        0.0195628756  MEMB      57              0.0000000000
      6679        57  SAPC      H15X           28.1240891740      -15.6775698772       -0.9707190138  MEMB      57              0.0000000000
      6680        57  SAPC      H15Y           28.8164669212      -14.3660177791        0.0765177748  MEMB      57              0.0000000000
      6681        57  SAPC      C316           26.6930042269      -14.6604623171       -0.0941256542  MEMB      57              0.0000000000
      6682        57  SAPC      H16X           26.7205709970      -14.1881347697        0.9330868945  MEMB      57              0.0000000000
      6683        57  SAPC      H16Y           25.7961616119      -15.2705138470        0.0999635483  MEMB      57              0.0000000000
      6684        57  SAPC      C317           26.6323518943      -13.9494921960       -1.5195038116  MEMB      57              0.0000000000
      6685        57  SAPC      H17X           26.8375154713      -14.5243996835       -2.4103415422  MEMB      57              0.0000000000
      6686        57  SAPC      H17Y           27.2550318733      -13.1514815567       -1.7939867456  MEMB      57              0.0000000000
      6687        57  SAPC      C318           25.4969101177      -13.1021589990       -1.6942267107  MEMB      57              0.0000000000
      6688        57  SAPC      H18X           25.0413117385      -12.3820815555       -1.0546174162  MEMB      57              0.0000000000
      6689        57  SAPC      H18Y           24.9608771015      -13.9201444789       -1.3193665447  MEMB      57              0.0000000000
      6690        57  SAPC      H18Z           25.2358007924      -12.2343858908       -2.3280365949  MEMB      57              0.0000000000
      6691        58  CHL1      C3             16.7490594834      -27.1304307163       17.3255730424  MEMB      58              0.0000000000
      6692        58  CHL1      H3             15.7831440798      -27.2713533967       16.7984471559  MEMB      58              0.0000000000
      6693        58  CHL1      O3             16.4808458476      -27.3464957582       18.7034869760  MEMB      58              0.0000000000
      6694        58  CHL1      H3'            15.6238355330      -26.9124903425       18.8187270036  MEMB      58              0.0000000000
      6695        58  CHL1      C4             17.7977303957      -28.0923197449       16.7213491592  MEMB      58              0.0000000000
      6696        58  CHL1      H4A            18.7880965397      -27.9729032625       17.2094924061  MEMB      58              0.0000000000
      6697        58  CHL1      H4B            17.4646180858      -29.1376513533       16.9789676951  MEMB      58              0.0000000000
      6698        58  CHL1      C5             17.8558005377      -27.7626136308       15.2173975806  MEMB      58              0.0000000000
      6699        58  CHL1      C6             17.4383727260      -28.7552217639       14.3787256749  MEMB      58              0.0000000000
      6700        58  CHL1      H6             17.1955206590      -29.7722474698       14.7558367455  MEMB      58              0.0000000000
      6701        58  CHL1      C7             17.2493103677      -28.5676712667       12.8960024755  MEMB      58              0.0000000000
      6702        58  CHL1      H7A            17.5440654427      -29.4347793916       12.2547680042  MEMB      58              0.0000000000
      6703        58  CHL1      H7B            16.1764819894      -28.3713867052       12.6944995259  MEMB      58              0.0000000000
      6704        58  CHL1      C8             18.0237496328      -27.3432067428       12.3862914835  MEMB      58              0.0000000000
      6705        58  CHL1      H8             19.0927643582      -27.6671120339       12.2926471909  MEMB      58              0.0000000000
      6706        58  CHL1      C14            17.4181199304      -26.8713810704       11.0742751220  MEMB      58              0.0000000000
      6707        58  CHL1      H14            16.3956508070      -26.5200460551       11.3125050215  MEMB      58              0.0000000000
      6708        58  CHL1      C15            17.1836856443      -27.8913223417        9.9972493284  MEMB      58              0.0000000000
      6709        58  CHL1      H15A           18.2085675586      -28.2011985570       10.0586479373  MEMB      58              0.0000000000
      6710        58  CHL1      H15B           16.5145743998      -28.7453860601       10.1496756546  MEMB      58              0.0000000000
      6711        58  CHL1      C16            16.9543600828      -27.1331163699        8.7047311539  MEMB      58              0.0000000000
      6712        58  CHL1      H16A           17.6599043944      -27.5499831135        7.9494223483  MEMB      58              0.0000000000
      6713        58  CHL1      H16B           15.9323391428      -27.2850576774        8.3387775918  MEMB      58              0.0000000000
      6714        58  CHL1      C17            17.1388128627      -25.6400162893        9.1179979404  MEMB      58              0.0000000000
      6715        58  CHL1      H17            16.1816950700      -25.3698695348        9.6113312013  MEMB      58              0.0000000000
      6716        58  CHL1      C13            18.1597949406      -25.7523139418       10.3362756553  MEMB      58              0.0000000000
      6717        58  CHL1      C18            19.6480188691      -26.3161780711       10.1613779449  MEMB      58              0.0000000000
      6718        58  CHL1      H18A           20.2115995630      -26.5575456683       11.0619913995  MEMB      58              0.0000000000
      6719        58  CHL1      H18B           19.7368814569      -27.1564563770        9.4550884489  MEMB      58              0.0000000000
      6720        58  CHL1      H18C           20.3894879035      -25.6025270693        9.8436785742  MEMB      58              0.0000000000
      6721        58  CHL1      C12            18.1295534679      -24.5384417061       11.2040971029  MEMB      58              0.0000000000
      6722        58  CHL1      H12A           18.8630943671      -23.7520265860       10.9352579792  MEMB      58              0.0000000000
      6723        58  CHL1      H12B           17.1095103878      -24.1249214806       11.2787032161  MEMB      58              0.0000000000
      6724        58  CHL1      C11            18.5651546324      -24.9029708890       12.5429916090  MEMB      58              0.0000000000
      6725        58  CHL1      H11A           19.6629505671      -25.1623185837       12.3680205353  MEMB      58              0.0000000000
      6726        58  CHL1      H11B           18.4287720427      -23.9435367675       13.0899589991  MEMB      58              0.0000000000
      6727        58  CHL1      C9             17.8178474496      -26.0961604209       13.2450130272  MEMB      58              0.0000000000
      6728        58  CHL1      H9             16.7355622312      -25.9181469098       13.2773739933  MEMB      58              0.0000000000
      6729        58  CHL1      C10            18.1090253642      -26.2089363739       14.7412787539  MEMB      58              0.0000000000
      6730        58  CHL1      C19            19.3590263780      -25.3359562028       14.6817132256  MEMB      58              0.0000000000
      6731        58  CHL1      H19A           19.8025910277      -26.0075180416       13.9561223735  MEMB      58              0.0000000000
      6732        58  CHL1      H19B           19.7339273122      -24.2695223074       14.4741353261  MEMB      58              0.0000000000
      6733        58  CHL1      H19C           19.6190317049      -25.6367226584       15.6397745048  MEMB      58              0.0000000000
      6734        58  CHL1      C1             17.4228524216      -25.2600768583       15.7129781642  MEMB      58              0.0000000000
      6735        58  CHL1      H1A            17.9602940562      -24.2779341534       15.7432257752  MEMB      58              0.0000000000
      6736        58  CHL1      H1B            16.4595202955      -25.0989931679       15.2401084399  MEMB      58              0.0000000000
      6737        58  CHL1      C2             17.2192114903      -25.6942653739       17.1711180274  MEMB      58              0.0000000000
      6738        58  CHL1      H2A            16.5514600048      -24.9276660592       17.5836624208  MEMB      58              0.0000000000
      6739        58  CHL1      H2B            18.0694697168      -25.6139588839       17.8474012116  MEMB      58              0.0000000000
      6740        58  CHL1      C20            17.0121239463      -24.5392986998        7.9800160701  MEMB      58              0.0000000000
      6741        58  CHL1      H20            17.9641463749      -24.4581318167        7.6124846840  MEMB      58              0.0000000000
      6742        58  CHL1      C21            17.2202541236      -23.0520188106        8.3026641550  MEMB      58              0.0000000000
      6743        58  CHL1      H21A           17.7903126971      -23.0002417307        9.2584354385  MEMB      58              0.0000000000
      6744        58  CHL1      H21B           16.2437362938      -22.5944656268        8.2591045646  MEMB      58              0.0000000000
      6745        58  CHL1      H21C           17.8653800548      -22.5375877391        7.5326387330  MEMB      58              0.0000000000
      6746        58  CHL1      C22            16.5268427537      -25.0003080125        6.5715795985  MEMB      58              0.0000000000
      6747        58  CHL1      H22A           17.0472264384      -25.9587933355        6.5400434086  MEMB      58              0.0000000000
      6748        58  CHL1      H22B           15.4948676315      -25.3407193163        6.5953594779  MEMB      58              0.0000000000
      6749        58  CHL1      C23            16.8982539863      -24.1360756941        5.3058336499  MEMB      58              0.0000000000
      6750        58  CHL1      H23A           16.7148226361      -23.0783461726        5.5389924554  MEMB      58              0.0000000000
      6751        58  CHL1      H23B           17.8973264680      -24.0567447731        4.8278344560  MEMB      58              0.0000000000
      6752        58  CHL1      C24            16.2876040564      -24.6782858172        4.0537316988  MEMB      58              0.0000000000
      6753        58  CHL1      H24A           16.1050644774      -25.7733999967        4.0841589356  MEMB      58              0.0000000000
      6754        58  CHL1      H24B           15.3644030211      -24.1495576933        4.2680432438  MEMB      58              0.0000000000
      6755        58  CHL1      C25            16.9877555064      -24.2332691165        2.7272764810  MEMB      58              0.0000000000
      6756        58  CHL1      H25            18.0541607002      -24.3050552577        2.9175895145  MEMB      58              0.0000000000
      6757        58  CHL1      C26            16.6509683478      -25.2170947199        1.5669632807  MEMB      58              0.0000000000
      6758        58  CHL1      H26A           15.6937626423      -24.9858736788        1.2262749848  MEMB      58              0.0000000000
      6759        58  CHL1      H26B           17.0946526617      -24.9846670827        0.5931499676  MEMB      58              0.0000000000
      6760        58  CHL1      H26C           16.3633160437      -26.2654203113        1.7796625880  MEMB      58              0.0000000000
      6761        58  CHL1      C27            16.7496037000      -22.7309528821        2.4008290818  MEMB      58              0.0000000000
      6762        58  CHL1      H27A           15.8026221665      -22.4083542312        2.8563305951  MEMB      58              0.0000000000
      6763        58  CHL1      H27B           17.4565265849      -22.0841834466        2.9425964249  MEMB      58              0.0000000000
      6764        58  CHL1      H27C           16.6485549347      -22.5050750630        1.3142655110  MEMB      58              0.0000000000
      6765        59  CHL1      C3            -19.2328064579       24.7646208960       17.2991096278  MEMB      59              0.0000000000
      6766        59  CHL1      H3            -18.4547962624       25.4286159844       16.9069578678  MEMB      59              0.0000000000
      6767        59  CHL1      O3            -19.1605100720       24.8009195493       18.7030402607  MEMB      59              0.0000000000
      6768        59  CHL1      H3'           -18.3029252816       24.4121215936       18.9082265441  MEMB      59              0.0000000000
      6769        59  CHL1      C4            -20.6077099072       25.2712109542       16.8637586143  MEMB      59              0.0000000000
      6770        59  CHL1      H4A           -21.3484458167       24.5491419985       17.2680976827  MEMB      59              0.0000000000
      6771        59  CHL1      H4B           -20.8063564373       26.2371532634       17.3763682223  MEMB      59              0.0000000000
      6772        59  CHL1      C5            -20.6465950716       25.3606008996       15.3492857147  MEMB      59              0.0000000000
      6773        59  CHL1      C6            -20.9641240926       26.4642302557       14.6697650652  MEMB      59              0.0000000000
      6774        59  CHL1      H6            -21.1618371822       27.4010067557       15.2078480005  MEMB      59              0.0000000000
      6775        59  CHL1      C7            -20.7346747919       26.5863302958       13.1918965625  MEMB      59              0.0000000000
      6776        59  CHL1      H7A           -21.3147164856       27.3963923854       12.7100579698  MEMB      59              0.0000000000
      6777        59  CHL1      H7B           -19.6599871631       26.8158226996       13.0037946681  MEMB      59              0.0000000000
      6778        59  CHL1      C8            -20.9310795260       25.2623796304       12.4966237070  MEMB      59              0.0000000000
      6779        59  CHL1      H8            -22.0026823164       24.9903744363       12.5867362181  MEMB      59              0.0000000000
      6780        59  CHL1      C14           -20.5669181169       25.4212605544       11.0427567050  MEMB      59              0.0000000000
      6781        59  CHL1      H14           -19.4671814914       25.6562176723       11.0016546927  MEMB      59              0.0000000000
      6782        59  CHL1      C15           -21.2573492037       26.4893883727       10.2125754151  MEMB      59              0.0000000000
      6783        59  CHL1      H15A          -22.3315483603       26.5065694286       10.4770516600  MEMB      59              0.0000000000
      6784        59  CHL1      H15B          -20.8081601005       27.4812417543       10.3638295442  MEMB      59              0.0000000000
      6785        59  CHL1      C16           -21.0923047355       25.9970452444        8.7836182171  MEMB      59              0.0000000000
      6786        59  CHL1      H16A          -22.0825560411       25.9448827560        8.2943504678  MEMB      59              0.0000000000
      6787        59  CHL1      H16B          -20.4255943311       26.5997509652        8.1666563469  MEMB      59              0.0000000000
      6788        59  CHL1      C17           -20.4658653283       24.6042006413        8.8557388114  MEMB      59              0.0000000000
      6789        59  CHL1      H17           -19.3459092085       24.7049847374        8.7968753849  MEMB      59              0.0000000000
      6790        59  CHL1      C13           -20.7750087745       24.1658152392       10.2811343434  MEMB      59              0.0000000000
      6791        59  CHL1      C18           -22.1400187241       23.5453789787       10.3712819745  MEMB      59              0.0000000000
      6792        59  CHL1      H18A          -22.5401143936       23.4858569205       11.3825700715  MEMB      59              0.0000000000
      6793        59  CHL1      H18B          -22.8719896764       24.0220047814        9.6944922734  MEMB      59              0.0000000000
      6794        59  CHL1      H18C          -21.9857202082       22.4624128847       10.1538526620  MEMB      59              0.0000000000
      6795        59  CHL1      C12           -19.8979781617       23.2035237759       10.9433398937  MEMB      59              0.0000000000
      6796        59  CHL1      H12A          -20.0638939351       22.2087728262       10.5269094098  MEMB      59              0.0000000000
      6797        59  CHL1      H12B          -18.8997417700       23.6588010816       10.7915546596  MEMB      59              0.0000000000
      6798        59  CHL1      C11           -20.1632187260       22.8863305201       12.3928077661  MEMB      59              0.0000000000
      6799        59  CHL1      H11A          -21.1648135035       22.4147420861       12.4005147495  MEMB      59              0.0000000000
      6800        59  CHL1      H11B          -19.5058026504       22.0846649635       12.7857602026  MEMB      59              0.0000000000
      6801        59  CHL1      C9            -20.0358956631       24.2049153775       13.1467034656  MEMB      59              0.0000000000
      6802        59  CHL1      H9            -18.9885057858       24.5470371235       13.0374975753  MEMB      59              0.0000000000
      6803        59  CHL1      C10           -20.1936132715       24.0668232598       14.6378231498  MEMB      59              0.0000000000
      6804        59  CHL1      C19           -21.3044871635       23.1167619463       14.7243523562  MEMB      59              0.0000000000
      6805        59  CHL1      H19A          -22.0022354093       23.1880206800       13.8944200489  MEMB      59              0.0000000000
      6806        59  CHL1      H19B          -21.0546169833       22.0446610548       14.9388108482  MEMB      59              0.0000000000
      6807        59  CHL1      H19C          -21.9746331049       23.5302291125       15.4650778267  MEMB      59              0.0000000000
      6808        59  CHL1      C1            -18.9730788774       23.3593503910       15.2447366184  MEMB      59              0.0000000000
      6809        59  CHL1      H1A           -18.8933864709       22.3155352425       14.8785345654  MEMB      59              0.0000000000
      6810        59  CHL1      H1B           -18.1019053744       23.8852199180       14.8605634592  MEMB      59              0.0000000000
      6811        59  CHL1      C2            -18.9284415600       23.3663548648       16.7732482739  MEMB      59              0.0000000000
      6812        59  CHL1      H2A           -17.9051714010       23.0522559856       17.0810096230  MEMB      59              0.0000000000
      6813        59  CHL1      H2B           -19.6775638838       22.6630463156       17.1961166652  MEMB      59              0.0000000000
      6814        59  CHL1      C20           -21.0435612460       23.7727655020        7.7329450737  MEMB      59              0.0000000000
      6815        59  CHL1      H20           -22.1208595134       23.6199827221        7.7974288904  MEMB      59              0.0000000000
      6816        59  CHL1      C21           -20.3407850921       22.4890906944        7.7872347944  MEMB      59              0.0000000000
      6817        59  CHL1      H21A          -19.3286426428       22.3341587257        7.8343449924  MEMB      59              0.0000000000
      6818        59  CHL1      H21B          -20.4892839292       21.9479657549        6.8142639460  MEMB      59              0.0000000000
      6819        59  CHL1      H21C          -20.6198154015       21.9459972711        8.6776634155  MEMB      59              0.0000000000
      6820        59  CHL1      C22           -20.9890259236       24.2844720902        6.3419778782  MEMB      59              0.0000000000
      6821        59  CHL1      H22A          -21.2531809748       23.5838903950        5.5316288746  MEMB      59              0.0000000000
      6822        59  CHL1      H22B          -21.5845600899       25.2201105893        6.1648671915  MEMB      59              0.0000000000
      6823        59  CHL1      C23           -19.5855990018       24.6433386021        6.4172606190  MEMB      59              0.0000000000
      6824        59  CHL1      H23A          -19.8336830066       25.6982837864        6.5715513309  MEMB      59              0.0000000000
      6825        59  CHL1      H23B          -18.7451856719       24.1700743007        6.9422849126  MEMB      59              0.0000000000
      6826        59  CHL1      C24           -18.8045080881       24.4909895381        5.2600755306  MEMB      59              0.0000000000
      6827        59  CHL1      H24A          -19.4455406569       23.7557878193        4.7219753148  MEMB      59              0.0000000000
      6828        59  CHL1      H24B          -19.6991805010       25.0151912856        4.6730572017  MEMB      59              0.0000000000
      6829        59  CHL1      C25           -16.8128519108       24.7358227562        4.8874993499  MEMB      59              0.0000000000
      6830        59  CHL1      H25           -16.3329702111       24.0725384192        5.5576930210  MEMB      59              0.0000000000
      6831        59  CHL1      C26           -15.9445790247       24.9427500914        3.3893175142  MEMB      59              0.0000000000
      6832        59  CHL1      H26A          -16.2151431115       24.2715928697        2.7191042895  MEMB      59              0.0000000000
      6833        59  CHL1      H26B          -16.2891854757       25.5976429379        2.4481517517  MEMB      59              0.0000000000
      6834        59  CHL1      H26C          -15.2347628107       24.2042571828        3.1996697428  MEMB      59              0.0000000000
      6835        59  CHL1      C27           -15.8967916382       25.9063144036        4.2469355582  MEMB      59              0.0000000000
      6836        59  CHL1      H27A          -16.1510829963       25.7936573775        5.2109539693  MEMB      59              0.0000000000
      6837        59  CHL1      H27B          -14.8882528744       26.2482945323        4.5144747325  MEMB      59              0.0000000000
      6838        59  CHL1      H27C          -16.3390880193       26.8865338280        3.7926891595  MEMB      59              0.0000000000
      6839        60  CHL1      C3            -31.5113005716        6.3255961592       17.2863305848  MEMB      60              0.0000000000
      6840        60  CHL1      H3            -32.5162103525        6.6200261758       16.8897177597  MEMB      60              0.0000000000
      6841        60  CHL1      O3            -31.5167246555        6.2591374527       18.7026727356  MEMB      60              0.0000000000
      6842        60  CHL1      H3'           -31.9899266464        5.4440119281       18.8912737894  MEMB      60              0.0000000000
      6843        60  CHL1      C4            -31.1836459465        4.9283857417       16.7583489156  MEMB      60              0.0000000000
      6844        60  CHL1      H4A           -30.2033672430        4.6307702842       17.1843495641  MEMB      60              0.0000000000
      6845        60  CHL1      H4B           -31.9401558906        4.2170885440       17.1463565534  MEMB      60              0.0000000000
      6846        60  CHL1      C5            -31.1711362087        4.9393491390       15.2455811437  MEMB      60              0.0000000000
      6847        60  CHL1      C6            -32.0405793970        4.2416931956       14.5084671831  MEMB      60              0.0000000000
      6848        60  CHL1      H6            -32.7692653425        3.6099047184       15.0192623124  MEMB      60              0.0000000000
      6849        60  CHL1      C7            -32.0869924779        4.2054247198       13.0042495259  MEMB      60              0.0000000000
      6850        60  CHL1      H7A           -32.2027707103        3.1791155419       12.6123294439  MEMB      60              0.0000000000
      6851        60  CHL1      H7B           -32.9577135758        4.8082675175       12.6565800671  MEMB      60              0.0000000000
      6852        60  CHL1      C8            -30.8007918330        4.6805455293       12.3680896469  MEMB      60              0.0000000000
      6853        60  CHL1      H8            -29.9761934614        3.9448673962       12.4948946160  MEMB      60              0.0000000000
      6854        60  CHL1      C14           -30.9928680705        4.8917415875       10.8547005802  MEMB      60              0.0000000000
      6855        60  CHL1      H14           -31.7165653088        5.7534465724       10.8076162937  MEMB      60              0.0000000000
      6856        60  CHL1      C15           -31.5483311330        3.8179262711        9.9788545182  MEMB      60              0.0000000000
      6857        60  CHL1      H15A          -31.1912170233        2.8061592602       10.2585835669  MEMB      60              0.0000000000
      6858        60  CHL1      H15B          -32.6365969782        3.9055996699       10.0983386968  MEMB      60              0.0000000000
      6859        60  CHL1      C16           -31.1751956881        4.1467958926        8.5200204421  MEMB      60              0.0000000000
      6860        60  CHL1      H16A          -30.5743894370        3.3411741307        8.0414608319  MEMB      60              0.0000000000
      6861        60  CHL1      H16B          -32.0776492448        4.3637550494        7.9330526851  MEMB      60              0.0000000000
      6862        60  CHL1      C17           -30.4168417603        5.4525876202        8.6172266087  MEMB      60              0.0000000000
      6863        60  CHL1      H17           -31.1856641419        6.2656948502        8.7176885122  MEMB      60              0.0000000000
      6864        60  CHL1      C13           -29.8288623126        5.3050948760       10.0386357852  MEMB      60              0.0000000000
      6865        60  CHL1      C18           -28.6081045509        4.3639412813       10.0345367827  MEMB      60              0.0000000000
      6866        60  CHL1      H18A          -27.8005057006        4.7642343078        9.3773606844  MEMB      60              0.0000000000
      6867        60  CHL1      H18B          -28.1886684701        4.2924667723       11.0591629009  MEMB      60              0.0000000000
      6868        60  CHL1      H18C          -28.9150206488        3.3707521853        9.6846489788  MEMB      60              0.0000000000
      6869        60  CHL1      C12           -29.5157011922        6.4830608021       10.7725415724  MEMB      60              0.0000000000
      6870        60  CHL1      H12A          -28.5082926940        6.5507771586       10.3478897678  MEMB      60              0.0000000000
      6871        60  CHL1      H12B          -30.2036156064        7.3328036847       10.5379539923  MEMB      60              0.0000000000
      6872        60  CHL1      C11           -29.2306837173        6.3810761583       12.2802669961  MEMB      60              0.0000000000
      6873        60  CHL1      H11A          -28.2545091032        5.9195067633       12.4926904416  MEMB      60              0.0000000000
      6874        60  CHL1      H11B          -29.1179382957        7.3742756539       12.6274942296  MEMB      60              0.0000000000
      6875        60  CHL1      C9            -30.3998004786        5.9487348304       13.0836963183  MEMB      60              0.0000000000
      6876        60  CHL1      H9            -31.1992990498        6.7227243335       12.9228574184  MEMB      60              0.0000000000
      6877        60  CHL1      C10           -30.1610070741        5.8766361948       14.6337210939  MEMB      60              0.0000000000
      6878        60  CHL1      C19           -28.7395254621        5.3253257796       14.9491750281  MEMB      60              0.0000000000
      6879        60  CHL1      H19A          -28.5949612982        5.0473755628       16.0124041734  MEMB      60              0.0000000000
      6880        60  CHL1      H19B          -28.5599301940        4.4451803913       14.3047143269  MEMB      60              0.0000000000
      6881        60  CHL1      H19C          -27.9429935313        6.0662701578       14.7323243908  MEMB      60              0.0000000000
      6882        60  CHL1      C1            -30.3207577588        7.2753252211       15.2972107274  MEMB      60              0.0000000000
      6883        60  CHL1      H1A           -29.3784498419        7.7549302235       15.0391690527  MEMB      60              0.0000000000
      6884        60  CHL1      H1B           -31.1425086449        7.8782674274       14.8545893535  MEMB      60              0.0000000000
      6885        60  CHL1      C2            -30.4749885201        7.3477616548       16.8285446157  MEMB      60              0.0000000000
      6886        60  CHL1      H2A           -30.8236923895        8.3764022120       17.0731654219  MEMB      60              0.0000000000
      6887        60  CHL1      H2B           -29.5085309143        7.1963402162       17.3599970113  MEMB      60              0.0000000000
      6888        60  CHL1      C20           -29.5902070407        5.8025014836        7.3575977001  MEMB      60              0.0000000000
      6889        60  CHL1      H20           -28.5306338943        5.4833797088        7.4775853442  MEMB      60              0.0000000000
      6890        60  CHL1      C21           -29.6269527474        7.2822810874        7.2870601779  MEMB      60              0.0000000000
      6891        60  CHL1      H21A          -30.5371456978        7.8331424849        7.1142902669  MEMB      60              0.0000000000
      6892        60  CHL1      H21B          -28.8760877170        7.7959836289        6.7077042660  MEMB      60              0.0000000000
      6893        60  CHL1      H21C          -29.4498408329        7.4093285338        8.3310998830  MEMB      60              0.0000000000
      6894        60  CHL1      C22           -30.1799066100        5.3697347837        6.0251486238  MEMB      60              0.0000000000
      6895        60  CHL1      H22A          -30.1610900033        4.2751604450        6.0398728669  MEMB      60              0.0000000000
      6896        60  CHL1      H22B          -31.2192698859        5.7854534648        5.9527597269  MEMB      60              0.0000000000
      6897        60  CHL1      C23           -29.3978760830        5.8591269393        4.7982759834  MEMB      60              0.0000000000
      6898        60  CHL1      H23A          -29.5164700308        6.9264010864        4.8409571047  MEMB      60              0.0000000000
      6899        60  CHL1      H23B          -28.3237751832        5.5834705743        4.8695609995  MEMB      60              0.0000000000
      6900        60  CHL1      C24           -30.0815531152        5.5144610085        3.4659475267  MEMB      60              0.0000000000
      6901        60  CHL1      H24A          -29.9897196180        4.4280605748        3.4825374888  MEMB      60              0.0000000000
      6902        60  CHL1      H24B          -31.0910819982        5.9866112619        3.4517213499  MEMB      60              0.0000000000
      6903        60  CHL1      C25           -29.4826873446        5.8764840077        2.1146706240  MEMB      60              0.0000000000
      6904        60  CHL1      H25           -28.3862362067        5.8442128425        2.4018996458  MEMB      60              0.0000000000
      6905        60  CHL1      C26           -29.5111490858        4.9322952724        0.9537055243  MEMB      60              0.0000000000
      6906        60  CHL1      H26A          -30.3794589187        5.2732676098        0.3593528030  MEMB      60              0.0000000000
      6907        60  CHL1      H26B          -28.5846998816        5.0128857150        0.3318900441  MEMB      60              0.0000000000
      6908        60  CHL1      H26C          -29.6441833339        3.9126516947        1.3312701266  MEMB      60              0.0000000000
      6909        60  CHL1      C27           -30.1789942843        7.1707146782        1.5430313847  MEMB      60              0.0000000000
      6910        60  CHL1      H27A          -29.5213024757        7.5455466293        0.7136440678  MEMB      60              0.0000000000
      6911        60  CHL1      H27B          -31.2365214736        7.2796670772        1.3620493828  MEMB      60              0.0000000000
      6912        60  CHL1      H27C          -30.2434806192        7.9661963730        2.3133863948  MEMB      60              0.0000000000
      6913        61  CHL1      C3             11.5538681972       30.2149895487       17.3085473252  MEMB      61              0.0000000000
      6914        61  CHL1      H3             11.3851936158       31.2513153754       16.9156530130  MEMB      61              0.0000000000
      6915        61  CHL1      O3             11.5991717976       30.2836047263       18.7206584690  MEMB      61              0.0000000000
      6916        61  CHL1      H3'            12.3133395512       30.9103222914       18.9117259717  MEMB      61              0.0000000000
      6917        61  CHL1      C4             10.4055607122       29.3048044612       16.8897366880  MEMB      61              0.0000000000
      6918        61  CHL1      H4A            10.6999769929       28.3090454251       17.2978472441  MEMB      61              0.0000000000
      6919        61  CHL1      H4B             9.4810753535       29.6249149124       17.4107044231  MEMB      61              0.0000000000
      6920        61  CHL1      C5             10.2347885898       29.2296312453       15.3867767916  MEMB      61              0.0000000000
      6921        61  CHL1      C6              9.0899580146       29.5539401012       14.7708858348  MEMB      61              0.0000000000
      6922        61  CHL1      H6              8.2129454809       29.8560190864       15.3508888710  MEMB      61              0.0000000000
      6923        61  CHL1      C7              8.9141988197       29.4836856190       13.2843416884  MEMB      61              0.0000000000
      6924        61  CHL1      H7A             7.9846375130       28.9514031592       13.0203317782  MEMB      61              0.0000000000
      6925        61  CHL1      H7B             8.8539434112       30.5156784905       12.8721126545  MEMB      61              0.0000000000
      6926        61  CHL1      C8             10.0882455072       28.8372012540       12.5295127317  MEMB      61              0.0000000000
      6927        61  CHL1      H8             10.0796832911       27.7285150183       12.6390318934  MEMB      61              0.0000000000
      6928        61  CHL1      C14            10.0164400892       29.3315469845       11.0977015012  MEMB      61              0.0000000000
      6929        61  CHL1      H14            10.0022174664       30.4482478439       11.1326560062  MEMB      61              0.0000000000
      6930        61  CHL1      C15             8.8079651279       29.0257752204       10.3261474787  MEMB      61              0.0000000000
      6931        61  CHL1      H15A            9.1216545768       28.0175878552       10.1634328399  MEMB      61              0.0000000000
      6932        61  CHL1      H15B            7.8533537981       29.1168149479       10.8491423288  MEMB      61              0.0000000000
      6933        61  CHL1      C16             9.0170075257       29.4899350264        8.9208543047  MEMB      61              0.0000000000
      6934        61  CHL1      H16A            8.7845024215       28.7869653510        8.1253513538  MEMB      61              0.0000000000
      6935        61  CHL1      H16B            8.3526174577       30.3366250311        8.7770022240  MEMB      61              0.0000000000
      6936        61  CHL1      C17            10.5449735733       29.6475429201        8.8295961494  MEMB      61              0.0000000000
      6937        61  CHL1      H17            10.6706623316       30.7457413071        8.9685335467  MEMB      61              0.0000000000
      6938        61  CHL1      C13            11.0670403914       28.9193610625       10.1042422228  MEMB      61              0.0000000000
      6939        61  CHL1      C18            11.3397820925       27.3749624208        9.9013591158  MEMB      61              0.0000000000
      6940        61  CHL1      H18A           12.2224644215       27.1825164171        9.2562393940  MEMB      61              0.0000000000
      6941        61  CHL1      H18B           11.4988682647       26.8949921653       10.8866002813  MEMB      61              0.0000000000
      6942        61  CHL1      H18C           10.4965271235       26.8501639559        9.4354183866  MEMB      61              0.0000000000
      6943        61  CHL1      C12            12.2349581738       29.4922834427       10.7188709991  MEMB      61              0.0000000000
      6944        61  CHL1      H12A           12.8878697922       29.0006716452        9.9830520225  MEMB      61              0.0000000000
      6945        61  CHL1      H12B           12.2576549840       30.5896962388       10.5231367655  MEMB      61              0.0000000000
      6946        61  CHL1      C11            12.5076792409       29.0776053357       12.2026568131  MEMB      61              0.0000000000
      6947        61  CHL1      H11A           12.9284223463       28.0766052977       12.2813739200  MEMB      61              0.0000000000
      6948        61  CHL1      H11B           13.3610030893       29.5809490319       12.6830230405  MEMB      61              0.0000000000
      6949        61  CHL1      C9             11.3429416234       29.3714106371       13.1253469509  MEMB      61              0.0000000000
      6950        61  CHL1      H9             11.2356478330       30.4925519992       13.1075505818  MEMB      61              0.0000000000
      6951        61  CHL1      C10            11.5100235288       28.9287077151       14.5922771532  MEMB      61              0.0000000000
      6952        61  CHL1      C19            11.9710756544       27.4696281926       14.6917477232  MEMB      61              0.0000000000
      6953        61  CHL1      H19A           11.1796610234       26.8120887808       14.3105557814  MEMB      61              0.0000000000
      6954        61  CHL1      H19B           12.9269831947       27.2898117619       14.1541082772  MEMB      61              0.0000000000
      6955        61  CHL1      H19C           12.1600653891       27.2177348878       15.7537785116  MEMB      61              0.0000000000
      6956        61  CHL1      C1             12.6555860203       29.6778713714       15.2119137660  MEMB      61              0.0000000000
      6957        61  CHL1      H1A            13.5568979789       29.2695313710       14.7298770418  MEMB      61              0.0000000000
      6958        61  CHL1      H1B            12.4568289722       30.7228905728       14.9718906853  MEMB      61              0.0000000000
      6959        61  CHL1      C2             12.8068368060       29.5604953921       16.7190410832  MEMB      61              0.0000000000
      6960        61  CHL1      H2A            13.7621417863       29.9177001172       17.0991533984  MEMB      61              0.0000000000
      6961        61  CHL1      H2B            12.9719930527       28.5154998021       16.9941577370  MEMB      61              0.0000000000
      6962        61  CHL1      C20            11.0791091033       29.2990298749        7.4366189971  MEMB      61              0.0000000000
      6963        61  CHL1      H20            10.8384070611       28.2369356680        7.1938485775  MEMB      61              0.0000000000
      6964        61  CHL1      C21            12.6057425405       29.4535411519        7.3348034567  MEMB      61              0.0000000000
      6965        61  CHL1      H21A           12.9226691943       30.4469824680        7.7128715469  MEMB      61              0.0000000000
      6966        61  CHL1      H21B           12.9611895321       29.3545226464        6.2902697748  MEMB      61              0.0000000000
      6967        61  CHL1      H21C           13.0955034682       28.6365912179        7.8993389388  MEMB      61              0.0000000000
      6968        61  CHL1      C22            10.3723725679       30.2102612709        6.4070522712  MEMB      61              0.0000000000
      6969        61  CHL1      H22A            9.2783143172       30.0073916865        6.4278241276  MEMB      61              0.0000000000
      6970        61  CHL1      H22B           10.5257586006       31.2696810405        6.7155735321  MEMB      61              0.0000000000
      6971        61  CHL1      C23            10.8346731093       30.0000298774        4.9651378351  MEMB      61              0.0000000000
      6972        61  CHL1      H23A           11.7748120912       30.5579637044        4.7750764052  MEMB      61              0.0000000000
      6973        61  CHL1      H23B           11.0896784739       28.9279625822        4.8295120507  MEMB      61              0.0000000000
      6974        61  CHL1      C24             9.7636940264       30.4052251693        3.9366072019  MEMB      61              0.0000000000
      6975        61  CHL1      H24A            8.9144228665       29.6982262259        4.0193843303  MEMB      61              0.0000000000
      6976        61  CHL1      H24B            9.3787302610       31.4166762685        4.2004245212  MEMB      61              0.0000000000
      6977        61  CHL1      C25            10.3649851006       30.4300235854        2.5203610629  MEMB      61              0.0000000000
      6978        61  CHL1      H25            10.9653987194       29.4939576104        2.3875734830  MEMB      61              0.0000000000
      6979        61  CHL1      C26             9.3715631257       30.4539313737        1.3494344844  MEMB      61              0.0000000000
      6980        61  CHL1      H26A            8.7092591616       29.5651465138        1.4015694391  MEMB      61              0.0000000000
      6981        61  CHL1      H26B            8.7805850098       31.3931072843        1.3418360171  MEMB      61              0.0000000000
      6982        61  CHL1      H26C            9.9289047807       30.4260588534        0.3860902910  MEMB      61              0.0000000000
      6983        61  CHL1      C27            11.2586631852       31.6612871314        2.4151815114  MEMB      61              0.0000000000
      6984        61  CHL1      H27A           11.9292556750       31.5307286843        1.6092218955  MEMB      61              0.0000000000
      6985        61  CHL1      H27B           10.6813338086       32.5861433826        2.2157833045  MEMB      61              0.0000000000
      6986        61  CHL1      H27C           11.9840041922       31.7863581613        3.2301923210  MEMB      61              0.0000000000
      6987        62  OSM       N              -4.6152513167      -32.0891656999       21.4464680926  MEMB      62              0.0000000000
      6988        62  OSM       C15            -4.9320531058      -30.6264713353       21.3007571397  MEMB      62              0.0000000000
      6989        62  OSM       H15A           -4.5399664719      -30.1990855575       20.3945445191  MEMB      62              0.0000000000
      6990        62  OSM       H15B           -4.5881398647      -30.1066330868       22.1791119739  MEMB      62              0.0000000000
      6991        62  OSM       H15C           -6.0262118961      -30.5225699720       21.2555538638  MEMB      62              0.0000000000
      6992        62  OSM       C14            -3.1889659254      -32.3701261867       21.1435620177  MEMB      62              0.0000000000
      6993        62  OSM       H14A           -3.0393426361      -33.4475566100       21.0936272217  MEMB      62              0.0000000000
      6994        62  OSM       H14B           -2.5812768474      -31.9576984748       21.9369224967  MEMB      62              0.0000000000
      6995        62  OSM       H14C           -2.8853410800      -31.9547140459       20.1881728201  MEMB      62              0.0000000000
      6996        62  OSM       C13            -4.8535037442      -32.4207371066       22.8932648184  MEMB      62              0.0000000000
      6997        62  OSM       H13A           -4.1979519127      -31.7957874602       23.4947085556  MEMB      62              0.0000000000
      6998        62  OSM       H13B           -4.6436446882      -33.4492956946       23.1342370306  MEMB      62              0.0000000000
      6999        62  OSM       H13C           -5.8988357423      -32.1990016337       23.1421029033  MEMB      62              0.0000000000
      7000        62  OSM       C12            -5.5108779676      -32.9238809778       20.5324110480  MEMB      62              0.0000000000
      7001        62  OSM       H12A           -5.1306497464      -33.9339673870       20.4204728529  MEMB      62              0.0000000000
      7002        62  OSM       H12B           -5.4627598402      -32.5021382919       19.5264282299  MEMB      62              0.0000000000
      7003        62  OSM       C11            -7.0046194725      -33.0391444438       20.9250988195  MEMB      62              0.0000000000
      7004        62  OSM       H11A           -7.1347747268      -33.6294625252       21.8607985322  MEMB      62              0.0000000000
      7005        62  OSM       H11B           -7.4985138897      -33.6484685249       20.1234595957  MEMB      62              0.0000000000
      7006        62  OSM       P              -9.0738782722      -31.4719610389       20.6124149864  MEMB      62              0.0000000000
      7007        62  OSM       O13            -9.9184526575      -32.5086242631       21.2253787339  MEMB      62              0.0000000000
      7008        62  OSM       O14            -9.4331689920      -30.0503143437       20.8675067683  MEMB      62              0.0000000000
      7009        62  OSM       O11            -8.9534575288      -31.6772264135       19.0357157278  MEMB      62              0.0000000000
      7010        62  OSM       O12            -7.5706125008      -31.7306354697       21.0940131110  MEMB      62              0.0000000000
      7011        62  OSM       C1S            -8.0712930239      -30.7567224716       18.3910608806  MEMB      62              0.0000000000
      7012        62  OSM       H1S            -7.0470549070      -30.8517334361       18.8233845252  MEMB      62              0.0000000000
      7013        62  OSM       H1T            -8.4430761163      -29.7159399376       18.5317208926  MEMB      62              0.0000000000
      7014        62  OSM       NF             -6.6916609980      -30.5959989367       16.3598545760  MEMB      62              0.0000000000
      7015        62  OSM       HNF            -6.7157060282      -29.8362401711       15.7167599432  MEMB      62              0.0000000000
      7016        62  OSM       C2S            -7.9576676098      -31.0729257319       16.8777219565  MEMB      62              0.0000000000
      7017        62  OSM       H2S            -8.0093408148      -32.1781004391       16.7425777287  MEMB      62              0.0000000000
      7018        62  OSM       C3S            -9.1281690038      -30.4750808756       16.0775961189  MEMB      62              0.0000000000
      7019        62  OSM       H3S            -9.1209731645      -29.3663014833       16.2255318948  MEMB      62              0.0000000000
      7020        62  OSM       O3            -10.4177881941      -30.9654790812       16.4269635252  MEMB      62              0.0000000000
      7021        62  OSM       HO3           -10.3434928840      -31.2548468056       17.3461997952  MEMB      62              0.0000000000
      7022        62  OSM       C4S            -8.9089926677      -30.7514532607       14.6204483806  MEMB      62              0.0000000000
      7023        62  OSM       H4S            -8.3117708957      -31.6533101361       14.4269433682  MEMB      62              0.0000000000
      7024        62  OSM       C5S            -9.2998552841      -29.9792238672       13.5934882544  MEMB      62              0.0000000000
      7025        62  OSM       H5S            -9.8468907233      -29.0458666245       13.8026770440  MEMB      62              0.0000000000
      7026        62  OSM       C6S            -9.0495903295      -30.3170516092       12.1478312407  MEMB      62              0.0000000000
      7027        62  OSM       H6S            -8.1574000447      -29.7527541901       11.8045932160  MEMB      62              0.0000000000
      7028        62  OSM       H6T            -9.9147074983      -29.9953089652       11.5230757433  MEMB      62              0.0000000000
      7029        62  OSM       C7S            -8.8983577162      -31.8310455839       11.8808239189  MEMB      62              0.0000000000
      7030        62  OSM       H7S            -9.8791142573      -32.3168171434       12.1012486647  MEMB      62              0.0000000000
      7031        62  OSM       H7T            -8.1118317646      -32.2732947693       12.5283923221  MEMB      62              0.0000000000
      7032        62  OSM       C8S            -8.4738154169      -32.2111235506       10.4584275484  MEMB      62              0.0000000000
      7033        62  OSM       H8S            -8.2681481696      -33.3083934927       10.4428468487  MEMB      62              0.0000000000
      7034        62  OSM       H8T            -7.5235022970      -31.6917711968       10.2132268643  MEMB      62              0.0000000000
      7035        62  OSM       C9S            -9.5613046392      -31.9439180000        9.4203728948  MEMB      62              0.0000000000
      7036        62  OSM       H9S            -9.9316212774      -30.9007089476        9.5063506691  MEMB      62              0.0000000000
      7037        62  OSM       H9T           -10.4099628377      -32.6318319882        9.6660883953  MEMB      62              0.0000000000
      7038        62  OSM       C10S           -9.1442024934      -32.2705378180        7.9767381471  MEMB      62              0.0000000000
      7039        62  OSM       H10S          -10.0794811201      -32.2607326955        7.3722950685  MEMB      62              0.0000000000
      7040        62  OSM       H10T           -8.7302884070      -33.3016168830        7.9521202721  MEMB      62              0.0000000000
      7041        62  OSM       C11S           -8.0920822034      -31.3710314505        7.3028136557  MEMB      62              0.0000000000
      7042        62  OSM       H11S           -7.1116027702      -31.4786473751        7.8207885436  MEMB      62              0.0000000000
      7043        62  OSM       H11T           -8.4069580986      -30.3063426628        7.3478202923  MEMB      62              0.0000000000
      7044        62  OSM       C12S           -7.8844543699      -31.7676545928        5.8304648830  MEMB      62              0.0000000000
      7045        62  OSM       H12S           -8.8389460857      -32.1734851984        5.4239806682  MEMB      62              0.0000000000
      7046        62  OSM       H12T           -7.1407694815      -32.5919179443        5.7830834869  MEMB      62              0.0000000000
      7047        62  OSM       C13S           -7.4636536129      -30.5998245166        4.9278034768  MEMB      62              0.0000000000
      7048        62  OSM       H13S           -6.9923320217      -31.0282477760        4.0135061359  MEMB      62              0.0000000000
      7049        62  OSM       H13T           -6.7008286101      -29.9597480276        5.4200646671  MEMB      62              0.0000000000
      7050        62  OSM       C14S           -8.6952199288      -29.7786108586        4.5271988177  MEMB      62              0.0000000000
      7051        62  OSM       H14S           -9.1837367611      -29.3122135667        5.4039400933  MEMB      62              0.0000000000
      7052        62  OSM       H14T           -9.4217405252      -30.4738749560        4.0450174675  MEMB      62              0.0000000000
      7053        62  OSM       C15S           -8.4223876621      -28.6524857336        3.5679482966  MEMB      62              0.0000000000
      7054        62  OSM       H15S           -7.7269872696      -27.8817973802        3.9637762623  MEMB      62              0.0000000000
      7055        62  OSM       H15T           -9.3931016193      -28.1498861074        3.3201205023  MEMB      62              0.0000000000
      7056        62  OSM       C16S           -7.8536445846      -29.1707953746        2.3061055087  MEMB      62              0.0000000000
      7057        62  OSM       H16S           -8.4916319937      -30.0121088739        1.9134761137  MEMB      62              0.0000000000
      7058        62  OSM       H16T           -6.8244033691      -29.6025636032        2.3679840664  MEMB      62              0.0000000000
      7059        62  OSM       C17S           -7.8618278138      -27.9689100294        1.4303704791  MEMB      62              0.0000000000
      7060        62  OSM       H17S           -7.0111010159      -27.2352150606        1.4402543365  MEMB      62              0.0000000000
      7061        62  OSM       H17T           -8.8529305653      -27.5590720794        1.1178115650  MEMB      62              0.0000000000
      7062        62  OSM       C18S           -7.5151951298      -28.6163374303        0.3124897457  MEMB      62              0.0000000000
      7063        62  OSM       H18S           -6.5043706874      -28.9622341437        0.3391561243  MEMB      62              0.0000000000
      7064        62  OSM       H18T           -7.5595764810      -27.8730660687       -0.4896521798  MEMB      62              0.0000000000
      7065        62  OSM       H18U           -8.1161689468      -29.5187022605        0.0774192575  MEMB      62              0.0000000000
      7066        62  OSM       C1F            -5.5959293300      -31.2889292920       16.6466894849  MEMB      62              0.0000000000
      7067        62  OSM       OF             -5.6381766525      -32.3161500830       17.3033240385  MEMB      62              0.0000000000
      7068        62  OSM       C2F            -4.3058613136      -30.7926612105       16.1676990148  MEMB      62              0.0000000000
      7069        62  OSM       H2F            -3.5785425189      -30.8532628089       17.0114127323  MEMB      62              0.0000000000
      7070        62  OSM       H2G            -4.3537727643      -29.7440939314       15.8086795923  MEMB      62              0.0000000000
      7071        62  OSM       C3F            -3.8252770657      -31.7259326846       15.0779549975  MEMB      62              0.0000000000
      7072        62  OSM       H3F            -4.2630069679      -31.4585319794       14.0881471317  MEMB      62              0.0000000000
      7073        62  OSM       H3G            -3.9622936573      -32.8194580388       15.2495382894  MEMB      62              0.0000000000
      7074        62  OSM       C4F            -2.3738110991      -31.5390731242       14.9940017844  MEMB      62              0.0000000000
      7075        62  OSM       H4F            -1.8313600215      -32.1169354236       15.7917517388  MEMB      62              0.0000000000
      7076        62  OSM       H4G            -2.0897106158      -30.4655939961       15.1316787384  MEMB      62              0.0000000000
      7077        62  OSM       C5F            -1.9645118549      -31.9754643359       13.6276002404  MEMB      62              0.0000000000
      7078        62  OSM       H5F            -2.1643310723      -32.9653284881       13.1947669007  MEMB      62              0.0000000000
      7079        62  OSM       H5G            -1.0319530233      -32.2891129400       14.1164039502  MEMB      62              0.0000000000
      7080        62  OSM       C6F            -2.0631205538      -30.7963972216       12.5988933982  MEMB      62              0.0000000000
      7081        62  OSM       H6F            -1.3078730728      -29.9944659688       12.8277576214  MEMB      62              0.0000000000
      7082        62  OSM       H6G            -3.0955180342      -30.4518275867       12.4898074531  MEMB      62              0.0000000000
      7083        62  OSM       C7F            -1.7605606548      -31.0769547655       11.1508264694  MEMB      62              0.0000000000
      7084        62  OSM       H7F            -1.0939013556      -31.8206214231       11.5968975428  MEMB      62              0.0000000000
      7085        62  OSM       H7G            -1.1602919900      -30.3177925867       10.5844313489  MEMB      62              0.0000000000
      7086        62  OSM       C8F            -2.4722881182      -32.0292840963       10.2007217784  MEMB      62              0.0000000000
      7087        62  OSM       H8F            -2.6850859063      -33.0121041383       10.6808723450  MEMB      62              0.0000000000
      7088        62  OSM       H8G            -1.8298467796      -32.2182999318        9.3341602164  MEMB      62              0.0000000000
      7089        62  OSM       C9F            -3.5772425042      -31.3211521000        9.5883116279  MEMB      62              0.0000000000
      7090        62  OSM       H9F            -4.3864466761      -31.2921145882       10.3095088728  MEMB      62              0.0000000000
      7091        62  OSM       C10F           -3.7094814623      -30.8451834721        8.3354604987  MEMB      62              0.0000000000
      7092        62  OSM       H10F           -4.6044759801      -30.2668088813        8.1479915520  MEMB      62              0.0000000000
      7093        62  OSM       C11F           -2.8431584535      -30.8382521685        7.1008147446  MEMB      62              0.0000000000
      7094        62  OSM       H11F           -1.8042524748      -31.0711851586        7.2354721417  MEMB      62              0.0000000000
      7095        62  OSM       H11G           -2.6199868626      -29.8184535869        6.7418208330  MEMB      62              0.0000000000
      7096        62  OSM       C12F           -3.5321195600      -31.6504965720        5.9929076050  MEMB      62              0.0000000000
      7097        62  OSM       H12F           -4.5806967596      -31.2770052601        5.9063334614  MEMB      62              0.0000000000
      7098        62  OSM       H12G           -3.6247324230      -32.7443644020        6.2075827030  MEMB      62              0.0000000000
      7099        62  OSM       C13F           -2.7811916726      -31.3765934150        4.6861500585  MEMB      62              0.0000000000
      7100        62  OSM       H13F           -2.0063508340      -32.1564049269        4.5083772578  MEMB      62              0.0000000000
      7101        62  OSM       H13G           -2.3314950592      -30.3790258234        4.7485540982  MEMB      62              0.0000000000
      7102        62  OSM       C14F           -3.6357753521      -31.3022974334        3.4835243074  MEMB      62              0.0000000000
      7103        62  OSM       H14F           -3.0295627015      -31.3218130595        2.5312867339  MEMB      62              0.0000000000
      7104        62  OSM       H14G           -4.3543814798      -30.4566355946        3.4171999912  MEMB      62              0.0000000000
      7105        62  OSM       C15F           -4.4033051270      -32.5091860622        3.5893749949  MEMB      62              0.0000000000
      7106        62  OSM       H15F           -5.3588613202      -32.5017061235        4.1899716916  MEMB      62              0.0000000000
      7107        62  OSM       H15G           -3.8358894219      -33.4159847985        3.9042892922  MEMB      62              0.0000000000
      7108        62  OSM       C16F           -4.7210604821      -32.5891596598        2.2400959545  MEMB      62              0.0000000000
      7109        62  OSM       H16F           -4.1113142517      -32.7203168621        1.3099101960  MEMB      62              0.0000000000
      7110        62  OSM       H16G           -5.3890283369      -31.6386413240        2.0436339905  MEMB      62              0.0000000000
      7111        62  OSM       C17F           -5.1371843024      -33.9479113252        2.5453732279  MEMB      62              0.0000000000
      7112        62  OSM       H17F           -5.7415971210      -34.3863612634        3.4731759850  MEMB      62              0.0000000000
      7113        62  OSM       H17G           -4.6909113991      -34.5752332409        1.7708125699  MEMB      62              0.0000000000
      7114        62  OSM       C18F           -6.0943973671      -33.4441140321        1.9991878129  MEMB      62              0.0000000000
      7115        62  OSM       H18F           -6.8643737088      -32.7444776627        2.3004417529  MEMB      62              0.0000000000
      7116        62  OSM       H18G           -6.5155336855      -34.5720685358        2.0438903821  MEMB      62              0.0000000000
      7117        62  OSM       H18H           -6.1154500150      -32.9116834278        0.9496836587  MEMB      62              0.0000000000
      7118        63  CHL1      C3            -25.9704443786      -22.1966238441       17.3255217033  MEMB      63              0.0000000000
      7119        63  CHL1      H3            -26.9221558064      -21.6592120359       17.1204878015  MEMB      63              0.0000000000
      7120        63  CHL1      O3            -25.7737354534      -22.1246244211       18.7035695919  MEMB      63              0.0000000000
      7121        63  CHL1      H3'           -25.9446711260      -21.2115509090       18.9704187010  MEMB      63              0.0000000000
      7122        63  CHL1      C4            -26.0001354434      -23.6317708667       16.8500146075  MEMB      63              0.0000000000
      7123        63  CHL1      H4A           -25.0395722185      -24.1286411439       17.1147694960  MEMB      63              0.0000000000
      7124        63  CHL1      H4B           -26.7964676773      -24.1594822924       17.4102536276  MEMB      63              0.0000000000
      7125        63  CHL1      C5            -26.1772693279      -23.6543476688       15.3515558575  MEMB      63              0.0000000000
      7126        63  CHL1      C6            -27.1469064331      -24.2967767482       14.7659448358  MEMB      63              0.0000000000
      7127        63  CHL1      H6            -27.8360266469      -24.9110148820       15.3787485876  MEMB      63              0.0000000000
      7128        63  CHL1      C7            -27.2213263690      -24.4041152108       13.2605912382  MEMB      63              0.0000000000
      7129        63  CHL1      H7A           -27.6970393173      -25.3769220735       13.1021913178  MEMB      63              0.0000000000
      7130        63  CHL1      H7B           -27.9257383860      -23.6780809763       12.7934665255  MEMB      63              0.0000000000
      7131        63  CHL1      C8            -26.0483552126      -23.9847061801       12.4088630339  MEMB      63              0.0000000000
      7132        63  CHL1      H8            -25.2939412438      -24.7741302776       12.5074936359  MEMB      63              0.0000000000
      7133        63  CHL1      C14           -26.4307814300      -23.7429553209       10.9373869647  MEMB      63              0.0000000000
      7134        63  CHL1      H14           -27.1319802761      -22.8881032225       10.9760097318  MEMB      63              0.0000000000
      7135        63  CHL1      C15           -26.8985995056      -24.9154062556       10.0610309762  MEMB      63              0.0000000000
      7136        63  CHL1      H15A          -26.3977939984      -25.8476974158       10.2110086879  MEMB      63              0.0000000000
      7137        63  CHL1      H15B          -27.8422000496      -25.3270678675       10.1392282337  MEMB      63              0.0000000000
      7138        63  CHL1      C16           -26.7132451629      -24.5910999221        8.6123635731  MEMB      63              0.0000000000
      7139        63  CHL1      H16A          -26.0542587652      -25.4030458250        8.2310960609  MEMB      63              0.0000000000
      7140        63  CHL1      H16B          -27.6302990630      -24.6338155623        8.0054495552  MEMB      63              0.0000000000
      7141        63  CHL1      C17           -26.0281639323      -23.2248308006        8.6451420207  MEMB      63              0.0000000000
      7142        63  CHL1      H17           -26.8149272845      -22.4400491172        8.6451455258  MEMB      63              0.0000000000
      7143        63  CHL1      C13           -25.3938295070      -23.1552170479       10.0497286880  MEMB      63              0.0000000000
      7144        63  CHL1      C18           -24.3121009976      -24.1297556770       10.0903145517  MEMB      63              0.0000000000
      7145        63  CHL1      H18A          -24.0485048549      -24.3861830193       11.1181962667  MEMB      63              0.0000000000
      7146        63  CHL1      H18B          -24.5354820360      -25.1114367510        9.6264927821  MEMB      63              0.0000000000
      7147        63  CHL1      H18C          -23.4068687914      -23.6780491863        9.6627705669  MEMB      63              0.0000000000
      7148        63  CHL1      C12           -24.9311440107      -21.8442855824       10.6475370197  MEMB      63              0.0000000000
      7149        63  CHL1      H12A          -24.0650901698      -21.4375788184       10.0989794430  MEMB      63              0.0000000000
      7150        63  CHL1      H12B          -25.7784226076      -21.1332433310       10.5911488008  MEMB      63              0.0000000000
      7151        63  CHL1      C11           -24.4843702624      -22.0661886630       12.1034800401  MEMB      63              0.0000000000
      7152        63  CHL1      H11A          -23.6329046256      -22.7741194709       12.1472845070  MEMB      63              0.0000000000
      7153        63  CHL1      H11B          -24.1147889464      -21.1018120845       12.4677185469  MEMB      63              0.0000000000
      7154        63  CHL1      C9            -25.5830159424      -22.6736973090       12.9998582720  MEMB      63              0.0000000000
      7155        63  CHL1      H9            -26.4583121543      -21.9749925757       12.9302332753  MEMB      63              0.0000000000
      7156        63  CHL1      C10           -25.2095920445      -22.8583102916       14.5015478839  MEMB      63              0.0000000000
      7157        63  CHL1      C19           -23.8494792793      -23.5297848161       14.6069403828  MEMB      63              0.0000000000
      7158        63  CHL1      H19A          -23.6295308502      -23.8376910614       15.6477216414  MEMB      63              0.0000000000
      7159        63  CHL1      H19B          -23.8431515642      -24.4173355058       13.9729450993  MEMB      63              0.0000000000
      7160        63  CHL1      H19C          -22.9984092215      -22.9115065413       14.2869843285  MEMB      63              0.0000000000
      7161        63  CHL1      C1            -25.0639247944      -21.5244372502       15.1582407445  MEMB      63              0.0000000000
      7162        63  CHL1      H1A           -24.2734051280      -21.0951525863       14.5240567765  MEMB      63              0.0000000000
      7163        63  CHL1      H1B           -26.0003593306      -20.9659004070       15.0755389074  MEMB      63              0.0000000000
      7164        63  CHL1      C2            -24.7985614397      -21.5493385940       16.6548371697  MEMB      63              0.0000000000
      7165        63  CHL1      H2A           -24.7850966366      -20.5570712564       17.0618670691  MEMB      63              0.0000000000
      7166        63  CHL1      H2B           -23.8448944512      -22.0354577398       16.9419516295  MEMB      63              0.0000000000
      7167        63  CHL1      C20           -25.1697062371      -23.1608900755        7.3944542088  MEMB      63              0.0000000000
      7168        63  CHL1      H20           -24.4163862165      -23.9854524986        7.4514994989  MEMB      63              0.0000000000
      7169        63  CHL1      C21           -24.3862364497      -21.8374454599        7.3468485784  MEMB      63              0.0000000000
      7170        63  CHL1      H21A          -23.6724347310      -21.7642745988        8.1864885216  MEMB      63              0.0000000000
      7171        63  CHL1      H21B          -25.0772294966      -20.9753294014        7.3786814491  MEMB      63              0.0000000000
      7172        63  CHL1      H21C          -23.7655774855      -21.7692492259        6.4346979556  MEMB      63              0.0000000000
      7173        63  CHL1      C22           -26.0198877729      -23.4164008776        6.1038408358  MEMB      63              0.0000000000
      7174        63  CHL1      H22A          -26.5861276928      -24.3798942929        6.1600916781  MEMB      63              0.0000000000
      7175        63  CHL1      H22B          -26.7768030666      -22.6237436191        5.9544422770  MEMB      63              0.0000000000
      7176        63  CHL1      C23           -25.1510500223      -23.4438432885        4.8399752624  MEMB      63              0.0000000000
      7177        63  CHL1      H23A          -24.3667752592      -22.6875660734        4.8453138511  MEMB      63              0.0000000000
      7178        63  CHL1      H23B          -24.5054912032      -24.2988000260        4.9385390444  MEMB      63              0.0000000000
      7179        63  CHL1      C24           -25.9154963937      -23.3790108164        3.4950520756  MEMB      63              0.0000000000
      7180        63  CHL1      H24A          -26.7565592175      -24.1096649292        3.5199617988  MEMB      63              0.0000000000
      7181        63  CHL1      H24B          -26.5249118675      -22.4715314206        3.4661337281  MEMB      63              0.0000000000
      7182        63  CHL1      C25           -24.9785984502      -23.4583661890        2.2107822735  MEMB      63              0.0000000000
      7183        63  CHL1      H25           -24.1107740093      -22.7970640272        2.3916773776  MEMB      63              0.0000000000
      7184        63  CHL1      C26           -24.3006146483      -24.7293251303        1.7628912633  MEMB      63              0.0000000000
      7185        63  CHL1      H26A          -23.6463230433      -24.6988727673        0.8726805123  MEMB      63              0.0000000000
      7186        63  CHL1      H26B          -23.6748229387      -24.9604236192        2.6233094407  MEMB      63              0.0000000000
      7187        63  CHL1      H26C          -25.0734313238      -25.4879960399        1.5253046237  MEMB      63              0.0000000000
      7188        63  CHL1      C27           -25.7093154442      -23.1795039655        0.9429554878  MEMB      63              0.0000000000
      7189        63  CHL1      H27A          -26.5193541766      -23.9359162640        0.8706379606  MEMB      63              0.0000000000
      7190        63  CHL1      H27B          -26.0349393448      -22.1279401528        0.9321708257  MEMB      63              0.0000000000
      7191        63  CHL1      H27C          -25.0811388492      -23.3957044679        0.0569592136  MEMB      63              0.0000000000
      7192        64  CHL1      C3            -33.6558662652       -0.7726396782       17.3684953564  MEMB      64              0.0000000000
      7193        64  CHL1      H3            -32.8576885292       -0.0136332188       17.5431755863  MEMB      64              0.0000000000
      7194        64  CHL1      O3            -33.9727916038       -1.4218485475       18.5793241366  MEMB      64              0.0000000000
      7195        64  CHL1      H3'           -34.2487643374       -0.7445683789       19.2199222263  MEMB      64              0.0000000000
      7196        64  CHL1      C4            -34.9220714169       -0.1015173269       16.8147855974  MEMB      64              0.0000000000
      7197        64  CHL1      H4A           -35.7571520812       -0.8399102185       16.7778472292  MEMB      64              0.0000000000
      7198        64  CHL1      H4B           -35.2818734125        0.6833399658       17.5143136379  MEMB      64              0.0000000000
      7199        64  CHL1      C5            -34.6474142355        0.4455368704       15.4304703215  MEMB      64              0.0000000000
      7200        64  CHL1      C6            -34.8939683356        1.7027879311       15.0763589578  MEMB      64              0.0000000000
      7201        64  CHL1      H6            -35.2839178522        2.4098220977       15.8112298680  MEMB      64              0.0000000000
      7202        64  CHL1      C7            -34.7871708170        2.1659968542       13.6589354661  MEMB      64              0.0000000000
      7203        64  CHL1      H7A           -35.5542915178        2.9168611900       13.4053442405  MEMB      64              0.0000000000
      7204        64  CHL1      H7B           -33.8280246709        2.6609351432       13.5732737277  MEMB      64              0.0000000000
      7205        64  CHL1      C8            -34.7829494979        1.0351407790       12.5999878333  MEMB      64              0.0000000000
      7206        64  CHL1      H8            -35.8090844281        0.6109145866       12.5420991892  MEMB      64              0.0000000000
      7207        64  CHL1      C14           -34.4146090992        1.6131654745       11.2487632075  MEMB      64              0.0000000000
      7208        64  CHL1      H14           -33.4643500135        2.1682105511       11.4390814884  MEMB      64              0.0000000000
      7209        64  CHL1      C15           -35.3398059273        2.6779525486       10.6383665472  MEMB      64              0.0000000000
      7210        64  CHL1      H15A          -36.3817182228        2.2999415111       10.6138346150  MEMB      64              0.0000000000
      7211        64  CHL1      H15B          -35.3162562708        3.6490577160       11.1766806449  MEMB      64              0.0000000000
      7212        64  CHL1      C16           -34.7885307383        2.8054692041        9.2135295603  MEMB      64              0.0000000000
      7213        64  CHL1      H16A          -35.5957697840        2.6517987888        8.4751608469  MEMB      64              0.0000000000
      7214        64  CHL1      H16B          -34.3462410198        3.8135654795        9.0762095776  MEMB      64              0.0000000000
      7215        64  CHL1      C17           -33.7405095884        1.6560786619        9.0275243486  MEMB      64              0.0000000000
      7216        64  CHL1      H17           -32.7906962257        2.0173883263        9.3757952655  MEMB      64              0.0000000000
      7217        64  CHL1      C13           -34.0653622551        0.6226788542       10.1259172366  MEMB      64              0.0000000000
      7218        64  CHL1      C18           -35.2824814288       -0.1905271690        9.6132357710  MEMB      64              0.0000000000
      7219        64  CHL1      H18A          -34.9284769651       -0.9184641475        8.8544973402  MEMB      64              0.0000000000
      7220        64  CHL1      H18B          -35.7871355359       -0.7520159634       10.4215759422  MEMB      64              0.0000000000
      7221        64  CHL1      H18C          -36.0395515106        0.4411445578        9.1066432813  MEMB      64              0.0000000000
      7222        64  CHL1      C12           -32.9136334160       -0.2792815527       10.6483583803  MEMB      64              0.0000000000
      7223        64  CHL1      H12A          -32.6075302737       -1.0137082263        9.8829651248  MEMB      64              0.0000000000
      7224        64  CHL1      H12B          -32.0329832430        0.3613005309       10.8868950919  MEMB      64              0.0000000000
      7225        64  CHL1      C11           -33.3486713654       -1.0270932808       11.9230608949  MEMB      64              0.0000000000
      7226        64  CHL1      H11A          -34.1781206473       -1.7064390574       11.6308920235  MEMB      64              0.0000000000
      7227        64  CHL1      H11B          -32.5689802638       -1.7219056192       12.2991977295  MEMB      64              0.0000000000
      7228        64  CHL1      C9            -33.7357451736        0.0074832956       13.0355863238  MEMB      64              0.0000000000
      7229        64  CHL1      H9            -32.8098723453        0.5980435763       13.2121229355  MEMB      64              0.0000000000
      7230        64  CHL1      C10           -34.0397154948       -0.5351531992       14.4367315670  MEMB      64              0.0000000000
      7231        64  CHL1      C19           -35.1327726518       -1.4779700897       14.2126104698  MEMB      64              0.0000000000
      7232        64  CHL1      H19A          -35.3821333425       -2.0584486887       15.1274952285  MEMB      64              0.0000000000
      7233        64  CHL1      H19B          -36.1001906268       -1.1120414562       13.8106712869  MEMB      64              0.0000000000
      7234        64  CHL1      H19C          -34.7164297577       -2.2141892621       13.4872891901  MEMB      64              0.0000000000
      7235        64  CHL1      C1            -32.8095427666       -1.2768677834       15.0353513358  MEMB      64              0.0000000000
      7236        64  CHL1      H1A           -32.4565683548       -2.0840822945       14.3565152825  MEMB      64              0.0000000000
      7237        64  CHL1      H1B           -31.9878328633       -0.5393488731       15.1082255861  MEMB      64              0.0000000000
      7238        64  CHL1      C2            -33.0926702311       -1.8475170810       16.4338372399  MEMB      64              0.0000000000
      7239        64  CHL1      H2A           -32.1864469365       -2.2890208230       16.8977159580  MEMB      64              0.0000000000
      7240        64  CHL1      H2B           -33.8284568612       -2.6699421732       16.3673905304  MEMB      64              0.0000000000
      7241        64  CHL1      C20           -33.4208655608        1.2784641696        7.5717208586  MEMB      64              0.0000000000
      7242        64  CHL1      H20           -34.1793275183        0.5439245119        7.2472060079  MEMB      64              0.0000000000
      7243        64  CHL1      C21           -32.0103887106        0.6405774875        7.4548543761  MEMB      64              0.0000000000
      7244        64  CHL1      H21A          -31.9782689063       -0.3228142345        7.9925999885  MEMB      64              0.0000000000
      7245        64  CHL1      H21B          -31.2030293035        1.3082113372        7.8270002171  MEMB      64              0.0000000000
      7246        64  CHL1      H21C          -31.7755281000        0.4239411047        6.3935569958  MEMB      64              0.0000000000
      7247        64  CHL1      C22           -33.5167587209        2.4591618596        6.5683815136  MEMB      64              0.0000000000
      7248        64  CHL1      H22A          -34.4182390527        3.0797552615        6.7335594363  MEMB      64              0.0000000000
      7249        64  CHL1      H22B          -32.6245623384        3.0937258058        6.6723361072  MEMB      64              0.0000000000
      7250        64  CHL1      C23           -33.4962988649        2.0189747968        5.1014378503  MEMB      64              0.0000000000
      7251        64  CHL1      H23A          -32.4654978675        1.6630016647        4.8777749408  MEMB      64              0.0000000000
      7252        64  CHL1      H23B          -34.2103553131        1.1802524520        4.9602943055  MEMB      64              0.0000000000
      7253        64  CHL1      C24           -33.7662613330        3.1542674304        4.1094495598  MEMB      64              0.0000000000
      7254        64  CHL1      H24A          -34.8326080303        3.4591864198        4.0753612764  MEMB      64              0.0000000000
      7255        64  CHL1      H24B          -33.1988365382        4.0555877581        4.4469526363  MEMB      64              0.0000000000
      7256        64  CHL1      C25           -33.3131409273        2.8227565045        2.6682110319  MEMB      64              0.0000000000
      7257        64  CHL1      H25           -33.7289783792        3.6466122921        2.0417428836  MEMB      64              0.0000000000
      7258        64  CHL1      C26           -31.8074007923        2.8606026132        2.5252163810  MEMB      64              0.0000000000
      7259        64  CHL1      H26A          -31.2612342177        1.9668114208        2.8906782271  MEMB      64              0.0000000000
      7260        64  CHL1      H26B          -31.5151395683        3.0646786273        1.4751676791  MEMB      64              0.0000000000
      7261        64  CHL1      H26C          -31.5604558971        3.6962207978        3.1675336418  MEMB      64              0.0000000000
      7262        64  CHL1      C27           -33.7468998787        1.4867894800        2.1006973882  MEMB      64              0.0000000000
      7263        64  CHL1      H27A          -33.2599781757        1.3760453597        1.1053395406  MEMB      64              0.0000000000
      7264        64  CHL1      H27B          -33.3896702492        0.6556408188        2.7451835741  MEMB      64              0.0000000000
      7265        64  CHL1      H27C          -34.8426684377        1.4436814232        1.9826245231  MEMB      64              0.0000000000
      7266        65  OSM       N             -18.8275569894      -28.2965261046       22.6029166375  MEMB      65              0.0000000000
      7267        65  OSM       C15           -18.0621881961      -27.9483418478       21.3499663750  MEMB      65              0.0000000000
      7268        65  OSM       H15A          -18.7293933565      -28.0488537903       20.4828867453  MEMB      65              0.0000000000
      7269        65  OSM       H15B          -17.1940366910      -28.5585279014       21.1904536378  MEMB      65              0.0000000000
      7270        65  OSM       H15C          -17.7510733193      -26.9059425457       21.3248282582  MEMB      65              0.0000000000
      7271        65  OSM       C14           -19.1725508043      -29.7426631717       22.6074124282  MEMB      65              0.0000000000
      7272        65  OSM       H14A          -19.7627943105      -30.0134504439       21.7345598767  MEMB      65              0.0000000000
      7273        65  OSM       H14B          -19.7209796331      -29.9574513895       23.5090823996  MEMB      65              0.0000000000
      7274        65  OSM       H14C          -18.2500448017      -30.2933461378       22.6118062938  MEMB      65              0.0000000000
      7275        65  OSM       C13           -17.9885836047      -28.0754728932       23.8242257067  MEMB      65              0.0000000000
      7276        65  OSM       H13A          -17.6972298858      -27.0370327790       23.9295803326  MEMB      65              0.0000000000
      7277        65  OSM       H13B          -17.0763092132      -28.6556140603       23.7835806570  MEMB      65              0.0000000000
      7278        65  OSM       H13C          -18.5261417740      -28.3743999179       24.7226768280  MEMB      65              0.0000000000
      7279        65  OSM       C12           -20.0978093890      -27.4443007906       22.6344437956  MEMB      65              0.0000000000
      7280        65  OSM       H12A          -19.8271447534      -26.3874318018       22.6584007230  MEMB      65              0.0000000000
      7281        65  OSM       H12B          -20.6114945921      -27.6171836949       23.5703541384  MEMB      65              0.0000000000
      7282        65  OSM       C11           -21.1275031240      -27.5885557061       21.4762067366  MEMB      65              0.0000000000
      7283        65  OSM       H11A          -21.9253227000      -26.8416815365       21.6911768807  MEMB      65              0.0000000000
      7284        65  OSM       H11B          -21.5980032617      -28.5933072539       21.4928290035  MEMB      65              0.0000000000
      7285        65  OSM       P             -20.9848665111      -26.0665076421       19.3485084157  MEMB      65              0.0000000000
      7286        65  OSM       O13           -21.3620025149      -24.9722961917       20.2722713427  MEMB      65              0.0000000000
      7287        65  OSM       O14           -19.8894690664      -25.7561776870       18.4082326771  MEMB      65              0.0000000000
      7288        65  OSM       O11           -22.2233050721      -26.6655315145       18.5759353494  MEMB      65              0.0000000000
      7289        65  OSM       O12           -20.5607719834      -27.3632500858       20.1937219281  MEMB      65              0.0000000000
      7290        65  OSM       C1S           -21.9596652793      -27.8914228436       17.8558301230  MEMB      65              0.0000000000
      7291        65  OSM       H1S           -22.8222325949      -28.5565782168       17.9650538097  MEMB      65              0.0000000000
      7292        65  OSM       H1T           -21.1956575803      -28.5472304974       18.2991860653  MEMB      65              0.0000000000
      7293        65  OSM       NF            -20.2551169909      -27.6461286768       16.0175395239  MEMB      65              0.0000000000
      7294        65  OSM       HNF           -19.9974594249      -26.8129939650       15.5793822949  MEMB      65              0.0000000000
      7295        65  OSM       C2S           -21.6371949328      -27.6608388804       16.3476022610  MEMB      65              0.0000000000
      7296        65  OSM       H2S           -21.9531245230      -28.6139471370       15.8708897627  MEMB      65              0.0000000000
      7297        65  OSM       C3S           -22.2821895651      -26.3079222176       15.8765596394  MEMB      65              0.0000000000
      7298        65  OSM       H3S           -21.8113721444      -25.4210966314       16.3135804533  MEMB      65              0.0000000000
      7299        65  OSM       O3            -23.6523943498      -26.1417589056       16.2715976900  MEMB      65              0.0000000000
      7300        65  OSM       HO3           -23.9551696965      -27.0057940349       16.5695343627  MEMB      65              0.0000000000
      7301        65  OSM       C4S           -22.0535589087      -26.1306339376       14.3145061467  MEMB      65              0.0000000000
      7302        65  OSM       H4S           -21.2041505659      -25.5019041008       14.0848908261  MEMB      65              0.0000000000
      7303        65  OSM       C5S           -22.6912177751      -26.6059900878       13.2241092897  MEMB      65              0.0000000000
      7304        65  OSM       H5S           -23.3496620262      -27.3778459860       13.4452860454  MEMB      65              0.0000000000
      7305        65  OSM       C6S           -22.6868807794      -26.5606736606       11.7165931527  MEMB      65              0.0000000000
      7306        65  OSM       H6S           -23.6523150781      -26.2636723183       11.2289693149  MEMB      65              0.0000000000
      7307        65  OSM       H6T           -22.5125190603      -27.5204034337       11.1968264234  MEMB      65              0.0000000000
      7308        65  OSM       C7S           -21.8841384304      -25.5103818609       11.1964884389  MEMB      65              0.0000000000
      7309        65  OSM       H7S           -20.8760986921      -25.7158513596       11.5548477429  MEMB      65              0.0000000000
      7310        65  OSM       H7T           -22.1444413494      -24.4642775149       11.5138909760  MEMB      65              0.0000000000
      7311        65  OSM       C8S           -21.9950375559      -25.7239900728        9.7285033193  MEMB      65              0.0000000000
      7312        65  OSM       H8S           -22.8692920663      -25.6246498698        9.0879671952  MEMB      65              0.0000000000
      7313        65  OSM       H8T           -21.6408786663      -26.7315274730        9.4451252553  MEMB      65              0.0000000000
      7314        65  OSM       C9S           -21.2288602696      -24.6351017279        9.2952947296  MEMB      65              0.0000000000
      7315        65  OSM       H9S           -20.3437569949      -24.7207561205        9.8938194163  MEMB      65              0.0000000000
      7316        65  OSM       H9T           -21.5123128039      -23.5624971207        9.0996928282  MEMB      65              0.0000000000
      7317        65  OSM       C10S          -20.7051402323      -25.0819078253        8.1895155652  MEMB      65              0.0000000000
      7318        65  OSM       H10S          -21.5913122108      -25.2535456375        7.5161335123  MEMB      65              0.0000000000
      7319        65  OSM       H10T          -20.3084450232      -26.1464857453        8.0256251923  MEMB      65              0.0000000000
      7320        65  OSM       C11S          -19.5978101503      -23.7962944361        7.9694091058  MEMB      65              0.0000000000
      7321        65  OSM       H11S          -19.3975473915      -24.7383516290        8.1220863002  MEMB      65              0.0000000000
      7322        65  OSM       H11T          -19.0540041604      -22.9726368604        7.5455126002  MEMB      65              0.0000000000
      7323        65  OSM       C12S          -18.3871338666      -24.1646384330        5.2449528520  MEMB      65              0.0000000000
      7324        65  OSM       H12S          -18.0573045741      -23.2360509729        5.0818841446  MEMB      65              0.0000000000
      7325        65  OSM       H12T          -19.0984556683      -24.5233124778        4.4835873654  MEMB      65              0.0000000000
      7326        65  OSM       C13S          -17.8894789400      -25.6142138747        5.0801256300  MEMB      65              0.0000000000
      7327        65  OSM       H13S          -18.1175591953      -26.4522876460        5.7808993408  MEMB      65              0.0000000000
      7328        65  OSM       H13T          -16.9323970872      -25.1618511005        5.2949117766  MEMB      65              0.0000000000
      7329        65  OSM       C14S          -17.9422421092      -26.1307010650        3.8241590290  MEMB      65              0.0000000000
      7330        65  OSM       H14S          -17.6337171026      -25.2226706851        3.2547694932  MEMB      65              0.0000000000
      7331        65  OSM       H14T          -18.9560745925      -26.2362820944        3.5071258477  MEMB      65              0.0000000000
      7332        65  OSM       C15S          -17.2161749450      -27.4956630248        3.7119379149  MEMB      65              0.0000000000
      7333        65  OSM       H15S          -17.3368285199      -28.2402750454        4.4764456546  MEMB      65              0.0000000000
      7334        65  OSM       H15T          -16.2150144758      -27.7587770553        4.0633120378  MEMB      65              0.0000000000
      7335        65  OSM       C16S          -17.4069916536      -27.6933512611        2.2938165446  MEMB      65              0.0000000000
      7336        65  OSM       H16S          -16.6524363495      -27.7437633116        1.5102116516  MEMB      65              0.0000000000
      7337        65  OSM       H16T          -17.8155955868      -26.7405356769        1.9788404283  MEMB      65              0.0000000000
      7338        65  OSM       C17S          -18.0640779763      -28.8393989176        1.8822782479  MEMB      65              0.0000000000
      7339        65  OSM       H17S          -18.8375159979      -28.8063623849        2.6123358428  MEMB      65              0.0000000000
      7340        65  OSM       H17T          -17.3341934161      -29.6802175064        1.8901942936  MEMB      65              0.0000000000
      7341        65  OSM       C18S          -18.4581069169      -28.4274058692        0.5447765366  MEMB      65              0.0000000000
      7342        65  OSM       H18S          -19.1820156911      -29.1298674396        0.1664636804  MEMB      65              0.0000000000
      7343        65  OSM       H18T          -17.5108258115      -28.4371361001       -0.0670010823  MEMB      65              0.0000000000
      7344        65  OSM       H18U          -18.9155154729      -27.4045012625        0.5054393332  MEMB      65              0.0000000000
      7345        65  OSM       C1F           -19.3439363362      -28.5399555302       16.3407638285  MEMB      65              0.0000000000
      7346        65  OSM       OF            -19.5235126412      -29.4274226859       17.1006027473  MEMB      65              0.0000000000
      7347        65  OSM       C2F           -17.9827770752      -28.4116982425       15.8930037927  MEMB      65              0.0000000000
      7348        65  OSM       H2F           -17.3947628601      -28.7030440470       16.8015708553  MEMB      65              0.0000000000
      7349        65  OSM       H2G           -17.9236133927      -27.3478221263       15.6540968296  MEMB      65              0.0000000000
      7350        65  OSM       C3F           -17.5259652659      -29.3392858504       14.7510768450  MEMB      65              0.0000000000
      7351        65  OSM       H3F           -17.6882176661      -30.4167451673       14.9832000221  MEMB      65              0.0000000000
      7352        65  OSM       H3G           -16.4255040779      -29.1731992980       14.6696198854  MEMB      65              0.0000000000
      7353        65  OSM       C4F           -18.2062082032      -29.1098988055       13.4059996706  MEMB      65              0.0000000000
      7354        65  OSM       H4F           -19.2838309400      -29.2452371352       13.3367843540  MEMB      65              0.0000000000
      7355        65  OSM       H4G           -17.7230433976      -29.7683601359       12.6578651204  MEMB      65              0.0000000000
      7356        65  OSM       C5F           -18.2503973175      -27.7129741818       12.9376776028  MEMB      65              0.0000000000
      7357        65  OSM       H5F           -17.1670081811      -27.7060344572       12.7132028791  MEMB      65              0.0000000000
      7358        65  OSM       H5G           -18.6066427209      -26.9635288924       13.6949204378  MEMB      65              0.0000000000
      7359        65  OSM       C6F           -19.0057449695      -27.5835571458       11.6433485572  MEMB      65              0.0000000000
      7360        65  OSM       H6F           -19.2536359558      -26.5435125966       11.4375562200  MEMB      65              0.0000000000
      7361        65  OSM       H6G           -19.9713198310      -28.0438970834       11.6458424832  MEMB      65              0.0000000000
      7362        65  OSM       C7F           -18.2920302545      -28.3062307201       10.5260325894  MEMB      65              0.0000000000
      7363        65  OSM       H7F           -17.6380792203      -29.1454562892       10.8074930369  MEMB      65              0.0000000000
      7364        65  OSM       H7G           -17.7458336563      -27.4587787332       10.2925714532  MEMB      65              0.0000000000
      7365        65  OSM       C8F           -18.7128036559      -28.1771565927        9.0798900037  MEMB      65              0.0000000000
      7366        65  OSM       H8F           -19.1640680973      -27.2142793492        8.9293479777  MEMB      65              0.0000000000
      7367        65  OSM       H8G           -19.5941643349      -28.8033349164        9.2227334974  MEMB      65              0.0000000000
      7368        65  OSM       C9F           -17.6374245651      -28.4674830303        7.9941298352  MEMB      65              0.0000000000
      7369        65  OSM       H9F           -16.9249639627      -27.7703825482        7.5696033345  MEMB      65              0.0000000000
      7370        65  OSM       C10F          -17.4901192487      -29.4478079464        7.1961599585  MEMB      65              0.0000000000
      7371        65  OSM       H10F          -16.8034163941      -29.4666420894        6.3564425713  MEMB      65              0.0000000000
      7372        65  OSM       C11F          -18.4583743415      -30.4141409099        7.2685458317  MEMB      65              0.0000000000
      7373        65  OSM       H11F          -19.1839747848      -30.1359005848        8.0281102662  MEMB      65              0.0000000000
      7374        65  OSM       H11G          -18.2122312015      -31.4673827553        7.5019779150  MEMB      65              0.0000000000
      7375        65  OSM       C12F          -18.8602110096      -30.1247905412        5.8119264132  MEMB      65              0.0000000000
      7376        65  OSM       H12F          -19.4582825926      -31.0561646750        5.9886002425  MEMB      65              0.0000000000
      7377        65  OSM       H12G          -18.3706336251      -30.6567975667        5.0137063526  MEMB      65              0.0000000000
      7378        65  OSM       C13F          -19.4756976194      -28.6348317361        5.2341155631  MEMB      65              0.0000000000
      7379        65  OSM       H13F          -18.9112400829      -27.8926441149        5.0094711638  MEMB      65              0.0000000000
      7380        65  OSM       H13G          -19.7557192295      -28.0953777306        6.1873243363  MEMB      65              0.0000000000
      7381        65  OSM       C14F          -20.5760289361      -28.3378285195        3.9538377343  MEMB      65              0.0000000000
      7382        65  OSM       H14F          -21.5742282247      -28.8127108508        3.8668062691  MEMB      65              0.0000000000
      7383        65  OSM       H14G          -20.5966879185      -29.0309384185        3.1453129128  MEMB      65              0.0000000000
      7384        65  OSM       C15F          -21.3821797826      -27.1359972191        3.7756668339  MEMB      65              0.0000000000
      7385        65  OSM       H15F          -20.6292608315      -26.5682300751        3.3318556599  MEMB      65              0.0000000000
      7386        65  OSM       H15G          -21.7874300803      -26.8166690171        4.7389262824  MEMB      65              0.0000000000
      7387        65  OSM       C16F          -22.4340598422      -27.3611902578        2.7539973374  MEMB      65              0.0000000000
      7388        65  OSM       H16F          -22.9758710212      -26.5105512808        2.5960615435  MEMB      65              0.0000000000
      7389        65  OSM       H16G          -23.1944355956      -28.1531661889        2.9706901650  MEMB      65              0.0000000000
      7390        65  OSM       C17F          -21.8757614559      -27.7619161705        1.5248348554  MEMB      65              0.0000000000
      7391        65  OSM       H17F          -21.9316566386      -28.7452408010        1.8360342394  MEMB      65              0.0000000000
      7392        65  OSM       H17G          -20.9188652241      -27.6529663372        1.0639155764  MEMB      65              0.0000000000
      7393        65  OSM       C18F          -22.9345911284      -27.6484365866        0.7053833002  MEMB      65              0.0000000000
      7394        65  OSM       H18F          -23.6532268346      -28.4419724092        0.9227029276  MEMB      65              0.0000000000
      7395        65  OSM       H18G          -22.9662503091      -28.1799907153       -0.1288216326  MEMB      65              0.0000000000
      7396        65  OSM       H18H          -23.2331116594      -26.6296718961        0.5529321712  MEMB      65              0.0000000000
      7397        66  CHL1      C3            -38.8455329783        5.6614775372       17.4582005076  MEMB      66              0.0000000000
      7398        66  CHL1      H3            -37.8165881505        5.3532090783       17.7402750244  MEMB      66              0.0000000000
      7399        66  CHL1      O3            -39.7139952338        5.3726914389       18.5413885972  MEMB      66              0.0000000000
      7400        66  CHL1      H3'           -39.3953773668        5.9102261285       19.2877909398  MEMB      66              0.0000000000
      7401        66  CHL1      C4            -38.8775974932        7.1662145562       17.1319156510  MEMB      66              0.0000000000
      7402        66  CHL1      H4A           -39.9329202818        7.4740208561       17.0093227025  MEMB      66              0.0000000000
      7403        66  CHL1      H4B           -38.4569337886        7.7237970967       18.0002943789  MEMB      66              0.0000000000
      7404        66  CHL1      C5            -38.1119768483        7.4714203665       15.8727611636  MEMB      66              0.0000000000
      7405        66  CHL1      C6            -37.0863030876        8.3231962121       15.8583301599  MEMB      66              0.0000000000
      7406        66  CHL1      H6            -36.8306006581        8.9799861203       16.7138824106  MEMB      66              0.0000000000
      7407        66  CHL1      C7            -36.3963437298        8.5790500698       14.5796124371  MEMB      66              0.0000000000
      7408        66  CHL1      H7A           -36.6295963005        9.5719904876       14.6150386027  MEMB      66              0.0000000000
      7409        66  CHL1      H7B           -35.2953024492        8.4368026410       14.5416256312  MEMB      66              0.0000000000
      7410        66  CHL1      C8            -37.1588136036        8.2501225002       13.2933622531  MEMB      66              0.0000000000
      7411        66  CHL1      H8            -38.0393507830        8.9494625760       13.2188032848  MEMB      66              0.0000000000
      7412        66  CHL1      C14           -36.2925925438        8.2862764501       12.0630110731  MEMB      66              0.0000000000
      7413        66  CHL1      H14           -35.4120847018        7.6340872601       12.2137177692  MEMB      66              0.0000000000
      7414        66  CHL1      C15           -35.6144810099        9.5099939195       11.7761562223  MEMB      66              0.0000000000
      7415        66  CHL1      H15A          -36.5393477113       10.0485262671       11.9990349330  MEMB      66              0.0000000000
      7416        66  CHL1      H15B          -34.6853997085        9.7809266990       12.3245330834  MEMB      66              0.0000000000
      7417        66  CHL1      C16           -35.5706787635        9.7190015553       10.3382083587  MEMB      66              0.0000000000
      7418        66  CHL1      H16A          -36.4508974472       10.3916578139       10.0824320236  MEMB      66              0.0000000000
      7419        66  CHL1      H16B          -34.5496110747       10.0749154048       10.0673293548  MEMB      66              0.0000000000
      7420        66  CHL1      C17           -36.0393000937        8.4952285906        9.6953439530  MEMB      66              0.0000000000
      7421        66  CHL1      H17           -35.1141548222        7.8909697317        9.7440710314  MEMB      66              0.0000000000
      7422        66  CHL1      C13           -37.0183302403        7.9954166271       10.7617068797  MEMB      66              0.0000000000
      7423        66  CHL1      C18           -38.3794080650        8.7555468012       10.6153650596  MEMB      66              0.0000000000
      7424        66  CHL1      H18A          -38.3222433216        9.8638455183       10.6985845055  MEMB      66              0.0000000000
      7425        66  CHL1      H18B          -38.8079121455        8.5169110499        9.6228615062  MEMB      66              0.0000000000
      7426        66  CHL1      H18C          -39.0762420402        8.4243750693       11.4029246713  MEMB      66              0.0000000000
      7427        66  CHL1      C12           -37.1168977730        6.5041402930       10.8711731465  MEMB      66              0.0000000000
      7428        66  CHL1      H12A          -37.6511409332        6.0929368966       10.0049634310  MEMB      66              0.0000000000
      7429        66  CHL1      H12B          -36.0672536615        6.1298791063       10.8765122122  MEMB      66              0.0000000000
      7430        66  CHL1      C11           -37.8530807067        6.0899460954       12.1544164368  MEMB      66              0.0000000000
      7431        66  CHL1      H11A          -38.9178034649        6.2569030125       11.9268209197  MEMB      66              0.0000000000
      7432        66  CHL1      H11B          -37.6718665463        5.0121813420       12.3175773698  MEMB      66              0.0000000000
      7433        66  CHL1      C9            -37.5086658279        6.8301733235       13.4696751425  MEMB      66              0.0000000000
      7434        66  CHL1      H9            -36.5303054521        6.3954868222       13.8114829442  MEMB      66              0.0000000000
      7435        66  CHL1      C10           -38.5077579317        6.6440372881       14.6247692326  MEMB      66              0.0000000000
      7436        66  CHL1      C19           -39.9246457861        7.0483833645       14.1175525292  MEMB      66              0.0000000000
      7437        66  CHL1      H19A          -40.3380977834        6.2859388962       13.4286275037  MEMB      66              0.0000000000
      7438        66  CHL1      H19B          -40.6300799767        7.1180051862       14.9666570201  MEMB      66              0.0000000000
      7439        66  CHL1      H19C          -39.9154588351        7.9989922675       13.5468027356  MEMB      66              0.0000000000
      7440        66  CHL1      C1            -38.4947093926        5.1435118841       14.9937054235  MEMB      66              0.0000000000
      7441        66  CHL1      H1A           -38.9328298017        4.5994511221       14.1316231473  MEMB      66              0.0000000000
      7442        66  CHL1      H1B           -37.4404436614        4.8012520080       15.0969292279  MEMB      66              0.0000000000
      7443        66  CHL1      C2            -39.2637187143        4.7913824966       16.2747066611  MEMB      66              0.0000000000
      7444        66  CHL1      H2A           -39.0418596856        3.7470411991       16.5870822454  MEMB      66              0.0000000000
      7445        66  CHL1      H2B           -40.3579709738        4.8863112409       16.1111123623  MEMB      66              0.0000000000
      7446        66  CHL1      C20           -36.5010732054        8.7934017739        8.2630822242  MEMB      66              0.0000000000
      7447        66  CHL1      H20           -37.3673892363        9.5021380970        8.2387035294  MEMB      66              0.0000000000
      7448        66  CHL1      C21           -36.9274936830        7.4546670872        7.6699238396  MEMB      66              0.0000000000
      7449        66  CHL1      H21A          -36.1017675776        6.7356352001        7.8472670770  MEMB      66              0.0000000000
      7450        66  CHL1      H21B          -37.1241985754        7.5294532279        6.5836961772  MEMB      66              0.0000000000
      7451        66  CHL1      H21C          -37.8459278051        7.0902704155        8.1712182068  MEMB      66              0.0000000000
      7452        66  CHL1      C22           -35.3936390091        9.4486913833        7.3976896038  MEMB      66              0.0000000000
      7453        66  CHL1      H22A          -35.8172447520        9.6063156921        6.3837367295  MEMB      66              0.0000000000
      7454        66  CHL1      H22B          -35.1829124489       10.4646613236        7.7645743801  MEMB      66              0.0000000000
      7455        66  CHL1      C23           -34.0820404533        8.6294216467        7.4009933832  MEMB      66              0.0000000000
      7456        66  CHL1      H23A          -33.7132661072        8.5567847746        8.4444524875  MEMB      66              0.0000000000
      7457        66  CHL1      H23B          -34.2871325344        7.5953208711        7.0737468321  MEMB      66              0.0000000000
      7458        66  CHL1      C24           -32.9268310346        9.2208746365        6.6012371536  MEMB      66              0.0000000000
      7459        66  CHL1      H24A          -32.1549232446        8.5047270418        6.2719585268  MEMB      66              0.0000000000
      7460        66  CHL1      H24B          -33.3193218043        9.7423353725        5.6956901894  MEMB      66              0.0000000000
      7461        66  CHL1      C25           -32.1751385400       10.2398951477        7.4218928029  MEMB      66              0.0000000000
      7462        66  CHL1      H25           -33.0081932815       10.8854890816        7.8108010723  MEMB      66              0.0000000000
      7463        66  CHL1      C26           -31.4173249358        9.8151888679        8.6914356641  MEMB      66              0.0000000000
      7464        66  CHL1      H26A          -30.6248091382        9.1151910217        8.4814957933  MEMB      66              0.0000000000
      7465        66  CHL1      H26B          -30.8732842466       10.6622226096        9.1615955274  MEMB      66              0.0000000000
      7466        66  CHL1      H26C          -32.0680570694        9.3508253221        9.4552973863  MEMB      66              0.0000000000
      7467        66  CHL1      C27           -31.2085138877       10.9624468838        6.4643525432  MEMB      66              0.0000000000
      7468        66  CHL1      H27A          -30.6714073467       11.7585932219        6.9896697634  MEMB      66              0.0000000000
      7469        66  CHL1      H27B          -30.3279676896       10.3829644734        6.1874908236  MEMB      66              0.0000000000
      7470        66  CHL1      H27C          -31.7730762384       11.4190856293        5.6175278871  MEMB      66              0.0000000000
      7471        67  OSM       N             -28.2926247576      -14.3076865005       20.7789473480  MEMB      67              0.0000000000
      7472        67  OSM       C15           -27.0108050405      -14.0650551850       20.0611536266  MEMB      67              0.0000000000
      7473        67  OSM       H15A          -26.8465635403      -14.7932331112       19.2662430832  MEMB      67              0.0000000000
      7474        67  OSM       H15B          -26.1601602958      -14.2044256057       20.7285315578  MEMB      67              0.0000000000
      7475        67  OSM       H15C          -26.9753050091      -13.0787539783       19.6406203376  MEMB      67              0.0000000000
      7476        67  OSM       C14           -28.1678940582      -15.5530807850       21.6022136248  MEMB      67              0.0000000000
      7477        67  OSM       H14A          -27.4144176250      -15.4837504083       22.3805551052  MEMB      67              0.0000000000
      7478        67  OSM       H14B          -27.8455494058      -16.4045163555       21.0091753929  MEMB      67              0.0000000000
      7479        67  OSM       H14C          -29.1394438797      -15.7926018955       22.0368905746  MEMB      67              0.0000000000
      7480        67  OSM       C13           -28.6035301794      -13.1873845070       21.6962608370  MEMB      67              0.0000000000
      7481        67  OSM       H13A          -29.6490859649      -13.3101306084       22.0116465115  MEMB      67              0.0000000000
      7482        67  OSM       H13B          -28.5020333572      -12.2403229217       21.2000257192  MEMB      67              0.0000000000
      7483        67  OSM       H13C          -28.0082483870      -13.2220719352       22.6029663042  MEMB      67              0.0000000000
      7484        67  OSM       C12           -29.4501518770      -14.4705612391       19.8308405570  MEMB      67              0.0000000000
      7485        67  OSM       H12A          -29.3861631960      -15.4474473318       19.3958264061  MEMB      67              0.0000000000
      7486        67  OSM       H12B          -29.3723528061      -13.7444879322       19.0476290533  MEMB      67              0.0000000000
      7487        67  OSM       C11           -30.8761357741      -14.4416389284       20.4114996359  MEMB      67              0.0000000000
      7488        67  OSM       H11A          -31.5465415256      -14.6123916838       19.5338062057  MEMB      67              0.0000000000
      7489        67  OSM       H11B          -31.1303686269      -13.4421625052       20.8212914440  MEMB      67              0.0000000000
      7490        67  OSM       P             -32.1602254813      -16.5261991826       21.4226537931  MEMB      67              0.0000000000
      7491        67  OSM       O13           -31.7482262089      -17.6304043868       22.3122867569  MEMB      67              0.0000000000
      7492        67  OSM       O14           -33.4584356525      -15.8832495418       21.6302365233  MEMB      67              0.0000000000
      7493        67  OSM       O11           -32.0510555012      -17.1290023224       19.9752625695  MEMB      67              0.0000000000
      7494        67  OSM       O12           -31.0176327212      -15.4261866617       21.4321838135  MEMB      67              0.0000000000
      7495        67  OSM       C1S           -31.1786247451      -18.2420654389       19.7589588552  MEMB      67              0.0000000000
      7496        67  OSM       H1S           -31.5860538794      -19.1865452726       20.1099709775  MEMB      67              0.0000000000
      7497        67  OSM       H1T           -30.2073807062      -18.0858047848       20.2963348204  MEMB      67              0.0000000000
      7498        67  OSM       NF            -29.9537769498      -17.1135885666       18.3712148238  MEMB      67              0.0000000000
      7499        67  OSM       HNF           -30.1344641291      -16.7835291590       17.4989660973  MEMB      67              0.0000000000
      7500        67  OSM       C2S           -30.9228844307      -18.2491120134       18.2953700079  MEMB      67              0.0000000000
      7501        67  OSM       H2S           -30.5825959143      -19.2753699096       17.8963418549  MEMB      67              0.0000000000
      7502        67  OSM       C3S           -32.2463708449      -17.8885188316       17.4639778944  MEMB      67              0.0000000000
      7503        67  OSM       H3S           -32.5883979318      -16.8776126257       17.7362376286  MEMB      67              0.0000000000
      7504        67  OSM       O3            -33.2843437606      -18.8425524480       17.6345148868  MEMB      67              0.0000000000
      7505        67  OSM       HO3           -33.0211250253      -19.3242950114       18.4152034762  MEMB      67              0.0000000000
      7506        67  OSM       C4S           -32.0360563738      -17.8039076150       15.9528171427  MEMB      67              0.0000000000
      7507        67  OSM       H4S           -31.8572504042      -18.6879306669       15.4036142693  MEMB      67              0.0000000000
      7508        67  OSM       C5S           -32.0643483589      -16.7417654927       15.1526311740  MEMB      67              0.0000000000
      7509        67  OSM       H5S           -31.9561871512      -15.7597886332       15.6279145922  MEMB      67              0.0000000000
      7510        67  OSM       C6S           -31.8580305246      -16.7892282690       13.6519229389  MEMB      67              0.0000000000
      7511        67  OSM       H6S           -31.0759844522      -16.1056497971       13.3566284073  MEMB      67              0.0000000000
      7512        67  OSM       H6T           -32.6653044350      -16.2349607006       13.1732961548  MEMB      67              0.0000000000
      7513        67  OSM       C7S           -31.8146398729      -18.1221489209       12.8789891254  MEMB      67              0.0000000000
      7514        67  OSM       H7S           -32.7860867755      -18.6142667877       13.0887143326  MEMB      67              0.0000000000
      7515        67  OSM       H7T           -30.9347199154      -18.7642495623       13.1050770840  MEMB      67              0.0000000000
      7516        67  OSM       C8S           -31.8216263247      -17.9470436956       11.3749880560  MEMB      67              0.0000000000
      7517        67  OSM       H8S           -31.3672596800      -18.8453834716       10.9056507215  MEMB      67              0.0000000000
      7518        67  OSM       H8T           -31.1603294101      -17.0771377479       11.1730099176  MEMB      67              0.0000000000
      7519        67  OSM       C9S           -33.2502717432      -17.7196220064       10.8729120223  MEMB      67              0.0000000000
      7520        67  OSM       H9S           -33.8615331864      -17.3249973420       11.7180114663  MEMB      67              0.0000000000
      7521        67  OSM       H9T           -33.7508508458      -18.6731119395       10.5904823904  MEMB      67              0.0000000000
      7522        67  OSM       C10S          -33.2800201355      -16.6805340262        9.7491238869  MEMB      67              0.0000000000
      7523        67  OSM       H10S          -33.0507982093      -15.6938700654       10.2070398506  MEMB      67              0.0000000000
      7524        67  OSM       H10T          -34.3096230244      -16.6333404248        9.3274851159  MEMB      67              0.0000000000
      7525        67  OSM       C11S          -32.2772521947      -16.9439271563        8.6109542085  MEMB      67              0.0000000000
      7526        67  OSM       H11S          -32.3245685803      -18.0347400288        8.3933784763  MEMB      67              0.0000000000
      7527        67  OSM       H11T          -31.2275066385      -16.7244030903        8.9052394014  MEMB      67              0.0000000000
      7528        67  OSM       C12S          -32.6666571907      -16.2128559833        7.3124185833  MEMB      67              0.0000000000
      7529        67  OSM       H12S          -33.7139773425      -16.5148025657        7.1270288241  MEMB      67              0.0000000000
      7530        67  OSM       H12T          -32.0573582255      -16.5779233770        6.4613022313  MEMB      67              0.0000000000
      7531        67  OSM       C13S          -32.6626936051      -14.6765797637        7.3673192431  MEMB      67              0.0000000000
      7532        67  OSM       H13S          -31.6942949555      -14.2835904854        7.7354070058  MEMB      67              0.0000000000
      7533        67  OSM       H13T          -33.4428326638      -14.4091993468        8.1166692156  MEMB      67              0.0000000000
      7534        67  OSM       C14S          -32.9560163450      -13.9838879716        6.0173534338  MEMB      67              0.0000000000
      7535        67  OSM       H14S          -33.1806144270      -12.9087987074        6.2087519153  MEMB      67              0.0000000000
      7536        67  OSM       H14T          -33.8666085956      -14.4246851936        5.5630424974  MEMB      67              0.0000000000
      7537        67  OSM       C15S          -31.8425691394      -14.1114405638        4.9534793546  MEMB      67              0.0000000000
      7538        67  OSM       H15S          -31.8568297341      -15.1421984885        4.5509534507  MEMB      67              0.0000000000
      7539        67  OSM       H15T          -30.8342681803      -13.8838765367        5.3671599146  MEMB      67              0.0000000000
      7540        67  OSM       C16S          -32.0544880814      -13.1394505064        3.7982993576  MEMB      67              0.0000000000
      7541        67  OSM       H16S          -32.1140268846      -12.1932469852        4.3492523368  MEMB      67              0.0000000000
      7542        67  OSM       H16T          -33.0093120876      -13.3470981937        3.2604990229  MEMB      67              0.0000000000
      7543        67  OSM       C17S          -30.9323620441      -13.0811176220        2.7698357380  MEMB      67              0.0000000000
      7544        67  OSM       H17S          -29.9404099562      -12.9894582209        3.2639249135  MEMB      67              0.0000000000
      7545        67  OSM       H17T          -31.0291937813      -12.1468467832        2.1660944349  MEMB      67              0.0000000000
      7546        67  OSM       C18S          -31.0281563743      -14.3320030413        1.9038582206  MEMB      67              0.0000000000
      7547        67  OSM       H18S          -31.9444398414      -14.3993242898        1.2819713063  MEMB      67              0.0000000000
      7548        67  OSM       H18T          -30.7811104617      -15.2603289745        2.4346075915  MEMB      67              0.0000000000
      7549        67  OSM       H18U          -30.2243531164      -14.4372780722        1.2549120270  MEMB      67              0.0000000000
      7550        67  OSM       C1F           -28.5648983181      -16.9718681850       18.6321953834  MEMB      67              0.0000000000
      7551        67  OSM       OF            -28.3826606430      -18.1349704132       19.1438036087  MEMB      67              0.0000000000
      7552        67  OSM       C2F           -27.3386493226      -15.9351754809       16.9885825234  MEMB      67              0.0000000000
      7553        67  OSM       H2F           -26.7956914238      -15.2775145130       17.5505736041  MEMB      67              0.0000000000
      7554        67  OSM       H2G           -28.1034522192      -15.3090755965       16.8656831332  MEMB      67              0.0000000000
      7555        67  OSM       C3F           -26.4188248475      -17.4914778231       15.4418505689  MEMB      67              0.0000000000
      7556        67  OSM       H3F           -26.3500428005      -18.6161306968       15.7624469304  MEMB      67              0.0000000000
      7557        67  OSM       H3G           -25.4688630710      -17.2849814932       15.1753958221  MEMB      67              0.0000000000
      7558        67  OSM       C4F           -27.3377691850      -18.9233915067       14.6000889455  MEMB      67              0.0000000000
      7559        67  OSM       H4F           -28.4048275047      -18.6475800860       14.2843225658  MEMB      67              0.0000000000
      7560        67  OSM       H4G           -27.9612741624      -19.7421733780       15.1154723307  MEMB      67              0.0000000000
      7561        67  OSM       C5F           -26.8704769363      -19.2861218088       13.3004925385  MEMB      67              0.0000000000
      7562        67  OSM       H5F           -27.6943153580      -19.7111651589       12.6985482853  MEMB      67              0.0000000000
      7563        67  OSM       H5G           -25.9975482106      -19.9116031316       13.5367279040  MEMB      67              0.0000000000
      7564        67  OSM       C6F           -26.2180457727      -18.1747028782       12.6020585408  MEMB      67              0.0000000000
      7565        67  OSM       H6F           -25.6920572941      -18.6845853957       11.7967733907  MEMB      67              0.0000000000
      7566        67  OSM       H6G           -25.7103991435      -17.5299064459       13.3225138432  MEMB      67              0.0000000000
      7567        67  OSM       C7F           -26.7985804580      -17.2844547516       11.6723313356  MEMB      67              0.0000000000
      7568        67  OSM       H7F           -26.7378917808      -16.4796111976       12.4172889118  MEMB      67              0.0000000000
      7569        67  OSM       H7G           -27.7082159629      -17.8083675898       11.3572212857  MEMB      67              0.0000000000
      7570        67  OSM       C8F           -26.4129972601      -15.9791282676       11.1884468558  MEMB      67              0.0000000000
      7571        67  OSM       H8F           -25.8929376824      -15.8330841428       10.3943064646  MEMB      67              0.0000000000
      7572        67  OSM       H8G           -25.9085959493      -15.1027736213       11.7693026587  MEMB      67              0.0000000000
      7573        67  OSM       C9F           -27.4683227721      -15.7666439530       10.3007292442  MEMB      67              0.0000000000
      7574        67  OSM       H9F           -27.6707488392      -15.0925468733       11.0015837693  MEMB      67              0.0000000000
      7575        67  OSM       C10F          -27.8796256331      -15.6734080653        9.1063042699  MEMB      67              0.0000000000
      7576        67  OSM       H10F          -28.5302447029      -14.7750378674        9.1231766943  MEMB      67              0.0000000000
      7577        67  OSM       C11F          -26.9375957043      -15.8740491165        7.9493371653  MEMB      67              0.0000000000
      7578        67  OSM       H11F          -25.8684332545      -15.8932332085        7.9763429924  MEMB      67              0.0000000000
      7579        67  OSM       H11G          -26.6263045328      -15.1600558153        7.1775099368  MEMB      67              0.0000000000
      7580        67  OSM       C12F          -27.9233912289      -16.3327518455        7.0172428085  MEMB      67              0.0000000000
      7581        67  OSM       H12F          -28.6205845896      -15.4817474027        6.7366579440  MEMB      67              0.0000000000
      7582        67  OSM       H12G          -28.4300782066      -17.1947295117        7.4771501135  MEMB      67              0.0000000000
      7583        67  OSM       C13F          -27.1118560251      -16.8516110625        5.8922042087  MEMB      67              0.0000000000
      7584        67  OSM       H13F          -26.1999420172      -17.3550240849        6.2458008601  MEMB      67              0.0000000000
      7585        67  OSM       H13G          -26.6608964173      -16.0387802343        5.4743326044  MEMB      67              0.0000000000
      7586        67  OSM       C14F          -27.9505849725      -17.4541306703        4.8231453307  MEMB      67              0.0000000000
      7587        67  OSM       H14F          -28.5529502698      -16.6831950011        4.2857794691  MEMB      67              0.0000000000
      7588        67  OSM       H14G          -28.5954562191      -18.1042867834        5.4496875044  MEMB      67              0.0000000000
      7589        67  OSM       C15F          -27.1779203516      -18.3618266603        3.8876575888  MEMB      67              0.0000000000
      7590        67  OSM       H15F          -27.8700297932      -18.8918707308        3.2069892479  MEMB      67              0.0000000000
      7591        67  OSM       H15G          -26.5795737620      -19.0284831528        4.5362484772  MEMB      67              0.0000000000
      7592        67  OSM       C16F          -26.1463902525      -17.8283061172        2.9756915038  MEMB      67              0.0000000000
      7593        67  OSM       H16F          -25.7590158418      -18.6009433347        2.2826256889  MEMB      67              0.0000000000
      7594        67  OSM       H16G          -25.3358293720      -17.2935006050        3.5263011022  MEMB      67              0.0000000000
      7595        67  OSM       C17F          -26.6180011019      -16.8827197629        1.9894929578  MEMB      67              0.0000000000
      7596        67  OSM       H17F          -25.7089252369      -16.5570902991        1.4252223109  MEMB      67              0.0000000000
      7597        67  OSM       H17G          -26.8799519981      -16.1228684898        2.7777308512  MEMB      67              0.0000000000
      7598        67  OSM       C18F          -27.7921024778      -17.1386441523        1.0021053738  MEMB      67              0.0000000000
      7599        67  OSM       H18F          -28.7413857114      -17.1287226710        1.5654165782  MEMB      67              0.0000000000
      7600        67  OSM       H18G          -27.5740815540      -17.9125814093        0.2662833215  MEMB      67              0.0000000000
      7601        67  OSM       H18H          -28.0409187754      -16.3084566197        0.3010330872  MEMB      67              0.0000000000
      7602        68  CHL1      C3             -1.5697922828       34.7883795319       17.3328238692  MEMB      68              0.0000000000
      7603        68  CHL1      H3             -2.5328542370       34.3047285774       17.0298562821  MEMB      68              0.0000000000
      7604        68  CHL1      O3             -1.5949552893       35.1439599919       18.6814178559  MEMB      68              0.0000000000
      7605        68  CHL1      H3'            -0.6596459744       35.2622440598       18.8626931287  MEMB      68              0.0000000000
      7606        68  CHL1      C4             -0.3929708098       33.8227894081       17.1108481475  MEMB      68              0.0000000000
      7607        68  CHL1      H4A             0.5581148546       34.2809184345       17.4514506441  MEMB      68              0.0000000000
      7608        68  CHL1      H4B            -0.5574950164       32.9409325425       17.7659834931  MEMB      68              0.0000000000
      7609        68  CHL1      C5             -0.3357855441       33.4821030501       15.6380303311  MEMB      68              0.0000000000
      7610        68  CHL1      C6             -0.4571585213       32.2538939813       15.1189542058  MEMB      68              0.0000000000
      7611        68  CHL1      H6             -0.4961752080       31.3965686109       15.7962587006  MEMB      68              0.0000000000
      7612        68  CHL1      C7             -0.4274103510       31.9424876148       13.6403346371  MEMB      68              0.0000000000
      7613        68  CHL1      H7A             0.1108338544       31.0031196823       13.4362653258  MEMB      68              0.0000000000
      7614        68  CHL1      H7B            -1.4611272914       31.8679594250       13.2205136520  MEMB      68              0.0000000000
      7615        68  CHL1      C8              0.2397001383       33.0324364442       12.8194692081  MEMB      68              0.0000000000
      7616        68  CHL1      H8              1.3329829402       33.0853597113       13.0108589477  MEMB      68              0.0000000000
      7617        68  CHL1      C14            -0.0477969873       32.8475661126       11.3214990899  MEMB      68              0.0000000000
      7618        68  CHL1      H14            -1.1597915499       33.0064125418       11.2252204533  MEMB      68              0.0000000000
      7619        68  CHL1      C15             0.2885384252       31.5435655122       10.6088281132  MEMB      68              0.0000000000
      7620        68  CHL1      H15A            1.3013071521       31.2161857341       10.9140629564  MEMB      68              0.0000000000
      7621        68  CHL1      H15B           -0.4487683798       30.7554393584       10.8088931549  MEMB      68              0.0000000000
      7622        68  CHL1      C16             0.3008680953       31.9146945181        9.1169685451  MEMB      68              0.0000000000
      7623        68  CHL1      H16A            1.3146915955       31.7333130234        8.6927415477  MEMB      68              0.0000000000
      7624        68  CHL1      H16B           -0.4745074026       31.3868311377        8.5399663912  MEMB      68              0.0000000000
      7625        68  CHL1      C17            -0.0263367442       33.4071487611        9.0496329847  MEMB      68              0.0000000000
      7626        68  CHL1      H17            -1.1401648782       33.4968779890        9.1222329428  MEMB      68              0.0000000000
      7627        68  CHL1      C13             0.5503559362       33.8572850143       10.3979156220  MEMB      68              0.0000000000
      7628        68  CHL1      C18             2.1110783469       33.8731167320       10.3576188551  MEMB      68              0.0000000000
      7629        68  CHL1      H18A            2.5009085926       34.3301342811        9.4219850352  MEMB      68              0.0000000000
      7630        68  CHL1      H18B            2.5364330970       34.4477520023       11.2071757591  MEMB      68              0.0000000000
      7631        68  CHL1      H18C            2.4872988156       32.8463836630       10.4242816014  MEMB      68              0.0000000000
      7632        68  CHL1      C12             0.0272167199       35.0826718409       10.9547265327  MEMB      68              0.0000000000
      7633        68  CHL1      H12A            0.8565065295       35.6432636876       10.4881701728  MEMB      68              0.0000000000
      7634        68  CHL1      H12B           -0.9972613716       35.3237936948       10.6027568235  MEMB      68              0.0000000000
      7635        68  CHL1      C11             0.1432106919       35.3370612607       12.4470802037  MEMB      68              0.0000000000
      7636        68  CHL1      H11A            1.1720784648       35.7103139133       12.6555421901  MEMB      68              0.0000000000
      7637        68  CHL1      H11B           -0.6388979622       36.0738760634       12.7593606755  MEMB      68              0.0000000000
      7638        68  CHL1      C9             -0.3791319808       34.3024607838       13.2924154716  MEMB      68              0.0000000000
      7639        68  CHL1      H9             -1.4774412270       34.2933119514       13.0322979128  MEMB      68              0.0000000000
      7640        68  CHL1      C10            -0.2030339548       34.6938395162       14.7671975184  MEMB      68              0.0000000000
      7641        68  CHL1      C19             1.2328234238       35.2412779810       15.0528280704  MEMB      68              0.0000000000
      7642        68  CHL1      H19A            1.4813681205       35.3931724209       16.1114627688  MEMB      68              0.0000000000
      7643        68  CHL1      H19B            2.0467362462       34.7203824551       14.5188933839  MEMB      68              0.0000000000
      7644        68  CHL1      H19C            1.2991021241       36.2434189125       14.6955055603  MEMB      68              0.0000000000
      7645        68  CHL1      C1             -1.2885481506       35.7516604359       15.1199914124  MEMB      68              0.0000000000
      7646        68  CHL1      H1A            -1.0527200438       36.6977255472       14.6453198477  MEMB      68              0.0000000000
      7647        68  CHL1      H1B            -2.2860263279       35.4712999445       14.7161283515  MEMB      68              0.0000000000
      7648        68  CHL1      C2             -1.3337504044       36.0831594649       16.5892116654  MEMB      68              0.0000000000
      7649        68  CHL1      H2A            -2.0709856216       36.8905944138       16.7907086154  MEMB      68              0.0000000000
      7650        68  CHL1      H2B            -0.3371025694       36.4795514379       16.8863674759  MEMB      68              0.0000000000
      7651        68  CHL1      C20             0.3440307725       33.9806318246        7.6881625719  MEMB      68              0.0000000000
      7652        68  CHL1      H20             1.4172975712       34.2613072692        7.5988963037  MEMB      68              0.0000000000
      7653        68  CHL1      C21            -0.4525355993       35.1740691760        7.3728064719  MEMB      68              0.0000000000
      7654        68  CHL1      H21A           -1.5337889341       35.1106381504        7.1247320195  MEMB      68              0.0000000000
      7655        68  CHL1      H21B            0.0434796089       35.7716869645        6.5605220364  MEMB      68              0.0000000000
      7656        68  CHL1      H21C           -0.4313057467       35.7469205630        8.2764895613  MEMB      68              0.0000000000
      7657        68  CHL1      C22            -0.0382665181       33.0540844710        6.5693274227  MEMB      68              0.0000000000
      7658        68  CHL1      H22A            0.7112853886       32.2495551663        6.5674008135  MEMB      68              0.0000000000
      7659        68  CHL1      H22B           -1.0877507306       32.6869836548        6.7070264409  MEMB      68              0.0000000000
      7660        68  CHL1      C23             0.0173711643       33.7450066802        5.2507923566  MEMB      68              0.0000000000
      7661        68  CHL1      H23A           -0.8303699306       34.4226101123        5.1155015071  MEMB      68              0.0000000000
      7662        68  CHL1      H23B            0.9733351085       34.2673595834        5.0231432868  MEMB      68              0.0000000000
      7663        68  CHL1      C24            -0.1889794177       32.8265546460        4.1728047191  MEMB      68              0.0000000000
      7664        68  CHL1      H24A            0.6816978788       32.1565958516        4.0936961453  MEMB      68              0.0000000000
      7665        68  CHL1      H24B           -1.1368577205       32.2090801312        4.2610346827  MEMB      68              0.0000000000
      7666        68  CHL1      C25            -0.2013587843       33.7714847387        3.0211235396  MEMB      68              0.0000000000
      7667        68  CHL1      H25            -1.1296729635       34.3883850610        2.8793835993  MEMB      68              0.0000000000
      7668        68  CHL1      C26             1.0882557164       34.1470520710        2.2172954006  MEMB      68              0.0000000000
      7669        68  CHL1      H26A            1.6067237160       33.2497673169        1.7699913250  MEMB      68              0.0000000000
      7670        68  CHL1      H26B            0.8391204939       34.7697205374        1.3152854448  MEMB      68              0.0000000000
      7671        68  CHL1      H26C            1.7057969264       34.6885957051        2.9168257919  MEMB      68              0.0000000000
      7672        68  CHL1      C27            -0.5805561213       32.8162114869        2.2612179512  MEMB      68              0.0000000000
      7673        68  CHL1      H27A           -1.6229401224       32.3982121424        2.3358598852  MEMB      68              0.0000000000
      7674        68  CHL1      H27B           -0.5173326929       33.4259561220        1.2989330157  MEMB      68              0.0000000000
      7675        68  CHL1      H27C            0.1513189715       31.9743354107        2.1363002250  MEMB      68              0.0000000000
      7676        69  SAPC      N              25.6385760332      -26.7689092921       19.9500410457  MEMB      69              0.0000000000
      7677        69  SAPC      C12            25.2994234613      -25.6430008680       19.0095675629  MEMB      69              0.0000000000
      7678        69  SAPC      H12A           25.7385871310      -25.8767898875       18.0432620859  MEMB      69              0.0000000000
      7679        69  SAPC      H12B           25.7812405469      -24.7405618490       19.3674987102  MEMB      69              0.0000000000
      7680        69  SAPC      C13            27.1123818871      -26.9031409012       19.8799671933  MEMB      69              0.0000000000
      7681        69  SAPC      H13A           27.5820199161      -26.0370698799       20.3473799438  MEMB      69              0.0000000000
      7682        69  SAPC      H13B           27.4408538199      -27.8117201178       20.3229524962  MEMB      69              0.0000000000
      7683        69  SAPC      H13C           27.4367808345      -26.8958838966       18.8443477123  MEMB      69              0.0000000000
      7684        69  SAPC      C14            25.2017304772      -26.4670684024       21.3426672854  MEMB      69              0.0000000000
      7685        69  SAPC      H14A           25.6080793146      -25.5085966557       21.6439919320  MEMB      69              0.0000000000
      7686        69  SAPC      H14B           24.1160560656      -26.3737125362       21.3299300801  MEMB      69              0.0000000000
      7687        69  SAPC      H14C           25.4868995211      -27.2138183226       22.0609640161  MEMB      69              0.0000000000
      7688        69  SAPC      C15            24.9214765163      -27.9741088291       19.4723985263  MEMB      69              0.0000000000
      7689        69  SAPC      H15A           23.8394359110      -27.9421685377       19.4508530106  MEMB      69              0.0000000000
      7690        69  SAPC      H15B           25.2813331520      -28.2874632818       18.4795981467  MEMB      69              0.0000000000
      7691        69  SAPC      H15C           25.1784455061      -28.8877407138       20.0283258728  MEMB      69              0.0000000000
      7692        69  SAPC      C11            23.8048924227      -25.3693100087       18.7650291307  MEMB      69              0.0000000000
      7693        69  SAPC      H11A           23.3570709039      -26.2960482782       18.3611942460  MEMB      69              0.0000000000
      7694        69  SAPC      H11B           23.7357819693      -24.6038528830       17.9519435198  MEMB      69              0.0000000000
      7695        69  SAPC      P              22.9374662485      -23.5082014924       20.4231810182  MEMB      69              0.0000000000
      7696        69  SAPC      O13            22.0284235566      -23.4583845978       21.5897043582  MEMB      69              0.0000000000
      7697        69  SAPC      O14            24.3000057126      -22.9751293168       20.5708416635  MEMB      69              0.0000000000
      7698        69  SAPC      O12            23.0897471537      -25.0225064608       19.9561019917  MEMB      69              0.0000000000
      7699        69  SAPC      O11            22.2458620310      -22.8576498814       19.1439329245  MEMB      69              0.0000000000
      7700        69  SAPC      C1             20.8858115635      -23.1544284769       18.8352681354  MEMB      69              0.0000000000
      7701        69  SAPC      HA             20.4416869435      -23.9540096055       19.4581621797  MEMB      69              0.0000000000
      7702        69  SAPC      HB             20.3463841646      -22.2306263966       19.0061483136  MEMB      69              0.0000000000
      7703        69  SAPC      C2             20.5762273833      -23.3647033210       17.3335923786  MEMB      69              0.0000000000
      7704        69  SAPC      HS             19.4650619718      -23.3700723396       17.2029196261  MEMB      69              0.0000000000
      7705        69  SAPC      O21            21.1267291424      -24.5750073480       16.7826152188  MEMB      69              0.0000000000
      7706        69  SAPC      C21            20.9110786450      -25.7376095687       17.3589614299  MEMB      69              0.0000000000
      7707        69  SAPC      O22            20.1377356486      -25.9592463997       18.2589151454  MEMB      69              0.0000000000
      7708        69  SAPC      C22            21.5549820426      -26.8722538114       16.5229401669  MEMB      69              0.0000000000
      7709        69  SAPC      H2R            22.6261373810      -26.8388385997       16.6770168588  MEMB      69              0.0000000000
      7710        69  SAPC      H2S            20.9875062314      -27.7796441453       16.7970076262  MEMB      69              0.0000000000
      7711        69  SAPC      C3             21.1586305325      -22.1720499911       16.5493021294  MEMB      69              0.0000000000
      7712        69  SAPC      HX             21.8844418807      -21.5820304075       17.1292026474  MEMB      69              0.0000000000
      7713        69  SAPC      HY             20.5807388850      -21.2472613227       16.4343871338  MEMB      69              0.0000000000
      7714        69  SAPC      O31            22.1853124521      -22.6093398568       15.7387654982  MEMB      69              0.0000000000
      7715        69  SAPC      C31            22.7322725652      -22.7237001389       14.5331654847  MEMB      69              0.0000000000
      7716        69  SAPC      O32            23.9520678581      -22.8742204577       14.5289681615  MEMB      69              0.0000000000
      7717        69  SAPC      C32            22.0209993207      -22.7591345909       13.1090357238  MEMB      69              0.0000000000
      7718        69  SAPC      H2X            21.2142763004      -22.1076143422       12.7706553544  MEMB      69              0.0000000000
      7719        69  SAPC      H2Y            21.6673801168      -23.7736722202       12.8643815013  MEMB      69              0.0000000000
      7720        69  SAPC      C23            21.2826355390      -27.0085936223       15.0619154474  MEMB      69              0.0000000000
      7721        69  SAPC      H3R            21.5197819465      -25.9627055275       14.6550884042  MEMB      69              0.0000000000
      7722        69  SAPC      H3S            20.2886712251      -27.5725830411       14.8278280199  MEMB      69              0.0000000000
      7723        69  SAPC      C24            22.0592969086      -27.3611184047       13.9966980595  MEMB      69              0.0000000000
      7724        69  SAPC      H4R            21.6086759928      -27.2214959581       12.9490151982  MEMB      69              0.0000000000
      7725        69  SAPC      H4S            21.8557805248      -28.3313124614       14.3302008746  MEMB      69              0.0000000000
      7726        69  SAPC      C25            23.4320900686      -27.5237567206       14.3314739184  MEMB      69              0.0000000000
      7727        69  SAPC      H5R            23.6336436492      -28.4381396801       14.8908786376  MEMB      69              0.0000000000
      7728        69  SAPC      C26            24.3079859129      -26.9487000846       13.5935851061  MEMB      69              0.0000000000
      7729        69  SAPC      H6R            25.2792864514      -27.4151293838       13.6828293177  MEMB      69              0.0000000000
      7730        69  SAPC      C27            23.9636461827      -26.0888932923       12.4078602605  MEMB      69              0.0000000000
      7731        69  SAPC      H7R            24.4420180132      -25.1287029162       12.6750101277  MEMB      69              0.0000000000
      7732        69  SAPC      H7S            22.8879307460      -25.8361238499       12.2491166631  MEMB      69              0.0000000000
      7733        69  SAPC      C28            24.3605662291      -26.7184566689       11.0996362276  MEMB      69              0.0000000000
      7734        69  SAPC      H8R            23.9905187990      -27.7293192445       10.9243999968  MEMB      69              0.0000000000
      7735        69  SAPC      C29            25.0810115134      -26.1897181331       10.1149597179  MEMB      69              0.0000000000
      7736        69  SAPC      H9R            25.4263238029      -26.8234942233        9.2916922766  MEMB      69              0.0000000000
      7737        69  SAPC      C210           25.6673471513      -24.8392366296       10.1080319431  MEMB      69              0.0000000000
      7738        69  SAPC      H10R           26.0807483225      -24.7885134442       11.1554474776  MEMB      69              0.0000000000
      7739        69  SAPC      H10S           25.0383729540      -23.9447605468       10.2035087360  MEMB      69              0.0000000000
      7740        69  SAPC      C211           26.6308100883      -24.7344507574        8.9066437883  MEMB      69              0.0000000000
      7741        69  SAPC      H11R           27.6233797781      -25.1738382751        8.9072192084  MEMB      69              0.0000000000
      7742        69  SAPC      C212           26.6504358897      -23.9688174901        7.8639695664  MEMB      69              0.0000000000
      7743        69  SAPC      H12R           27.6520468381      -23.8459037872        7.4209881867  MEMB      69              0.0000000000
      7744        69  SAPC      C213           25.6965339685      -22.9470025948        7.4959889197  MEMB      69              0.0000000000
      7745        69  SAPC      H13R           26.2108552620      -22.3804150046        6.7077349135  MEMB      69              0.0000000000
      7746        69  SAPC      H13S           25.4352467210      -22.3072902148        8.3645571421  MEMB      69              0.0000000000
      7747        69  SAPC      C214           24.5409427807      -23.7342818176        6.9729545389  MEMB      69              0.0000000000
      7748        69  SAPC      H14R           23.8544278163      -24.0482677608        7.7732159791  MEMB      69              0.0000000000
      7749        69  SAPC      C215           24.3682179149      -24.1777650311        5.7139961294  MEMB      69              0.0000000000
      7750        69  SAPC      H15R           23.4448478047      -24.7203546387        5.4856057615  MEMB      69              0.0000000000
      7751        69  SAPC      C216           25.2673538348      -24.0079010650        4.5104762913  MEMB      69              0.0000000000
      7752        69  SAPC      H16R           26.3495957208      -23.9614184693        4.7696502544  MEMB      69              0.0000000000
      7753        69  SAPC      H16S           25.0066523722      -23.0565997132        3.9972577705  MEMB      69              0.0000000000
      7754        69  SAPC      C217           25.0223913793      -25.2126407916        3.5642776330  MEMB      69              0.0000000000
      7755        69  SAPC      H17R           23.9247691639      -25.3248385144        3.4150205839  MEMB      69              0.0000000000
      7756        69  SAPC      H17S           25.4042662459      -26.1435247231        4.0443667260  MEMB      69              0.0000000000
      7757        69  SAPC      C218           25.6656414007      -25.0997891650        2.1653390837  MEMB      69              0.0000000000
      7758        69  SAPC      H18R           26.7506428568      -24.9552283438        2.3407636761  MEMB      69              0.0000000000
      7759        69  SAPC      H18S           25.2858180086      -24.1743254979        1.6861555422  MEMB      69              0.0000000000
      7760        69  SAPC      C219           25.3490438558      -26.3110370954        1.2385966127  MEMB      69              0.0000000000
      7761        69  SAPC      H19R           24.2455469917      -26.4555824952        1.2809181204  MEMB      69              0.0000000000
      7762        69  SAPC      H19S           25.8257308074      -27.2289351644        1.6431655206  MEMB      69              0.0000000000
      7763        69  SAPC      C220           25.7379625270      -26.1959806769       -0.2479793274  MEMB      69              0.0000000000
      7764        69  SAPC      H20R           25.4379075564      -27.0818154413       -0.8552829495  MEMB      69              0.0000000000
      7765        69  SAPC      H20S           26.8366227238      -26.0893421338       -0.3528488026  MEMB      69              0.0000000000
      7766        69  SAPC      H20T           25.2142803847      -25.3273772610       -0.7002992174  MEMB      69              0.0000000000
      7767        69  SAPC      C33            23.1107887603      -22.3914207837       12.0290468390  MEMB      69              0.0000000000
      7768        69  SAPC      H3X            24.0264163697      -22.9847706685       12.2666582202  MEMB      69              0.0000000000
      7769        69  SAPC      H3Y            23.3966901674      -21.3215771175       12.1410319277  MEMB      69              0.0000000000
      7770        69  SAPC      C34            22.7884951732      -22.6248590397       10.5227938959  MEMB      69              0.0000000000
      7771        69  SAPC      H4X            22.7852343951      -23.7203527480       10.3310095277  MEMB      69              0.0000000000
      7772        69  SAPC      H4Y            23.6451175903      -22.1869973782        9.9513763698  MEMB      69              0.0000000000
      7773        69  SAPC      C35            21.5048274361      -22.0207710546        9.9015914085  MEMB      69              0.0000000000
      7774        69  SAPC      H5X            21.4578697577      -20.9269490341       10.0788898871  MEMB      69              0.0000000000
      7775        69  SAPC      H5Y            20.6052653553      -22.4772844882       10.3644910692  MEMB      69              0.0000000000
      7776        69  SAPC      C36            21.4260112339      -22.2158032628        8.3704925413  MEMB      69              0.0000000000
      7777        69  SAPC      H6X            22.3175414653      -21.7874571011        7.8785932308  MEMB      69              0.0000000000
      7778        69  SAPC      H6Y            20.5461934762      -21.6578712093        7.9591454066  MEMB      69              0.0000000000
      7779        69  SAPC      C37            21.3759628668      -23.6858344438        7.9570010144  MEMB      69              0.0000000000
      7780        69  SAPC      H7X            22.0021440369      -24.3832995228        8.5387294689  MEMB      69              0.0000000000
      7781        69  SAPC      H7Y            21.4539830106      -23.8165480221        6.8526570428  MEMB      69              0.0000000000
      7782        69  SAPC      C38            20.0417431200      -24.2079605631        8.1476972195  MEMB      69              0.0000000000
      7783        69  SAPC      H8X            19.5231244639      -23.3623799413        7.7043913249  MEMB      69              0.0000000000
      7784        69  SAPC      H8Y            19.6742927804      -24.0532619371        9.1777100028  MEMB      69              0.0000000000
      7785        69  SAPC      C39            19.8307295205      -25.6026651142        7.4283197140  MEMB      69              0.0000000000
      7786        69  SAPC      H9X            18.8782577887      -26.0595257066        7.6964481370  MEMB      69              0.0000000000
      7787        69  SAPC      H9Y            20.3669759145      -26.4937415941        7.7135828633  MEMB      69              0.0000000000
      7788        69  SAPC      C310           19.5419782686      -25.4496340335        5.9760307589  MEMB      69              0.0000000000
      7789        69  SAPC      H10X           20.1560245633      -24.7340703108        5.4539764555  MEMB      69              0.0000000000
      7790        69  SAPC      H10Y           18.8825105566      -24.6468441284        6.1254232879  MEMB      69              0.0000000000
      7791        69  SAPC      C311           18.9367818713      -26.6804042364        5.2720036493  MEMB      69              0.0000000000
      7792        69  SAPC      H11X           17.8693338017      -27.0088952592        5.3440516606  MEMB      69              0.0000000000
      7793        69  SAPC      H11Y           19.4970478122      -27.5150791722        5.7206698248  MEMB      69              0.0000000000
      7794        69  SAPC      C312           19.1434634019      -26.6571352236        3.7916308083  MEMB      69              0.0000000000
      7795        69  SAPC      H12X           18.3362714508      -26.1287776275        3.2934297429  MEMB      69              0.0000000000
      7796        69  SAPC      H12Y           18.9367277569      -27.6991965125        3.4921953053  MEMB      69              0.0000000000
      7797        69  SAPC      C313           20.5411160237      -26.1454233052        3.4067235013  MEMB      69              0.0000000000
      7798        69  SAPC      H13X           21.2268003168      -26.9250274305        3.7963884176  MEMB      69              0.0000000000
      7799        69  SAPC      H13Y           20.8284836039      -25.1642375333        3.8105514908  MEMB      69              0.0000000000
      7800        69  SAPC      C314           20.7249374386      -26.0276732344        1.9084993406  MEMB      69              0.0000000000
      7801        69  SAPC      H14X           19.9502432617      -26.7267985339        1.7154752842  MEMB      69              0.0000000000
      7802        69  SAPC      H14Y           21.7025051891      -26.3399008073        1.5144885127  MEMB      69              0.0000000000
      7803        69  SAPC      C315           20.1160374669      -24.8564958903        1.1919141366  MEMB      69              0.0000000000
      7804        69  SAPC      H15X           20.7087846579      -23.9586913038        1.3872084332  MEMB      69              0.0000000000
      7805        69  SAPC      H15Y           19.1405072004      -24.7614900304        1.6326522448  MEMB      69              0.0000000000
      7806        69  SAPC      C316           19.7694974887      -24.9765920843       -0.2719361001  MEMB      69              0.0000000000
      7807        69  SAPC      H16X           19.0652823864      -25.7693969610       -0.5641378711  MEMB      69              0.0000000000
      7808        69  SAPC      H16Y           20.6943554914      -25.0857970934       -0.8705499875  MEMB      69              0.0000000000
      7809        69  SAPC      C317           19.0183644564      -23.7371495068       -0.6493629123  MEMB      69              0.0000000000
      7810        69  SAPC      H17X           18.1201178758      -23.4326911914       -0.0925816508  MEMB      69              0.0000000000
      7811        69  SAPC      H17Y           18.5000435659      -24.1294257219       -1.5614189455  MEMB      69              0.0000000000
      7812        69  SAPC      C318           20.0035328488      -22.5426273511       -0.7159540812  MEMB      69              0.0000000000
      7813        69  SAPC      H18X           20.3392578682      -22.1863679028        0.2569080065  MEMB      69              0.0000000000
      7814        69  SAPC      H18Y           19.5361095459      -21.7029450468       -1.2439319424  MEMB      69              0.0000000000
      7815        69  SAPC      H18Z           20.8961215149      -22.7517546267       -1.3423983189  MEMB      69              0.0000000000
      7816        70  SOPE      N             -10.4839514795       36.2426581476       22.6245332667  MEMB      70              0.0000000000
      7817        70  SOPE      HN1           -10.5500823709       37.1102808723       23.1977581921  MEMB      70              0.0000000000
      7818        70  SOPE      HN2           -11.1390149494       36.3086880685       21.8152561559  MEMB      70              0.0000000000
      7819        70  SOPE      HN3           -10.7112510241       35.4015461406       23.1986495279  MEMB      70              0.0000000000
      7820        70  SOPE      C12            -9.1146202088       36.0835319727       22.0107565411  MEMB      70              0.0000000000
      7821        70  SOPE      H12A           -8.3973618507       35.7983534808       22.8086202649  MEMB      70              0.0000000000
      7822        70  SOPE      H12B           -8.8228859225       37.0659347334       21.5794658782  MEMB      70              0.0000000000
      7823        70  SOPE      C11            -9.1364918107       35.0270213886       20.8949386009  MEMB      70              0.0000000000
      7824        70  SOPE      H11A           -8.1350858281       35.0367153387       20.3891668777  MEMB      70              0.0000000000
      7825        70  SOPE      H11B           -9.8956127590       35.3166842877       20.1315348542  MEMB      70              0.0000000000
      7826        70  SOPE      P              -9.1140859268       32.4601488781       20.5090493562  MEMB      70              0.0000000000
      7827        70  SOPE      O13            -9.9523044655       31.3558584095       20.9928654888  MEMB      70              0.0000000000
      7828        70  SOPE      O14            -7.6500472866       32.3412801484       20.4513532396  MEMB      70              0.0000000000
      7829        70  SOPE      O12            -9.4556845874       33.7370747388       21.4259484991  MEMB      70              0.0000000000
      7830        70  SOPE      O11            -9.6098240047       32.9065667780       19.0836229157  MEMB      70              0.0000000000
      7831        70  SOPE      C1            -10.9615573705       32.6453041462       18.7291884302  MEMB      70              0.0000000000
      7832        70  SOPE      HA            -11.6470760494       33.2349221203       19.3719801841  MEMB      70              0.0000000000
      7833        70  SOPE      HB            -11.2204948199       31.5592712566       18.7998290657  MEMB      70              0.0000000000
      7834        70  SOPE      C2            -11.2430216521       33.1376703502       17.3177468097  MEMB      70              0.0000000000
      7835        70  SOPE      HS            -12.2975270842       32.7983698180       17.0701619377  MEMB      70              0.0000000000
      7836        70  SOPE      O21           -10.1231533169       32.7884392316       16.4142463292  MEMB      70              0.0000000000
      7837        70  SOPE      C21           -10.4712403272       31.7446446054       15.7029271990  MEMB      70              0.0000000000
      7838        70  SOPE      O22           -11.6154889093       31.4110334926       15.6063545188  MEMB      70              0.0000000000
      7839        70  SOPE      C22            -9.3244829897       31.0731388339       14.9378094208  MEMB      70              0.0000000000
      7840        70  SOPE      H2R            -8.6167564727       30.6397288853       15.6785218714  MEMB      70              0.0000000000
      7841        70  SOPE      H2S            -8.9149799993       31.9541358862       14.4344438093  MEMB      70              0.0000000000
      7842        70  SOPE      C3            -11.3598238149       34.6488770027       17.2968942717  MEMB      70              0.0000000000
      7843        70  SOPE      HX            -10.3914003296       35.0204764086       17.7028771762  MEMB      70              0.0000000000
      7844        70  SOPE      HY            -12.2007421382       35.0736687272       17.8819998079  MEMB      70              0.0000000000
      7845        70  SOPE      O31           -11.4745088603       34.9631066997       15.9289370019  MEMB      70              0.0000000000
      7846        70  SOPE      C31           -12.5278903794       34.4040646185       15.2732486802  MEMB      70              0.0000000000
      7847        70  SOPE      O32           -13.6612462150       34.3544401476       15.6774387540  MEMB      70              0.0000000000
      7848        70  SOPE      C32           -11.9410015980       33.9852504020       13.9053911387  MEMB      70              0.0000000000
      7849        70  SOPE      H2X           -10.8918475032       34.3371160467       13.9095735572  MEMB      70              0.0000000000
      7850        70  SOPE      H2Y           -12.4427461681       34.5428624186       13.1223689775  MEMB      70              0.0000000000
      7851        70  SOPE      C23            -9.6246857725       30.0549880679       13.7839307883  MEMB      70              0.0000000000
      7852        70  SOPE      H3R           -10.6964179582       29.8739848798       13.5165904224  MEMB      70              0.0000000000
      7853        70  SOPE      H3S            -9.1975424628       29.0521938650       14.0305785575  MEMB      70              0.0000000000
      7854        70  SOPE      C24            -8.9980201524       30.2827080855       12.4802272991  MEMB      70              0.0000000000
      7855        70  SOPE      H4R            -8.0396318271       30.7834700353       12.6658594452  MEMB      70              0.0000000000
      7856        70  SOPE      H4S            -8.8333795318       29.2632972559       12.1557785662  MEMB      70              0.0000000000
      7857        70  SOPE      C25           -10.0006014986       30.9172700442       11.5523078993  MEMB      70              0.0000000000
      7858        70  SOPE      H5R           -10.9755956885       30.3592660771       11.5672673247  MEMB      70              0.0000000000
      7859        70  SOPE      H5S           -10.1181616503       31.9328690562       11.9719437193  MEMB      70              0.0000000000
      7860        70  SOPE      C26            -9.5557982851       30.9880005762       10.1100738159  MEMB      70              0.0000000000
      7861        70  SOPE      H6R            -9.5071080959       29.9585228132        9.6917494248  MEMB      70              0.0000000000
      7862        70  SOPE      H6S           -10.3231206571       31.5630941939        9.5494578039  MEMB      70              0.0000000000
      7863        70  SOPE      C27            -8.2493006019       31.7408215686        9.9223325981  MEMB      70              0.0000000000
      7864        70  SOPE      H7R            -8.4358039357       32.8013817504       10.2255678166  MEMB      70              0.0000000000
      7865        70  SOPE      H7S            -7.4545776001       31.3422716171       10.5936773147  MEMB      70              0.0000000000
      7866        70  SOPE      C28            -7.8376279077       31.7437387029        8.4430110145  MEMB      70              0.0000000000
      7867        70  SOPE      H8R            -7.7356138778       30.7116554825        8.0374255652  MEMB      70              0.0000000000
      7868        70  SOPE      H8S            -8.6598508569       32.2486067943        7.8856376089  MEMB      70              0.0000000000
      7869        70  SOPE      C29            -6.5544237826       32.5258179451        8.3945528920  MEMB      70              0.0000000000
      7870        70  SOPE      H91            -6.3897706486       33.1071495213        9.3130357714  MEMB      70              0.0000000000
      7871        70  SOPE      C210           -5.6564089000       32.6692518655        7.4065392949  MEMB      70              0.0000000000
      7872        70  SOPE      H101           -4.7926410528       33.3163274501        7.6080453598  MEMB      70              0.0000000000
      7873        70  SOPE      C211           -5.6505081686       32.0909707436        6.0145655303  MEMB      70              0.0000000000
      7874        70  SOPE      H11R           -6.0829905516       31.0662660363        5.9487195953  MEMB      70              0.0000000000
      7875        70  SOPE      H11S           -4.6033710451       32.0501925828        5.6352035171  MEMB      70              0.0000000000
      7876        70  SOPE      C212           -6.4791938677       33.0328068768        5.1305557009  MEMB      70              0.0000000000
      7877        70  SOPE      H12R           -6.1162239821       34.0772560572        5.2654493951  MEMB      70              0.0000000000
      7878        70  SOPE      H12S           -7.5305571739       33.0034957929        5.4945435801  MEMB      70              0.0000000000
      7879        70  SOPE      C213           -6.4880399637       32.6381572289        3.6486233545  MEMB      70              0.0000000000
      7880        70  SOPE      H13R           -6.7449071799       31.5601515758        3.5460596459  MEMB      70              0.0000000000
      7881        70  SOPE      H13S           -5.4855711054       32.8312785410        3.2035240297  MEMB      70              0.0000000000
      7882        70  SOPE      C214           -7.4933141567       33.4267175790        2.8253002498  MEMB      70              0.0000000000
      7883        70  SOPE      H14R           -7.2609603063       33.2784605126        1.7457793895  MEMB      70              0.0000000000
      7884        70  SOPE      H14S           -7.3817116436       34.5043957229        3.0985204689  MEMB      70              0.0000000000
      7885        70  SOPE      C215           -8.9326822464       32.9454449622        2.9514944170  MEMB      70              0.0000000000
      7886        70  SOPE      H15R           -9.3404636235       33.3644121911        3.9107175398  MEMB      70              0.0000000000
      7887        70  SOPE      H15S           -9.0866520812       31.8623030998        2.9544834934  MEMB      70              0.0000000000
      7888        70  SOPE      C216           -9.7550318068       33.2273880076        1.6920028061  MEMB      70              0.0000000000
      7889        70  SOPE      H16R           -9.4134603343       33.3848366831        0.6652705058  MEMB      70              0.0000000000
      7890        70  SOPE      H16S           -9.8904543950       34.2157859056        1.9852415365  MEMB      70              0.0000000000
      7891        70  SOPE      C217          -11.1725431564       33.2674885041        1.8270254266  MEMB      70              0.0000000000
      7892        70  SOPE      H17R          -11.6754727153       34.1081110914        1.2357142123  MEMB      70              0.0000000000
      7893        70  SOPE      H17S          -11.2136269962       33.3518537043        2.9593766388  MEMB      70              0.0000000000
      7894        70  SOPE      C218          -11.8777537687       32.0849131819        1.6189809146  MEMB      70              0.0000000000
      7895        70  SOPE      H18R          -12.8789260174       32.5384471153        1.4130381563  MEMB      70              0.0000000000
      7896        70  SOPE      H18S          -11.8258277681       31.5335102507        2.5902563620  MEMB      70              0.0000000000
      7897        70  SOPE      H18T          -11.3911459646       31.5868589630        0.7771165829  MEMB      70              0.0000000000
      7898        70  SOPE      C33           -12.5572413401       33.1244494341       12.8220832687  MEMB      70              0.0000000000
      7899        70  SOPE      H3X           -13.6464692300       33.1014899765       13.0591817481  MEMB      70              0.0000000000
      7900        70  SOPE      H3Y           -11.8043312903       32.3675682207       13.0553448286  MEMB      70              0.0000000000
      7901        70  SOPE      C34           -12.4755227147       33.5558702215       11.3563111496  MEMB      70              0.0000000000
      7902        70  SOPE      H4X           -12.5886509189       32.6714913393       10.7056507913  MEMB      70              0.0000000000
      7903        70  SOPE      H4Y           -11.3820977063       33.6641598435       11.2138206771  MEMB      70              0.0000000000
      7904        70  SOPE      C35           -13.5737799668       34.6725427593       10.9311458096  MEMB      70              0.0000000000
      7905        70  SOPE      H5X           -13.7421678807       35.6043569267       11.4817520584  MEMB      70              0.0000000000
      7906        70  SOPE      H5Y           -14.4646948587       34.2371154498       10.4454824485  MEMB      70              0.0000000000
      7907        70  SOPE      C36           -13.2188010593       35.2273266513        9.6392176242  MEMB      70              0.0000000000
      7908        70  SOPE      H6X           -12.5986226511       34.2905697927        9.4900717442  MEMB      70              0.0000000000
      7909        70  SOPE      H6Y           -12.6482706868       36.0232372092        9.7398369000  MEMB      70              0.0000000000
      7910        70  SOPE      C37           -13.4751471350       36.4551625742        8.5096952092  MEMB      70              0.0000000000
      7911        70  SOPE      H7X           -13.3272535809       37.3813149865        8.8654402159  MEMB      70              0.0000000000
      7912        70  SOPE      H7Y           -14.5036467026       36.0697592011        8.5017121007  MEMB      70              0.0000000000
      7913        70  SOPE      C38           -12.6232268689       36.9309294529        7.0219043375  MEMB      70              0.0000000000
      7914        70  SOPE      H8X           -13.1906096674       37.3188889364        6.1763744331  MEMB      70              0.0000000000
      7915        70  SOPE      H8Y           -12.1981041625       36.0691294211        6.4407550198  MEMB      70              0.0000000000
      7916        70  SOPE      C39           -11.2384514079       37.4537104259        6.7590586166  MEMB      70              0.0000000000
      7917        70  SOPE      H9X           -10.3494401139       37.0005120429        7.1788509035  MEMB      70              0.0000000000
      7918        70  SOPE      H9Y           -11.3052299663       38.4812539169        6.9676996926  MEMB      70              0.0000000000
      7919        70  SOPE      C310          -10.6005961208       36.8827273250        5.5805265137  MEMB      70              0.0000000000
      7920        70  SOPE      H10X          -11.4475705921       37.2369871888        4.9176144119  MEMB      70              0.0000000000
      7921        70  SOPE      H10Y          -10.5132832961       35.7376920415        5.5055802911  MEMB      70              0.0000000000
      7922        70  SOPE      C311           -9.1750660347       37.3755819275        5.4158268871  MEMB      70              0.0000000000
      7923        70  SOPE      H11X           -8.5626965568       36.6638816890        5.9988754697  MEMB      70              0.0000000000
      7924        70  SOPE      H11Y           -9.2462936550       38.3965277050        5.8417728337  MEMB      70              0.0000000000
      7925        70  SOPE      C312           -8.5148184208       37.4674851012        4.0565897287  MEMB      70              0.0000000000
      7926        70  SOPE      H12X           -8.5665904910       36.4559212042        3.5846992715  MEMB      70              0.0000000000
      7927        70  SOPE      H12Y           -7.4581522004       37.7217671941        4.1117595387  MEMB      70              0.0000000000
      7928        70  SOPE      C313           -9.2002304350       38.5951033884        3.3284311415  MEMB      70              0.0000000000
      7929        70  SOPE      H13X           -9.2663420491       39.6589461265        3.5582397092  MEMB      70              0.0000000000
      7930        70  SOPE      H13Y          -10.1761256044       38.2546621363        3.6561287299  MEMB      70              0.0000000000
      7931        70  SOPE      C314           -9.0530501615       38.5453882365        1.7995776399  MEMB      70              0.0000000000
      7932        70  SOPE      H14X           -9.8881543898       38.7154805494        1.3466516877  MEMB      70              0.0000000000
      7933        70  SOPE      H14Y           -8.9241382078       37.6693716581        1.3842807708  MEMB      70              0.0000000000
      7934        70  SOPE      C315           -8.2506119723       39.1383266163        0.7907625453  MEMB      70              0.0000000000
      7935        70  SOPE      H15X           -8.1029541270       39.1881058265        1.8167686037  MEMB      70              0.0000000000
      7936        70  SOPE      H15Y           -8.4880282413       40.2131302621        0.5925768430  MEMB      70              0.0000000000
      7937        70  SOPE      C316           -6.9163865734       38.2755865964        0.1216159708  MEMB      70              0.0000000000
      7938        70  SOPE      H16X           -6.0116451836       38.8158604660       -0.2216202584  MEMB      70              0.0000000000
      7939        70  SOPE      H16Y           -6.9033352180       39.1480126778       -0.4293197200  MEMB      70              0.0000000000
      7940        70  SOPE      C317           -6.1145884427       36.7881617100        0.1786752416  MEMB      70              0.0000000000
      7941        70  SOPE      H17X           -5.4093826869       36.5741299489       -0.6645319173  MEMB      70              0.0000000000
      7942        70  SOPE      H17Y           -6.5445679155       35.8042702495        0.0095126719  MEMB      70              0.0000000000
      7943        70  SOPE      C318           -5.2845663210       36.3089241869        1.1702174361  MEMB      70              0.0000000000
      7944        70  SOPE      H18X           -4.8724231483       35.2800434406        1.0285567896  MEMB      70              0.0000000000
      7945        70  SOPE      H18Y           -5.8402413917       36.4600259992        2.1190806091  MEMB      70              0.0000000000
      7946        70  SOPE      H18Z           -4.4531873302       36.9906793340        0.8603674888  MEMB      70              0.0000000000
      7947        71  SAPE      N             -29.6967611478       15.6429707200       22.0057001958  MEMB      71              0.0000000000
      7948        71  SAPE      HN1           -28.9593649477       15.4733179604       22.7181163773  MEMB      71              0.0000000000
      7949        71  SAPE      HN2           -30.2487779052       14.7753762988       21.8388446072  MEMB      71              0.0000000000
      7950        71  SAPE      HN3           -29.2900780017       15.8973860146       21.0775990559  MEMB      71              0.0000000000
      7951        71  SAPE      C12           -30.5979685334       16.7778418750       22.4178908506  MEMB      71              0.0000000000
      7952        71  SAPE      H12A          -29.9579492981       17.6675726258       22.6020262299  MEMB      71              0.0000000000
      7953        71  SAPE      H12B          -31.0902112907       16.4773420194       23.3661924255  MEMB      71              0.0000000000
      7954        71  SAPE      C11           -31.6172816043       17.1390566946       21.3155392427  MEMB      71              0.0000000000
      7955        71  SAPE      H11A          -32.3196646504       17.8958550393       21.7207474963  MEMB      71              0.0000000000
      7956        71  SAPE      H11B          -32.2119928209       16.2356159421       21.0473557736  MEMB      71              0.0000000000
      7957        71  SAPE      P             -30.8497717219       17.0234397573       18.7743834880  MEMB      71              0.0000000000
      7958        71  SAPE      O13           -29.9594150880       17.8736958603       17.9734424056  MEMB      71              0.0000000000
      7959        71  SAPE      O14           -30.3612156886       15.6625920389       19.0742119186  MEMB      71              0.0000000000
      7960        71  SAPE      O12           -30.9837502986       17.7373092583       20.1919647593  MEMB      71              0.0000000000
      7961        71  SAPE      O11           -32.3524024569       17.0390189241       18.2439344933  MEMB      71              0.0000000000
      7962        71  SAPE      C1            -32.7639105181       18.1575696292       17.4337636503  MEMB      71              0.0000000000
      7963        71  SAPE      HA            -33.7559844835       18.5155674329       17.7863828397  MEMB      71              0.0000000000
      7964        71  SAPE      HB            -32.0694512002       19.0328885649       17.4962123642  MEMB      71              0.0000000000
      7965        71  SAPE      C2            -32.8255346119       17.8194099900       15.9179356912  MEMB      71              0.0000000000
      7966        71  SAPE      HS            -33.5646260502       17.0077986672       15.7553631969  MEMB      71              0.0000000000
      7967        71  SAPE      O21           -31.4956405929       17.5083934051       15.4499263641  MEMB      71              0.0000000000
      7968        71  SAPE      C21           -31.2970779786       16.4397954427       14.7101113050  MEMB      71              0.0000000000
      7969        71  SAPE      O22           -32.1491963213       15.6779266550       14.3031043352  MEMB      71              0.0000000000
      7970        71  SAPE      C22           -29.8109075177       16.3149761697       14.3604729487  MEMB      71              0.0000000000
      7971        71  SAPE      H2R           -29.5142751466       17.2537066354       13.8550137660  MEMB      71              0.0000000000
      7972        71  SAPE      H2S           -29.2224171999       16.1851531749       15.2879423918  MEMB      71              0.0000000000
      7973        71  SAPE      C3            -33.3366662854       19.0432991105       15.1435473782  MEMB      71              0.0000000000
      7974        71  SAPE      HX            -32.5300531807       19.7780978257       15.1605670927  MEMB      71              0.0000000000
      7975        71  SAPE      HY            -34.2615353219       19.4861525855       15.5870615472  MEMB      71              0.0000000000
      7976        71  SAPE      O31           -33.4845049024       18.7288363131       13.7848256093  MEMB      71              0.0000000000
      7977        71  SAPE      C31           -34.6443810822       18.2650705537       13.4979130961  MEMB      71              0.0000000000
      7978        71  SAPE      O32           -35.6150696600       18.2034623507       14.2287739469  MEMB      71              0.0000000000
      7979        71  SAPE      C32           -34.4686885915       17.7617108891       12.1111914770  MEMB      71              0.0000000000
      7980        71  SAPE      H2X           -35.3075771987       17.2415498707       11.7831885611  MEMB      71              0.0000000000
      7981        71  SAPE      H2Y           -33.6215722615       17.0546705595       12.0486433890  MEMB      71              0.0000000000
      7982        71  SAPE      C23           -29.4737366654       15.1479298557       13.4024757220  MEMB      71              0.0000000000
      7983        71  SAPE      H3R           -30.0055490989       14.2204121061       13.7052603479  MEMB      71              0.0000000000
      7984        71  SAPE      H3S           -28.3775877879       14.9748310568       13.5114894908  MEMB      71              0.0000000000
      7985        71  SAPE      C24           -29.7677617448       15.5663135699       11.9498929756  MEMB      71              0.0000000000
      7986        71  SAPE      H4R           -29.2502986163       16.5449487395       11.8281200451  MEMB      71              0.0000000000
      7987        71  SAPE      H4S           -30.8591889036       15.7898620600       11.8690926730  MEMB      71              0.0000000000
      7988        71  SAPE      C25           -29.3036259480       14.6437040545       10.8405350976  MEMB      71              0.0000000000
      7989        71  SAPE      H5R           -28.3360596988       14.8794841956       10.3818654342  MEMB      71              0.0000000000
      7990        71  SAPE      C26           -29.9348659509       13.5550836401       10.3785819282  MEMB      71              0.0000000000
      7991        71  SAPE      H6R           -29.5667674830       13.0476201029        9.4760672232  MEMB      71              0.0000000000
      7992        71  SAPE      C27           -31.2374573328       13.0336103257       10.8776686618  MEMB      71              0.0000000000
      7993        71  SAPE      H7R           -31.4016567950       13.2079407693       11.9629762814  MEMB      71              0.0000000000
      7994        71  SAPE      H7S           -31.4384001966       11.9772211737       10.6514944085  MEMB      71              0.0000000000
      7995        71  SAPE      C28           -32.3039791197       13.7603351824       10.2429168598  MEMB      71              0.0000000000
      7996        71  SAPE      H8R           -32.8997121332       14.1162919094       11.0632745962  MEMB      71              0.0000000000
      7997        71  SAPE      C29           -32.6959353198       13.8082760660        8.9529471776  MEMB      71              0.0000000000
      7998        71  SAPE      H9R           -33.6352746728       14.1828408219        8.5901473184  MEMB      71              0.0000000000
      7999        71  SAPE      C210          -32.2667948761       13.2158485851        7.7746140197  MEMB      71              0.0000000000
      8000        71  SAPE      H10R          -33.0548465205       12.8524726702        7.0704496398  MEMB      71              0.0000000000
      8001        71  SAPE      H10S          -31.8847613813       12.3690446916        8.3236379354  MEMB      71              0.0000000000
      8002        71  SAPE      C211          -31.2514323759       14.0668669981        7.1341320551  MEMB      71              0.0000000000
      8003        71  SAPE      H11R          -30.2615938431       13.8096759835        7.4785573801  MEMB      71              0.0000000000
      8004        71  SAPE      C212          -31.4401971407       15.0504658662        6.2571043366  MEMB      71              0.0000000000
      8005        71  SAPE      H12R          -30.6440970784       15.3497884763        5.6016224787  MEMB      71              0.0000000000
      8006        71  SAPE      C213          -32.7108297538       15.4993258246        5.7355747781  MEMB      71              0.0000000000
      8007        71  SAPE      H13R          -33.4217688570       15.7224503807        6.5648757470  MEMB      71              0.0000000000
      8008        71  SAPE      H13S          -33.0010733185       14.4400620839        5.4772113212  MEMB      71              0.0000000000
      8009        71  SAPE      C214          -32.6853807410       16.6158923138        4.6167699039  MEMB      71              0.0000000000
      8010        71  SAPE      H14R          -33.7054150311       17.0607598795        4.7804226498  MEMB      71              0.0000000000
      8011        71  SAPE      C215          -32.3068456362       16.5751469715        3.2248872174  MEMB      71              0.0000000000
      8012        71  SAPE      H15R          -33.1096840599       17.0730357808        2.6050585092  MEMB      71              0.0000000000
      8013        71  SAPE      C216          -31.7828255865       15.3146759519        2.3342679488  MEMB      71              0.0000000000
      8014        71  SAPE      H16R          -32.0411239392       14.3424180245        2.7449106621  MEMB      71              0.0000000000
      8015        71  SAPE      H16S          -30.8078414503       14.8918181492        2.5520114445  MEMB      71              0.0000000000
      8016        71  SAPE      C217          -32.3177642316       14.7501556151        0.9465104517  MEMB      71              0.0000000000
      8017        71  SAPE      H17R          -31.9891832124       13.7461575942        0.5543602771  MEMB      71              0.0000000000
      8018        71  SAPE      H17S          -32.4827743705       15.6839772689        0.3635542889  MEMB      71              0.0000000000
      8019        71  SAPE      C218          -33.6210216017       14.3248667492        0.5110439746  MEMB      71              0.0000000000
      8020        71  SAPE      H18R          -34.1956316120       15.3309679320        0.5178214757  MEMB      71              0.0000000000
      8021        71  SAPE      H18S          -34.1382866160       13.5235226827        1.0857271226  MEMB      71              0.0000000000
      8022        71  SAPE      C219          -33.7649948926       13.6828391424       -0.8007268673  MEMB      71              0.0000000000
      8023        71  SAPE      H19R          -33.7010744407       14.4661347310       -1.5695197864  MEMB      71              0.0000000000
      8024        71  SAPE      H19S          -34.7726600763       13.2883433208       -0.6202183402  MEMB      71              0.0000000000
      8025        71  SAPE      C220          -33.6854739171       12.2696691206       -1.2144587450  MEMB      71              0.0000000000
      8026        71  SAPE      H20R          -34.0695866197       12.2129946169       -2.2450229183  MEMB      71              0.0000000000
      8027        71  SAPE      H20S          -34.3606423529       11.5551675933       -0.6275023035  MEMB      71              0.0000000000
      8028        71  SAPE      H20T          -32.6280018420       12.1909554078       -1.3418051175  MEMB      71              0.0000000000
      8029        71  SAPE      C33           -34.6189752681       18.7485790592       11.0103041422  MEMB      71              0.0000000000
      8030        71  SAPE      H3X           -35.5994851058       19.2807694730       11.0679875294  MEMB      71              0.0000000000
      8031        71  SAPE      H3Y           -34.6588085632       18.2336934524       10.0298238790  MEMB      71              0.0000000000
      8032        71  SAPE      C34           -33.4074789980       19.5987864012       11.1460243097  MEMB      71              0.0000000000
      8033        71  SAPE      H4X           -33.4371108336       20.2575271491       12.0267953747  MEMB      71              0.0000000000
      8034        71  SAPE      H4Y           -33.6252818190       20.3702412304       10.5043979409  MEMB      71              0.0000000000
      8035        71  SAPE      C35           -32.0264410125       19.0087248069       10.7579316363  MEMB      71              0.0000000000
      8036        71  SAPE      H5X           -32.1650784035       18.0469443946       10.2151344100  MEMB      71              0.0000000000
      8037        71  SAPE      H5Y           -31.5605921532       18.7796460298       11.7376852438  MEMB      71              0.0000000000
      8038        71  SAPE      C36           -31.0387109508       19.8673167103        9.8978272303  MEMB      71              0.0000000000
      8039        71  SAPE      H6X           -30.6038851096       20.7609127425       10.3832307182  MEMB      71              0.0000000000
      8040        71  SAPE      H6Y           -31.3941398928       20.2152910060        8.9133850606  MEMB      71              0.0000000000
      8041        71  SAPE      C37           -29.7933355872       19.1246370284        9.5391371753  MEMB      71              0.0000000000
      8042        71  SAPE      H7X           -30.1408162104       18.2817797900        8.9128938837  MEMB      71              0.0000000000
      8043        71  SAPE      H7Y           -29.3070103242       18.8660290887       10.4987366868  MEMB      71              0.0000000000
      8044        71  SAPE      C38           -28.8570220270       19.9545428115        8.7075690281  MEMB      71              0.0000000000
      8045        71  SAPE      H8X           -28.5490021225       20.8484039723        9.3076975724  MEMB      71              0.0000000000
      8046        71  SAPE      H8Y           -29.4088449150       20.2295850889        7.7845410408  MEMB      71              0.0000000000
      8047        71  SAPE      C39           -27.6490985051       19.2191961390        8.1995091587  MEMB      71              0.0000000000
      8048        71  SAPE      H9X           -27.0970878814       18.8980825911        9.1037183259  MEMB      71              0.0000000000
      8049        71  SAPE      H9Y           -27.0658988704       19.9518618084        7.5994935315  MEMB      71              0.0000000000
      8050        71  SAPE      C310          -27.9471490553       18.0550717084        7.2611550261  MEMB      71              0.0000000000
      8051        71  SAPE      H10X          -28.5564724835       17.3101651875        7.8134944672  MEMB      71              0.0000000000
      8052        71  SAPE      H10Y          -26.9901763788       17.5495473077        7.0032147700  MEMB      71              0.0000000000
      8053        71  SAPE      C311          -28.6640025571       18.5081567919        5.9706721469  MEMB      71              0.0000000000
      8054        71  SAPE      H11X          -29.5800654426       19.0842769864        6.1964670971  MEMB      71              0.0000000000
      8055        71  SAPE      H11Y          -28.9937096143       17.6110520456        5.4039745382  MEMB      71              0.0000000000
      8056        71  SAPE      C312          -27.8057344432       19.3693443500        5.0366560393  MEMB      71              0.0000000000
      8057        71  SAPE      H12X          -26.9911532904       18.7177200241        4.7456542210  MEMB      71              0.0000000000
      8058        71  SAPE      H12Y          -27.2759759876       20.2092422767        5.5249979289  MEMB      71              0.0000000000
      8059        71  SAPE      C313          -28.5784177062       19.9719706389        3.8556408979  MEMB      71              0.0000000000
      8060        71  SAPE      H13X          -27.9099360921       20.6891132941        3.3303341607  MEMB      71              0.0000000000
      8061        71  SAPE      H13Y          -29.4562088163       20.5155284852        4.2718194772  MEMB      71              0.0000000000
      8062        71  SAPE      C314          -29.1370183900       19.0013003997        2.8250756421  MEMB      71              0.0000000000
      8063        71  SAPE      H14X          -29.8186307623       18.2785413408        3.3115098685  MEMB      71              0.0000000000
      8064        71  SAPE      H14Y          -28.4098692967       18.3797376240        2.3499576574  MEMB      71              0.0000000000
      8065        71  SAPE      C315          -29.7660557275       19.7147821418        1.6422063728  MEMB      71              0.0000000000
      8066        71  SAPE      H15X          -29.1133423863       20.4058738708        1.0738226484  MEMB      71              0.0000000000
      8067        71  SAPE      H15Y          -30.4161060627       20.4077679574        2.1778576230  MEMB      71              0.0000000000
      8068        71  SAPE      C316          -30.4205560797       18.6931384917        0.6956740499  MEMB      71              0.0000000000
      8069        71  SAPE      H16X          -31.1518271197       18.0896186933        1.2816355328  MEMB      71              0.0000000000
      8070        71  SAPE      H16Y          -29.6341005880       17.9676650186        0.4077547765  MEMB      71              0.0000000000
      8071        71  SAPE      C317          -31.0360150271       19.2311489575       -0.6188361900  MEMB      71              0.0000000000
      8072        71  SAPE      H17X          -30.3087931905       19.7593365634       -1.2480704924  MEMB      71              0.0000000000
      8073        71  SAPE      H17Y          -31.7972412487       19.9675430573       -0.6828100784  MEMB      71              0.0000000000
      8074        71  SAPE      C318          -31.9468548929       18.2592726861       -1.2704614062  MEMB      71              0.0000000000
      8075        71  SAPE      H18X          -32.5632635291       17.5378586638       -0.6765622543  MEMB      71              0.0000000000
      8076        71  SAPE      H18Y          -31.0733495756       17.7833795451       -1.6438513250  MEMB      71              0.0000000000
      8077        71  SAPE      H18Z          -32.4524095593       18.5632417543       -2.2031154380  MEMB      71              0.0000000000
      8078        72  SLPC      N              22.8137807456       26.5370684685       17.5534929557  MEMB      72              0.0000000000
      8079        72  SLPC      C13            22.2208339978       27.6708651732       18.3140352622  MEMB      72              0.0000000000
      8080        72  SLPC      H13A           21.8336082105       28.4269802528       17.6359254512  MEMB      72              0.0000000000
      8081        72  SLPC      H13B           21.3756472060       27.2997142165       18.8984703028  MEMB      72              0.0000000000
      8082        72  SLPC      H13C           22.9330823837       28.1557601677       18.9689841867  MEMB      72              0.0000000000
      8083        72  SLPC      C14            21.6977872180       26.0648557414       16.6667845820  MEMB      72              0.0000000000
      8084        72  SLPC      H14A           22.0132923043       25.4282508659       15.8566963412  MEMB      72              0.0000000000
      8085        72  SLPC      H14B           20.9742966036       25.5027094737       17.2721209250  MEMB      72              0.0000000000
      8086        72  SLPC      H14C           21.1434020395       26.8957698348       16.2599250905  MEMB      72              0.0000000000
      8087        72  SLPC      C15            23.2028373702       25.4324996636       18.5078402456  MEMB      72              0.0000000000
      8088        72  SLPC      H15A           23.8510521686       24.7271663023       17.9847187918  MEMB      72              0.0000000000
      8089        72  SLPC      H15B           23.7762552841       25.8065162700       19.3390792807  MEMB      72              0.0000000000
      8090        72  SLPC      H15C           22.3386306096       24.8703536099       18.8539924712  MEMB      72              0.0000000000
      8091        72  SLPC      C12            24.0296745935       26.9836266956       16.7792603725  MEMB      72              0.0000000000
      8092        72  SLPC      H12A           24.8444514536       27.1125951758       17.4950892482  MEMB      72              0.0000000000
      8093        72  SLPC      H12B           23.8155994159       27.9464963610       16.3456632699  MEMB      72              0.0000000000
      8094        72  SLPC      C11            24.5707270505       26.0050564940       15.7127744502  MEMB      72              0.0000000000
      8095        72  SLPC      H11A           25.4437469250       26.4772745356       15.1947152311  MEMB      72              0.0000000000
      8096        72  SLPC      H11B           23.8358119017       25.8179584689       14.9019522827  MEMB      72              0.0000000000
      8097        72  SLPC      P              26.4144867312       24.5830417084       16.7711121787  MEMB      72              0.0000000000
      8098        72  SLPC      O13            26.7984246578       25.7550265538       17.5900367084  MEMB      72              0.0000000000
      8099        72  SLPC      O14            26.6602384387       23.2471000266       17.3596156716  MEMB      72              0.0000000000
      8100        72  SLPC      O12            24.9121501979       24.7652764649       16.3453307600  MEMB      72              0.0000000000
      8101        72  SLPC      O11            27.0411947566       24.6500812724       15.3194382483  MEMB      72              0.0000000000
      8102        72  SLPC      C1             28.4005512855       24.3892778012       15.0839851832  MEMB      72              0.0000000000
      8103        72  SLPC      HA             29.0364404156       25.1638966496       15.4862671614  MEMB      72              0.0000000000
      8104        72  SLPC      HB             28.7150878321       23.6748400179       15.7973817444  MEMB      72              0.0000000000
      8105        72  SLPC      C2             28.7590253707       24.1167539642       13.5715175331  MEMB      72              0.0000000000
      8106        72  SLPC      HS             29.8603161171       24.2533501567       13.4752308607  MEMB      72              0.0000000000
      8107        72  SLPC      O21            28.1350689849       24.8850697344       12.5527911368  MEMB      72              0.0000000000
      8108        72  SLPC      C21            27.9514417598       26.1217255856       12.8383114192  MEMB      72              0.0000000000
      8109        72  SLPC      O22            28.3349448441       26.7104376324       13.8060393843  MEMB      72              0.0000000000
      8110        72  SLPC      C22            27.1589440465       26.8702554613       11.8276002651  MEMB      72              0.0000000000
      8111        72  SLPC      H2R            26.5301467650       27.5191770738       12.4749101804  MEMB      72              0.0000000000
      8112        72  SLPC      H2S            27.7770640147       27.5401407577       11.2025339294  MEMB      72              0.0000000000
      8113        72  SLPC      C3             28.3936298248       22.7273807519       13.1075468194  MEMB      72              0.0000000000
      8114        72  SLPC      HX             28.9174828976       22.0597062771       13.7097318212  MEMB      72              0.0000000000
      8115        72  SLPC      HY             28.8085529185       22.5285345842       12.1137935545  MEMB      72              0.0000000000
      8116        72  SLPC      O31            26.9988389253       22.4574455941       13.1374357232  MEMB      72              0.0000000000
      8117        72  SLPC      C31            26.5563807877       21.7956879922       14.1941617693  MEMB      72              0.0000000000
      8118        72  SLPC      O32            27.2453944575       21.3040554137       15.0412106920  MEMB      72              0.0000000000
      8119        72  SLPC      C32            25.1005959929       21.6239787144       14.1276032764  MEMB      72              0.0000000000
      8120        72  SLPC      H2X            24.7039451129       21.4088386592       15.1344880979  MEMB      72              0.0000000000
      8121        72  SLPC      H2Y            24.8674442843       20.7284190983       13.5392843467  MEMB      72              0.0000000000
      8122        72  SLPC      C23            26.3230876829       25.9470505034       10.9670605523  MEMB      72              0.0000000000
      8123        72  SLPC      H3R            25.4539880733       26.5736107972       10.6779102402  MEMB      72              0.0000000000
      8124        72  SLPC      H3S            25.9548871478       25.0675242981       11.5441906277  MEMB      72              0.0000000000
      8125        72  SLPC      C24            27.0781428018       25.5300926464        9.7041420392  MEMB      72              0.0000000000
      8126        72  SLPC      H4R            27.9913181382       24.9343020148        9.9516598154  MEMB      72              0.0000000000
      8127        72  SLPC      H4S            27.4205142270       26.4499132478        9.1880997310  MEMB      72              0.0000000000
      8128        72  SLPC      C25            26.1801366462       24.7514233459        8.7501372294  MEMB      72              0.0000000000
      8129        72  SLPC      H5R            26.7431492481       24.5346157369        7.8132765460  MEMB      72              0.0000000000
      8130        72  SLPC      H5S            25.2223522754       25.2402671669        8.5270573538  MEMB      72              0.0000000000
      8131        72  SLPC      C26            25.7404989469       23.4535184363        9.3164862931  MEMB      72              0.0000000000
      8132        72  SLPC      H6R            25.0945306625       23.4333677590       10.2222909325  MEMB      72              0.0000000000
      8133        72  SLPC      H6S            26.6953866960       23.1519255608        9.7375246356  MEMB      72              0.0000000000
      8134        72  SLPC      C27            25.2780736230       22.4886545781        8.1979197635  MEMB      72              0.0000000000
      8135        72  SLPC      H7R            24.4217406031       22.9047322435        7.6731416367  MEMB      72              0.0000000000
      8136        72  SLPC      H7S            24.6396835052       21.6839681968        8.6463055829  MEMB      72              0.0000000000
      8137        72  SLPC      C28            26.4692343237       22.0038503557        7.2290639068  MEMB      72              0.0000000000
      8138        72  SLPC      H8R            26.9610802843       22.8133865236        6.7161973588  MEMB      72              0.0000000000
      8139        72  SLPC      H8S            26.0008308388       21.7495459491        6.3338272553  MEMB      72              0.0000000000
      8140        72  SLPC      C29            27.3615115625       20.7614399214        7.2442162935  MEMB      72              0.0000000000
      8141        72  SLPC      H9R            27.2340815918       20.0216714280        8.0225852454  MEMB      72              0.0000000000
      8142        72  SLPC      C210           28.4146004090       20.4483606875        6.5991852674  MEMB      72              0.0000000000
      8143        72  SLPC      H10R           29.1486098415       19.9207874582        7.2225297670  MEMB      72              0.0000000000
      8144        72  SLPC      C211           28.8969888578       21.4104912103        5.6518695148  MEMB      72              0.0000000000
      8145        72  SLPC      H11R           28.0193979131       21.6730155639        5.0855323804  MEMB      72              0.0000000000
      8146        72  SLPC      H11S           29.4391079787       20.5789950585        5.2020748842  MEMB      72              0.0000000000
      8147        72  SLPC      C212           29.8558299770       22.5578619916        5.8383664973  MEMB      72              0.0000000000
      8148        72  SLPC      H12R           29.9839193791       23.1162148441        6.7938408278  MEMB      72              0.0000000000
      8149        72  SLPC      C213           30.7658719223       22.7331135687        4.9099182101  MEMB      72              0.0000000000
      8150        72  SLPC      H13R           31.7108551368       23.2221943203        5.2321662187  MEMB      72              0.0000000000
      8151        72  SLPC      C214           30.9752050165       22.0039003500        3.6187366872  MEMB      72              0.0000000000
      8152        72  SLPC      H14R           30.6711814640       20.9480337908        3.5721785396  MEMB      72              0.0000000000
      8153        72  SLPC      H14S           32.0501850816       22.0850246147        3.3325434309  MEMB      72              0.0000000000
      8154        72  SLPC      C215           29.9994873720       22.4678679057        2.5422390913  MEMB      72              0.0000000000
      8155        72  SLPC      H15R           30.4349617811       22.0041056281        1.6666186750  MEMB      72              0.0000000000
      8156        72  SLPC      H15S           30.0181506765       23.4677103283        2.1390765705  MEMB      72              0.0000000000
      8157        72  SLPC      C216           28.5085084443       22.5559972142        2.8314602859  MEMB      72              0.0000000000
      8158        72  SLPC      H16R           28.3111147162       23.2829722339        3.6736189565  MEMB      72              0.0000000000
      8159        72  SLPC      H16S           28.1119171047       21.5580836062        3.0905941087  MEMB      72              0.0000000000
      8160        72  SLPC      C217           27.8645715123       23.1325457893        1.5745957452  MEMB      72              0.0000000000
      8161        72  SLPC      H17R           28.2786720953       24.1651429745        1.4335100228  MEMB      72              0.0000000000
      8162        72  SLPC      H17S           26.7783692559       23.2444962722        1.7229284611  MEMB      72              0.0000000000
      8163        72  SLPC      C218           28.1521160241       22.3179236440        0.3083705224  MEMB      72              0.0000000000
      8164        72  SLPC      H18R           27.5602861434       21.3926862786        0.2274421599  MEMB      72              0.0000000000
      8165        72  SLPC      H18S           29.2330654629       22.0915210204        0.1944165096  MEMB      72              0.0000000000
      8166        72  SLPC      H18T           27.8346744504       22.8827139605       -0.5721511321  MEMB      72              0.0000000000
      8167        72  SLPC      C33            24.5846775069       22.8794009273       13.5519505680  MEMB      72              0.0000000000
      8168        72  SLPC      H3X            24.9555096377       23.0370355548       12.5177105193  MEMB      72              0.0000000000
      8169        72  SLPC      H3Y            24.6586438978       23.6870950857       14.2982396604  MEMB      72              0.0000000000
      8170        72  SLPC      C34            23.1911025873       22.7441306016       13.3171291335  MEMB      72              0.0000000000
      8171        72  SLPC      H4X            22.8538636387       22.4280441019       14.3167681430  MEMB      72              0.0000000000
      8172        72  SLPC      H4Y            23.2035411873       21.9176960859       12.5528569084  MEMB      72              0.0000000000
      8173        72  SLPC      C35            22.3955523456       23.9836750597       12.9081000868  MEMB      72              0.0000000000
      8174        72  SLPC      H5X            22.2953347569       24.6182089605       13.7826094103  MEMB      72              0.0000000000
      8175        72  SLPC      H5Y            21.2954347019       23.9548798578       12.6897592915  MEMB      72              0.0000000000
      8176        72  SLPC      C36            22.9123513437       24.3844372817       11.5823800187  MEMB      72              0.0000000000
      8177        72  SLPC      H6X            23.1057911322       23.5259046664       10.8992324797  MEMB      72              0.0000000000
      8178        72  SLPC      H6Y            23.9066229724       24.7467570483       11.8401170584  MEMB      72              0.0000000000
      8179        72  SLPC      C37            21.9439754629       25.3528733935       10.9593740153  MEMB      72              0.0000000000
      8180        72  SLPC      H7X            21.8651095803       26.2149934159       11.6564998544  MEMB      72              0.0000000000
      8181        72  SLPC      H7Y            20.9163317788       24.9274106565       10.8441643981  MEMB      72              0.0000000000
      8182        72  SLPC      C38            22.4961777271       25.8666034776        9.6563632820  MEMB      72              0.0000000000
      8183        72  SLPC      H8X            23.5887266260       26.0247530687        9.7682314545  MEMB      72              0.0000000000
      8184        72  SLPC      H8Y            22.0231884706       26.8655886453        9.5546709575  MEMB      72              0.0000000000
      8185        72  SLPC      C39            22.2003682343       25.0004682475        8.4261780453  MEMB      72              0.0000000000
      8186        72  SLPC      H9X            21.3067692864       24.3545416154        8.6008744584  MEMB      72              0.0000000000
      8187        72  SLPC      H9Y            23.0321570496       24.2974385023        8.2370746287  MEMB      72              0.0000000000
      8188        72  SLPC      C310           21.9355756447       25.9095721603        7.2183343535  MEMB      72              0.0000000000
      8189        72  SLPC      H10X           21.2420603939       26.7069479639        7.5788632568  MEMB      72              0.0000000000
      8190        72  SLPC      H10Y           21.4495713441       25.3330895832        6.4016786018  MEMB      72              0.0000000000
      8191        72  SLPC      C311           23.1512421655       26.6073054140        6.6006586724  MEMB      72              0.0000000000
      8192        72  SLPC      H11X           23.7875769911       27.0304689193        7.4051951328  MEMB      72              0.0000000000
      8193        72  SLPC      H11Y           22.7614186680       27.4495012291        5.9797783803  MEMB      72              0.0000000000
      8194        72  SLPC      C312           23.9770298362       25.6548044915        5.7222457630  MEMB      72              0.0000000000
      8195        72  SLPC      H12X           23.2901173615       25.0945177632        5.0543261846  MEMB      72              0.0000000000
      8196        72  SLPC      H12Y           24.4537601356       24.9081495511        6.3937261328  MEMB      72              0.0000000000
      8197        72  SLPC      C313           25.0582014913       26.3383645063        4.8625671256  MEMB      72              0.0000000000
      8198        72  SLPC      H13X           24.6067297951       27.1535388688        4.2545774443  MEMB      72              0.0000000000
      8199        72  SLPC      H13Y           25.4973060561       25.5797471600        4.1736436654  MEMB      72              0.0000000000
      8200        72  SLPC      C314           26.2043149031       26.8853983613        5.7208104830  MEMB      72              0.0000000000
      8201        72  SLPC      H14X           26.4664518273       26.0639553523        6.4248089354  MEMB      72              0.0000000000
      8202        72  SLPC      H14Y           25.8279759976       27.7433063419        6.3102304925  MEMB      72              0.0000000000
      8203        72  SLPC      C315           27.4802408416       27.2959535692        4.9615460074  MEMB      72              0.0000000000
      8204        72  SLPC      H15X           27.8474008679       26.3809578023        4.4746588752  MEMB      72              0.0000000000
      8205        72  SLPC      H15Y           28.2644252530       27.5969866665        5.7019123898  MEMB      72              0.0000000000
      8206        72  SLPC      C316           27.2975346051       28.3537713110        3.8443112908  MEMB      72              0.0000000000
      8207        72  SLPC      H16X           26.8660409888       29.3066004253        4.2467622310  MEMB      72              0.0000000000
      8208        72  SLPC      H16Y           26.7748683947       27.9750255943        2.9661700834  MEMB      72              0.0000000000
      8209        72  SLPC      C317           28.5542222337       28.8495908283        3.1990073497  MEMB      72              0.0000000000
      8210        72  SLPC      H17X           28.8184748385       29.2929677252        4.1542483732  MEMB      72              0.0000000000
      8211        72  SLPC      H17Y           28.5354775306       29.6038395973        2.4221463676  MEMB      72              0.0000000000
      8212        72  SLPC      C318           29.6218198423       27.9096690610        2.9005992359  MEMB      72              0.0000000000
      8213        72  SLPC      H18X           29.2857727582       26.9799616788        2.4258735290  MEMB      72              0.0000000000
      8214        72  SLPC      H18Y           29.9455214147       27.8228580015        3.9782480503  MEMB      72              0.0000000000
      8215        72  SLPC      H18Z           30.6063991377       28.1398279307        2.4763785137  MEMB      72              0.0000000000
      8216        73  SLPC      N              30.3892928313       20.5754894123       15.2679506927  MEMB      73              0.0000000000
      8217        73  SLPC      C13            29.4255970676       19.5713171732       15.2250752532  MEMB      73              0.0000000000
      8218        73  SLPC      H13A           29.7016834002       18.6246444837       14.7669869441  MEMB      73              0.0000000000
      8219        73  SLPC      H13B           28.9868866702       19.2972958476       16.2105342154  MEMB      73              0.0000000000
      8220        73  SLPC      H13C           28.4998315184       19.8780606474       14.6855927216  MEMB      73              0.0000000000
      8221        73  SLPC      C14            29.7221221107       21.7236767053       15.8654606654  MEMB      73              0.0000000000
      8222        73  SLPC      H14A           28.8293909290       21.9675350553       15.2763798111  MEMB      73              0.0000000000
      8223        73  SLPC      H14B           29.1923815867       21.5333972346       16.8042763988  MEMB      73              0.0000000000
      8224        73  SLPC      H14C           30.2230287837       22.6672924469       15.8060844694  MEMB      73              0.0000000000
      8225        73  SLPC      C15            30.8051811030       20.7835272781       13.8660480988  MEMB      73              0.0000000000
      8226        73  SLPC      H15A           31.3250876841       21.7242380847       13.8060700943  MEMB      73              0.0000000000
      8227        73  SLPC      H15B           31.3143715650       19.9397621314       13.4447361209  MEMB      73              0.0000000000
      8228        73  SLPC      H15C           29.8892282139       20.8873335390       13.2692873038  MEMB      73              0.0000000000
      8229        73  SLPC      C12            31.4381902142       20.1040083889       16.1819231669  MEMB      73              0.0000000000
      8230        73  SLPC      H12A           32.3255414184       20.6449868748       15.9273987303  MEMB      73              0.0000000000
      8231        73  SLPC      H12B           31.5818803013       19.0361622588       16.0478364351  MEMB      73              0.0000000000
      8232        73  SLPC      C11            31.1349112858       20.3433455507       17.6763543534  MEMB      73              0.0000000000
      8233        73  SLPC      H11A           31.1394013947       21.4419127421       17.8575735729  MEMB      73              0.0000000000
      8234        73  SLPC      H11B           32.0201863760       19.9375249407       18.2151473272  MEMB      73              0.0000000000
      8235        73  SLPC      P              29.7840032653       18.3367589739       18.7636775727  MEMB      73              0.0000000000
      8236        73  SLPC      O13            30.2497258001       18.3843022866       20.1634299652  MEMB      73              0.0000000000
      8237        73  SLPC      O14            28.4974749310       17.6651647662       18.5518580445  MEMB      73              0.0000000000
      8238        73  SLPC      O12            29.8798826838       19.7911868353       18.1186061927  MEMB      73              0.0000000000
      8239        73  SLPC      O11            30.7943660234       17.5414316656       17.8637639142  MEMB      73              0.0000000000
      8240        73  SLPC      C1             30.2953283445       16.3558505387       17.2204850538  MEMB      73              0.0000000000
      8241        73  SLPC      HA             29.8006493679       15.6735112016       17.9373866305  MEMB      73              0.0000000000
      8242        73  SLPC      HB             29.5726685285       16.6663013853       16.4258277724  MEMB      73              0.0000000000
      8243        73  SLPC      C2             31.4905942964       15.6455034297       16.5796598516  MEMB      73              0.0000000000
      8244        73  SLPC      HS             32.1909747166       15.3462667055       17.3916847319  MEMB      73              0.0000000000
      8245        73  SLPC      O21            31.8083766694       16.6639778580       15.5700764574  MEMB      73              0.0000000000
      8246        73  SLPC      C21            33.0616736976       16.5977502218       15.4345827883  MEMB      73              0.0000000000
      8247        73  SLPC      O22            33.7542038743       15.9425866374       16.1453100868  MEMB      73              0.0000000000
      8248        73  SLPC      C22            33.5331608369       17.4582533726       14.3389859233  MEMB      73              0.0000000000
      8249        73  SLPC      H2R            32.7725389993       17.4428492278       13.5427055815  MEMB      73              0.0000000000
      8250        73  SLPC      H2S            33.8921102622       18.4291511592       14.7370340190  MEMB      73              0.0000000000
      8251        73  SLPC      C3             31.4083334826       14.2805442340       15.9030618676  MEMB      73              0.0000000000
      8252        73  SLPC      HX             31.0688363199       13.3947234414       16.4507234360  MEMB      73              0.0000000000
      8253        73  SLPC      HY             32.1327263325       14.0267556722       15.1050479992  MEMB      73              0.0000000000
      8254        73  SLPC      O31            30.3445184845       14.5825325896       15.3088465272  MEMB      73              0.0000000000
      8255        73  SLPC      C31            30.3202097802       15.0801200837       14.1683486736  MEMB      73              0.0000000000
      8256        73  SLPC      O32            31.1089920377       15.1330340884       13.2527838180  MEMB      73              0.0000000000
      8257        73  SLPC      C32            28.9467436324       14.9672139745       14.1444246291  MEMB      73              0.0000000000
      8258        73  SLPC      H2X            28.4915167823       14.5838228942       15.0485899426  MEMB      73              0.0000000000
      8259        73  SLPC      H2Y            29.1587167619       14.1412652891       13.4449770328  MEMB      73              0.0000000000
      8260        73  SLPC      C23            34.6909043146       16.9077749631       13.6358073050  MEMB      73              0.0000000000
      8261        73  SLPC      H3R            34.6262978032       15.8053226422       13.4610437542  MEMB      73              0.0000000000
      8262        73  SLPC      H3S            35.5730761749       17.0854153172       14.2856775336  MEMB      73              0.0000000000
      8263        73  SLPC      C24            35.0099450545       17.6792404724       12.3675667313  MEMB      73              0.0000000000
      8264        73  SLPC      H4R            36.0117988380       17.4608623882       12.1170567352  MEMB      73              0.0000000000
      8265        73  SLPC      H4S            35.2515508215       18.7336270813       12.5248896533  MEMB      73              0.0000000000
      8266        73  SLPC      C25            34.1486889155       17.3876919768       11.1326690147  MEMB      73              0.0000000000
      8267        73  SLPC      H5R            34.7263063861       17.8562633028       10.2971106477  MEMB      73              0.0000000000
      8268        73  SLPC      H5S            33.2145089208       17.8731377311       11.4061590292  MEMB      73              0.0000000000
      8269        73  SLPC      C26            33.8164975715       15.9360708833       10.7617632621  MEMB      73              0.0000000000
      8270        73  SLPC      H6R            33.8095134194       15.2570602752       11.6500449095  MEMB      73              0.0000000000
      8271        73  SLPC      H6S            34.5946064180       15.6852844903        9.9869639617  MEMB      73              0.0000000000
      8272        73  SLPC      C27            32.8668988865       15.4534088438        9.7275672159  MEMB      73              0.0000000000
      8273        73  SLPC      H7R            33.0431503530       16.1388723174        8.8565079274  MEMB      73              0.0000000000
      8274        73  SLPC      H7S            31.8978438444       15.5122937773       10.2208872129  MEMB      73              0.0000000000
      8275        73  SLPC      C28            33.2568040429       14.0263732481        9.2687450319  MEMB      73              0.0000000000
      8276        73  SLPC      H8R            33.6686235982       13.3700999460       10.0833191212  MEMB      73              0.0000000000
      8277        73  SLPC      H8S            34.0648666231       14.2949209339        8.5993357275  MEMB      73              0.0000000000
      8278        73  SLPC      C29            32.2177452858       13.3703184040        8.4158613924  MEMB      73              0.0000000000
      8279        73  SLPC      H9R            31.3018114840       13.1204159380        8.9304166142  MEMB      73              0.0000000000
      8280        73  SLPC      C210           32.2250014946       13.1267379711        7.1018847132  MEMB      73              0.0000000000
      8281        73  SLPC      H10R           31.3241967340       12.7577462811        6.6111153592  MEMB      73              0.0000000000
      8282        73  SLPC      C211           33.2746062433       13.4436335534        6.1326780797  MEMB      73              0.0000000000
      8283        73  SLPC      H11R           33.3369018019       12.6714902858        5.3301928541  MEMB      73              0.0000000000
      8284        73  SLPC      H11S           34.2276070958       13.4437971040        6.6403169366  MEMB      73              0.0000000000
      8285        73  SLPC      C212           32.8208369394       14.7490909271        5.5928565513  MEMB      73              0.0000000000
      8286        73  SLPC      H12R           32.1681267525       15.4903890781        6.0661622980  MEMB      73              0.0000000000
      8287        73  SLPC      C213           33.1259196374       15.0118458579        4.3856633716  MEMB      73              0.0000000000
      8288        73  SLPC      H13R           32.8155363929       15.9913197629        4.0957483038  MEMB      73              0.0000000000
      8289        73  SLPC      C214           33.9134826871       14.1433990395        3.4955410418  MEMB      73              0.0000000000
      8290        73  SLPC      H14R           34.6171097997       13.3814810114        3.9010986359  MEMB      73              0.0000000000
      8291        73  SLPC      H14S           34.5572252166       14.9679834896        3.8123230843  MEMB      73              0.0000000000
      8292        73  SLPC      C215           33.6814825738       13.7613235875        1.9657462371  MEMB      73              0.0000000000
      8293        73  SLPC      H15R           32.7111258919       13.2974788838        1.7788297830  MEMB      73              0.0000000000
      8294        73  SLPC      H15S           34.4903689575       13.1942662017        1.4500639952  MEMB      73              0.0000000000
      8295        73  SLPC      C216           33.7244163603       14.8841593447        0.9806617804  MEMB      73              0.0000000000
      8296        73  SLPC      H16R           34.3210084095       15.6215646155        1.2675395718  MEMB      73              0.0000000000
      8297        73  SLPC      H16S           33.1298237921       15.5932559699        1.1604604236  MEMB      73              0.0000000000
      8298        73  SLPC      C217           34.2791910398       15.0032327971       -0.4493535746  MEMB      73              0.0000000000
      8299        73  SLPC      H17R           33.1312204890       14.6621461452       -0.4294120330  MEMB      73              0.0000000000
      8300        73  SLPC      H17S           34.7448423945       14.1556924264       -0.6558034376  MEMB      73              0.0000000000
      8301        73  SLPC      C218           34.5947250557       16.7507637590       -2.4411780317  MEMB      73              0.0000000000
      8302        73  SLPC      H18R           33.7146719587       17.5883881157       -2.5854905286  MEMB      73              0.0000000000
      8303        73  SLPC      H18S           34.4845884184       16.4012233908       -3.4518142644  MEMB      73              0.0000000000
      8304        73  SLPC      H18T           35.3240620560       16.9628508390       -1.9355320057  MEMB      73              0.0000000000
      8305        73  SLPC      C33            27.8102282616       16.0707617484       13.9742242898  MEMB      73              0.0000000000
      8306        73  SLPC      H3X            28.7658635503       16.6125519852       13.6007157257  MEMB      73              0.0000000000
      8307        73  SLPC      H3Y            27.5865133162       16.0450875364       14.9730695318  MEMB      73              0.0000000000
      8308        73  SLPC      C34            25.8442692132       16.7326875919       13.6801625907  MEMB      73              0.0000000000
      8309        73  SLPC      H4X            25.0561754892       16.0910599922       13.9088418124  MEMB      73              0.0000000000
      8310        73  SLPC      H4Y            25.6110799266       17.1966092861       12.8138645814  MEMB      73              0.0000000000
      8311        73  SLPC      C35            25.1566614155       18.1320301020       12.6434990678  MEMB      73              0.0000000000
      8312        73  SLPC      H5X            25.0918544014       18.9129961180       13.3320150598  MEMB      73              0.0000000000
      8313        73  SLPC      H5Y            24.1137051061       18.0452250631       12.3437740100  MEMB      73              0.0000000000
      8314        73  SLPC      C36            25.9355775275       18.9264123756       11.3560450467  MEMB      73              0.0000000000
      8315        73  SLPC      H6X            26.3554457383       18.4454301554       10.4254314565  MEMB      73              0.0000000000
      8316        73  SLPC      H6Y            27.0114668386       19.1326182542       11.3552102816  MEMB      73              0.0000000000
      8317        73  SLPC      C37            25.3833844435       20.1201492520       11.0732792692  MEMB      73              0.0000000000
      8318        73  SLPC      H7X            25.4802154002       20.8532935708       11.8558835907  MEMB      73              0.0000000000
      8319        73  SLPC      H7Y            24.3711422492       19.8058372655       10.7887445423  MEMB      73              0.0000000000
      8320        73  SLPC      C38            26.2993221199       20.5462966029       10.0205080093  MEMB      73              0.0000000000
      8321        73  SLPC      H8X            25.7257720430       21.3938904761       10.0414215717  MEMB      73              0.0000000000
      8322        73  SLPC      H8Y            25.9791108879       19.8719859049        9.2199170908  MEMB      73              0.0000000000
      8323        73  SLPC      C39            27.7256869075       21.0851843021       10.3752223286  MEMB      73              0.0000000000
      8324        73  SLPC      H9X            28.2739056922       20.3570060130       10.9514465537  MEMB      73              0.0000000000
      8325        73  SLPC      H9Y            27.6335402859       22.0608191789       10.8256113246  MEMB      73              0.0000000000
      8326        73  SLPC      C310           28.7465247816       21.3045282740        9.3073402734  MEMB      73              0.0000000000
      8327        73  SLPC      H10X           28.2766245168       22.1318570268        8.7016100209  MEMB      73              0.0000000000
      8328        73  SLPC      H10Y           28.8592257415       20.2125354108        9.0434969457  MEMB      73              0.0000000000
      8329        73  SLPC      C311           30.0849733638       21.9041347892        9.1574420964  MEMB      73              0.0000000000
      8330        73  SLPC      H11X           30.3940427747       21.3977230573       10.0526224659  MEMB      73              0.0000000000
      8331        73  SLPC      H11Y           29.9090007421       23.0239161667        9.0984078793  MEMB      73              0.0000000000
      8332        73  SLPC      C312           31.0849543085       21.3981994666        8.0842310021  MEMB      73              0.0000000000
      8333        73  SLPC      H12X           31.6865755551       22.2428179124        7.7406826957  MEMB      73              0.0000000000
      8334        73  SLPC      H12Y           30.6591983840       21.0679755892        7.1803388498  MEMB      73              0.0000000000
      8335        73  SLPC      C313           31.5840975611       19.9691095345        7.8693406060  MEMB      73              0.0000000000
      8336        73  SLPC      H13X           30.8079353780       19.1731935840        7.7346790271  MEMB      73              0.0000000000
      8337        73  SLPC      H13Y           32.0427747863       19.8907902818        8.8468582252  MEMB      73              0.0000000000
      8338        73  SLPC      C314           32.5643999410       19.9022330291        6.6600020169  MEMB      73              0.0000000000
      8339        73  SLPC      H14X           33.1562846705       18.9832877414        6.7491302740  MEMB      73              0.0000000000
      8340        73  SLPC      H14Y           33.1610814625       20.8418854538        6.6576835331  MEMB      73              0.0000000000
      8341        73  SLPC      C315           32.0366284748       19.7494688082        5.2398329011  MEMB      73              0.0000000000
      8342        73  SLPC      H15X           32.7692263045       20.0293137123        4.4411358587  MEMB      73              0.0000000000
      8343        73  SLPC      H15Y           31.2876460619       20.4870709375        5.2618566591  MEMB      73              0.0000000000
      8344        73  SLPC      C316           31.1885196784       18.5331310733        4.9729584952  MEMB      73              0.0000000000
      8345        73  SLPC      H16X           30.1804703990       18.6040156871        5.4190945101  MEMB      73              0.0000000000
      8346        73  SLPC      H16Y           31.7762025399       17.6936822776        5.4076566960  MEMB      73              0.0000000000
      8347        73  SLPC      C317           30.9086371196       18.3013398553        3.5187379619  MEMB      73              0.0000000000
      8348        73  SLPC      H17X           31.8064231173       18.7119718347        3.1171192260  MEMB      73              0.0000000000
      8349        73  SLPC      H17Y           30.3725911691       18.9772738743        2.8437252862  MEMB      73              0.0000000000
      8350        73  SLPC      C318           30.5329076505       16.8387758151        3.3840658685  MEMB      73              0.0000000000
      8351        73  SLPC      H18X           29.5088275111       16.8451994952        3.5190597771  MEMB      73              0.0000000000
      8352        73  SLPC      H18Y           30.8814208259       16.1252206563        4.1308685552  MEMB      73              0.0000000000
      8353        73  SLPC      H18Z           30.7321415859       16.3236556721        2.4663906804  MEMB      73              0.0000000000
      8354        74  OSM       N             -16.3858981329      -33.2431334342       22.5197329415  MEMB      74              0.0000000000
      8355        74  OSM       C15           -17.3991459250      -32.6014120817       21.6398803679  MEMB      74              0.0000000000
      8356        74  OSM       H15A          -17.4516120056      -31.5434582232       21.8363549838  MEMB      74              0.0000000000
      8357        74  OSM       H15B          -18.3712914038      -33.0407589970       21.7680291943  MEMB      74              0.0000000000
      8358        74  OSM       H15C          -17.0941869329      -32.7123152249       20.5991989927  MEMB      74              0.0000000000
      8359        74  OSM       C14           -16.7228361362      -32.9642755779       23.9515277015  MEMB      74              0.0000000000
      8360        74  OSM       H14A          -16.8751824446      -31.9053660649       24.1164579642  MEMB      74              0.0000000000
      8361        74  OSM       H14B          -15.9240378724      -33.2895729434       24.6107280037  MEMB      74              0.0000000000
      8362        74  OSM       H14C          -17.6494537692      -33.4626212033       24.2083967480  MEMB      74              0.0000000000
      8363        74  OSM       C13           -16.3933884616      -34.7135922329       22.2328927238  MEMB      74              0.0000000000
      8364        74  OSM       H13A          -16.4319692344      -34.8602609445       21.1532078683  MEMB      74              0.0000000000
      8365        74  OSM       H13B          -17.2077373792      -35.2363232573       22.6914692176  MEMB      74              0.0000000000
      8366        74  OSM       H13C          -15.4380659495      -35.1477907913       22.5051750196  MEMB      74              0.0000000000
      8367        74  OSM       C12           -15.0166228423      -32.6398334515       22.1735608749  MEMB      74              0.0000000000
      8368        74  OSM       H12A          -14.2748448542      -33.0191806437       22.8671813873  MEMB      74              0.0000000000
      8369        74  OSM       H12B          -15.0674861297      -31.5731505059       22.3222644282  MEMB      74              0.0000000000
      8370        74  OSM       C11           -14.4032407763      -32.8812417771       20.7674214998  MEMB      74              0.0000000000
      8371        74  OSM       H11A          -13.4694078342      -32.2649496519       20.6829365966  MEMB      74              0.0000000000
      8372        74  OSM       H11B          -15.0885289670      -32.5341906636       19.9651552956  MEMB      74              0.0000000000
      8373        74  OSM       P             -13.0601206835      -34.7851729176       19.5569086574  MEMB      74              0.0000000000
      8374        74  OSM       O13           -11.7130242815      -34.4727177629       20.0556791672  MEMB      74              0.0000000000
      8375        74  OSM       O14           -13.3302409712      -36.2249059800       19.3860703010  MEMB      74              0.0000000000
      8376        74  OSM       O11           -13.4448574874      -33.9662272854       18.2589881562  MEMB      74              0.0000000000
      8377        74  OSM       O12           -14.1182627343      -34.2678544291       20.6172871327  MEMB      74              0.0000000000
      8378        74  OSM       C1S           -14.6157598410      -34.3666969733       17.5422467780  MEMB      74              0.0000000000
      8379        74  OSM       H1S           -15.5206116056      -34.0277431920       18.0803289675  MEMB      74              0.0000000000
      8380        74  OSM       H1T           -14.7251314875      -35.4741304852       17.4593876875  MEMB      74              0.0000000000
      8381        74  OSM       NF            -13.6122347079      -34.1055084032       15.2897231428  MEMB      74              0.0000000000
      8382        74  OSM       HNF           -13.0405138884      -33.4965706995       14.7651919036  MEMB      74              0.0000000000
      8383        74  OSM       C2S           -14.6315723999      -33.6555429647       16.1638347266  MEMB      74              0.0000000000
      8384        74  OSM       H2S           -15.5957970314      -33.9117992646       15.6573243417  MEMB      74              0.0000000000
      8385        74  OSM       C3S           -14.5040693482      -32.1413106097       16.3769312889  MEMB      74              0.0000000000
      8386        74  OSM       H3S           -13.5627098596      -31.9230291124       16.9252297702  MEMB      74              0.0000000000
      8387        74  OSM       O3            -15.5918086014      -31.6520600521       17.1581741065  MEMB      74              0.0000000000
      8388        74  OSM       HO3           -15.7699314262      -32.4066935709       17.7287592152  MEMB      74              0.0000000000
      8389        74  OSM       C4S           -14.4335952557      -31.4898375595       15.0232097805  MEMB      74              0.0000000000
      8390        74  OSM       H4S           -15.3930527929      -31.1548131247       14.6090324455  MEMB      74              0.0000000000
      8391        74  OSM       C5S           -13.2733313122      -31.1874938762       14.3952605068  MEMB      74              0.0000000000
      8392        74  OSM       H5S           -12.3229054390      -31.2698970270       14.9446311056  MEMB      74              0.0000000000
      8393        74  OSM       C6S           -13.1387535641      -30.5556935105       13.0394927768  MEMB      74              0.0000000000
      8394        74  OSM       H6S           -12.1360180588      -30.7203000849       12.6073361175  MEMB      74              0.0000000000
      8395        74  OSM       H6T           -13.1027851953      -29.4676145861       12.9407540259  MEMB      74              0.0000000000
      8396        74  OSM       C7S           -14.3655801888      -30.7937137362       12.2013567207  MEMB      74              0.0000000000
      8397        74  OSM       H7S           -15.2609500294      -30.1770237512       12.5161203604  MEMB      74              0.0000000000
      8398        74  OSM       H7T           -14.5502943380      -31.8512912414       12.0323647864  MEMB      74              0.0000000000
      8399        74  OSM       C8S           -13.9818814473      -30.3120835228       10.8851839436  MEMB      74              0.0000000000
      8400        74  OSM       H8S           -12.9514936092      -30.5612627135       10.5637999450  MEMB      74              0.0000000000
      8401        74  OSM       H8T           -13.8248212709      -29.2710937853       11.2889909829  MEMB      74              0.0000000000
      8402        74  OSM       C9S           -14.9811542049      -30.5170402592        9.6799026235  MEMB      74              0.0000000000
      8403        74  OSM       H9S           -14.4697203635      -30.3704433645        8.6946244378  MEMB      74              0.0000000000
      8404        74  OSM       H9T           -15.8410792438      -29.8168116458        9.5953023170  MEMB      74              0.0000000000
      8405        74  OSM       C10S          -15.7042328273      -31.7446723893        9.6090064364  MEMB      74              0.0000000000
      8406        74  OSM       H10S          -16.4110692871      -31.6275506132        8.7531022060  MEMB      74              0.0000000000
      8407        74  OSM       H10T          -16.2623246998      -31.8680203203       10.5593244342  MEMB      74              0.0000000000
      8408        74  OSM       C11S          -14.6254195355      -32.6869029539        9.3054097503  MEMB      74              0.0000000000
      8409        74  OSM       H11S          -13.8371719776      -32.6654737537       10.1010784925  MEMB      74              0.0000000000
      8410        74  OSM       H11T          -14.0730533158      -32.4063169548        8.3707123418  MEMB      74              0.0000000000
      8411        74  OSM       C12S          -15.3116492848      -34.0029332905        9.1986033672  MEMB      74              0.0000000000
      8412        74  OSM       H12S          -15.7202064442      -34.4167632616       10.1334718492  MEMB      74              0.0000000000
      8413        74  OSM       H12T          -14.3978266741      -34.4411845748        9.0731253357  MEMB      74              0.0000000000
      8414        74  OSM       C13S          -16.2479577490      -34.2585299896        8.0180125554  MEMB      74              0.0000000000
      8415        74  OSM       H13S          -17.1165571197      -33.5836683174        8.1575836349  MEMB      74              0.0000000000
      8416        74  OSM       H13T          -16.6102752366      -35.3033224802        8.1267097529  MEMB      74              0.0000000000
      8417        74  OSM       C14S          -15.6225759714      -34.0830210623        6.6188145327  MEMB      74              0.0000000000
      8418        74  OSM       H14S          -14.5911345497      -34.4720030649        6.6573305807  MEMB      74              0.0000000000
      8419        74  OSM       H14T          -15.5061162404      -32.9983908995        6.4146041992  MEMB      74              0.0000000000
      8420        74  OSM       C15S          -16.4109197116      -34.8002269590        5.4876894091  MEMB      74              0.0000000000
      8421        74  OSM       H15S          -17.4733466435      -34.4845714140        5.5670722681  MEMB      74              0.0000000000
      8422        74  OSM       H15T          -16.4120730805      -35.9016876654        5.6514427205  MEMB      74              0.0000000000
      8423        74  OSM       C16S          -15.8965308673      -34.5122826949        4.0529620146  MEMB      74              0.0000000000
      8424        74  OSM       H16S          -14.8451184894      -34.8594575793        3.9500638509  MEMB      74              0.0000000000
      8425        74  OSM       H16T          -15.8637658598      -33.4124593465        3.9009610295  MEMB      74              0.0000000000
      8426        74  OSM       C17S          -16.7690410735      -35.1093218646        2.9224449868  MEMB      74              0.0000000000
      8427        74  OSM       H17S          -16.5130739562      -34.6540148233        1.9335457481  MEMB      74              0.0000000000
      8428        74  OSM       H17T          -17.8368099507      -34.8676080233        3.1232507006  MEMB      74              0.0000000000
      8429        74  OSM       C18S          -16.6246530702      -36.6148169871        2.7151083251  MEMB      74              0.0000000000
      8430        74  OSM       H18S          -17.1720538064      -36.8983346770        1.7872409014  MEMB      74              0.0000000000
      8431        74  OSM       H18T          -17.0374228373      -37.1832216578        3.5735652718  MEMB      74              0.0000000000
      8432        74  OSM       H18U          -15.5502535213      -36.8747472804        2.5949504687  MEMB      74              0.0000000000
      8433        74  OSM       C1F           -13.6851388411      -35.2455765415       14.7951623800  MEMB      74              0.0000000000
      8434        74  OSM       OF            -14.5118786382      -36.0788986570       15.1350582040  MEMB      74              0.0000000000
      8435        74  OSM       C2F           -12.7851589928      -35.2441860677       13.5950547651  MEMB      74              0.0000000000
      8436        74  OSM       H2F           -11.8397377479      -34.7076187856       13.7834778425  MEMB      74              0.0000000000
      8437        74  OSM       H2G           -13.3216691064      -35.1893422117       12.6273343848  MEMB      74              0.0000000000
      8438        74  OSM       C3F           -12.0095076554      -36.4525544252       13.5045421085  MEMB      74              0.0000000000
      8439        74  OSM       H3F           -13.0237087148      -36.9955306810       13.5691045807  MEMB      74              0.0000000000
      8440        74  OSM       H3G           -11.4584156497      -36.5738636805       14.4566274529  MEMB      74              0.0000000000
      8441        74  OSM       C4F           -10.8756851759      -36.8472369900       12.4090416190  MEMB      74              0.0000000000
      8442        74  OSM       H4F           -10.6960235680      -37.9233622276       12.2416139948  MEMB      74              0.0000000000
      8443        74  OSM       H4G            -9.8539801189      -36.6862654428       12.7224106893  MEMB      74              0.0000000000
      8444        74  OSM       C5F           -11.0346466820      -36.5205865790       10.9524584854  MEMB      74              0.0000000000
      8445        74  OSM       H5F           -11.0271240050      -35.4761903925       10.6732240706  MEMB      74              0.0000000000
      8446        74  OSM       H5G           -12.1103931486      -36.3336187638       11.1940494473  MEMB      74              0.0000000000
      8447        74  OSM       C6F           -10.4916536004      -37.6148703731        9.7661069404  MEMB      74              0.0000000000
      8448        74  OSM       H6F           -10.3882004875      -38.6758029019        9.9149562298  MEMB      74              0.0000000000
      8449        74  OSM       H6G            -9.4309798195      -37.2904786932        9.7250574281  MEMB      74              0.0000000000
      8450        74  OSM       C7F           -11.1523689439      -37.9544963419        8.1951603231  MEMB      74              0.0000000000
      8451        74  OSM       H7F           -10.3074789360      -37.9074878118        7.5537279539  MEMB      74              0.0000000000
      8452        74  OSM       H7G           -11.2248012322      -36.8675428932        8.5338449018  MEMB      74              0.0000000000
      8453        74  OSM       C8F           -12.8263214501      -38.7370595204        7.3479710871  MEMB      74              0.0000000000
      8454        74  OSM       H8F           -13.5909418961      -39.2214562684        8.0180640204  MEMB      74              0.0000000000
      8455        74  OSM       H8G           -12.1951586203      -39.5124450024        7.0240543235  MEMB      74              0.0000000000
      8456        74  OSM       C9F           -14.1338687770      -38.0751550206        6.4051219511  MEMB      74              0.0000000000
      8457        74  OSM       H9F           -14.6805501258      -37.0882438309        6.6748117790  MEMB      74              0.0000000000
      8458        74  OSM       C10F          -14.0463440384      -37.8986599052        5.0932457273  MEMB      74              0.0000000000
      8459        74  OSM       H10F          -14.0905191075      -36.8222887158        4.7129529259  MEMB      74              0.0000000000
      8460        74  OSM       C11F          -12.7814254170      -38.4304264208        4.6367773348  MEMB      74              0.0000000000
      8461        74  OSM       H11F          -13.1848548877      -39.4199631179        4.6621076121  MEMB      74              0.0000000000
      8462        74  OSM       H11G          -11.8593174144      -38.7563411425        5.1708396840  MEMB      74              0.0000000000
      8463        74  OSM       C12F          -12.5283151894      -37.8158453119        3.3512169057  MEMB      74              0.0000000000
      8464        74  OSM       H12F          -13.1650268062      -37.2409967795        2.6797951362  MEMB      74              0.0000000000
      8465        74  OSM       H12G          -12.8391459312      -38.7000004393        2.8116566903  MEMB      74              0.0000000000
      8466        74  OSM       C13F          -11.1479644374      -37.3815919639        3.1656355751  MEMB      74              0.0000000000
      8467        74  OSM       H13F          -10.2434943447      -37.9218259594        3.5378612372  MEMB      74              0.0000000000
      8468        74  OSM       H13G          -10.6992714323      -36.6259624962        3.6079479143  MEMB      74              0.0000000000
      8469        74  OSM       C14F          -11.2148929589      -36.4736009428        2.0385729493  MEMB      74              0.0000000000
      8470        74  OSM       H14F          -11.3037977186      -37.0819929133        1.1694068787  MEMB      74              0.0000000000
      8471        74  OSM       H14G          -10.2338996327      -36.2233038346        2.0421329334  MEMB      74              0.0000000000
      8472        74  OSM       C15F          -11.8884761361      -35.1204930768        2.0527859034  MEMB      74              0.0000000000
      8473        74  OSM       H15F          -11.5401422452      -34.2581147863        2.6632326817  MEMB      74              0.0000000000
      8474        74  OSM       H15G          -12.8385317933      -35.3485663083        2.5005633261  MEMB      74              0.0000000000
      8475        74  OSM       C16F          -11.8695910441      -34.5907231604        0.6300940990  MEMB      74              0.0000000000
      8476        74  OSM       H16F          -12.1374697980      -35.4741325952        0.0506371122  MEMB      74              0.0000000000
      8477        74  OSM       H16G          -10.9751992556      -34.2489200351        0.0357324075  MEMB      74              0.0000000000
      8478        74  OSM       C17F          -12.4127105804      -33.2452664759        0.6679105660  MEMB      74              0.0000000000
      8479        74  OSM       H17F          -12.2249198989      -32.7728716749       -0.2953259331  MEMB      74              0.0000000000
      8480        74  OSM       H17G          -11.8717466296      -32.6501762288        1.4471291286  MEMB      74              0.0000000000
      8481        74  OSM       C18F          -13.8442827376      -33.4939542393        0.9184555447  MEMB      74              0.0000000000
      8482        74  OSM       H18F          -13.9785645719      -33.6737237188        2.0045394497  MEMB      74              0.0000000000
      8483        74  OSM       H18G          -14.1354407454      -34.4257681308        0.3687341310  MEMB      74              0.0000000000
      8484        74  OSM       H18H          -14.3919340324      -32.6172622373        0.5442992121  MEMB      74              0.0000000000
      8485        75  CHL1      C3              6.1565752756      -36.7232234999       17.3070530485  MEMB      75              0.0000000000
      8486        75  CHL1      H3              5.7858107560      -37.6658037864       16.8366814552  MEMB      75              0.0000000000
      8487        75  CHL1      O3              6.1491039975      -36.8561100536       18.7122898333  MEMB      75              0.0000000000
      8488        75  CHL1      H3'             5.2497622388      -37.1529004789       18.9488406108  MEMB      75              0.0000000000
      8489        75  CHL1      C4              7.6031874778      -36.5004047198       16.8844933245  MEMB      75              0.0000000000
      8490        75  CHL1      H4A             8.0320450372      -35.6522847013       17.4646872367  MEMB      75              0.0000000000
      8491        75  CHL1      H4B             8.1571350585      -37.4049247257       17.2408733125  MEMB      75              0.0000000000
      8492        75  CHL1      C5              7.7104775125      -36.2644024651       15.3871863808  MEMB      75              0.0000000000
      8493        75  CHL1      C6              8.4972373202      -37.0544766805       14.6437444261  MEMB      75              0.0000000000
      8494        75  CHL1      H6              9.0355608289      -37.8524430753       15.1688815902  MEMB      75              0.0000000000
      8495        75  CHL1      C7              8.7823148530      -36.8615720382       13.1733148175  MEMB      75              0.0000000000
      8496        75  CHL1      H7A             9.8823721763      -36.8187655036       13.0002366846  MEMB      75              0.0000000000
      8497        75  CHL1      H7B             8.4142368905      -37.7145792464       12.5579260680  MEMB      75              0.0000000000
      8498        75  CHL1      C8              8.1791315099      -35.5310014877       12.6378891969  MEMB      75              0.0000000000
      8499        75  CHL1      H8              8.8604359271      -34.7003542247       12.9188385342  MEMB      75              0.0000000000
      8500        75  CHL1      C14             8.0803649027      -35.5671840955       11.1325459233  MEMB      75              0.0000000000
      8501        75  CHL1      H14             7.2921488736      -36.3209821111       10.8681311681  MEMB      75              0.0000000000
      8502        75  CHL1      C15             9.3242725402      -36.0582757401       10.3581273288  MEMB      75              0.0000000000
      8503        75  CHL1      H15A           10.2784482666      -35.7442013953       10.8281824613  MEMB      75              0.0000000000
      8504        75  CHL1      H15B            9.3120445824      -37.1632499262       10.2676309509  MEMB      75              0.0000000000
      8505        75  CHL1      C16             9.1565834133      -35.4047909489        8.9980365063  MEMB      75              0.0000000000
      8506        75  CHL1      H16A           10.0313390753      -34.7451519337        8.8420138820  MEMB      75              0.0000000000
      8507        75  CHL1      H16B            9.2048571129      -36.1462600896        8.1815470915  MEMB      75              0.0000000000
      8508        75  CHL1      C17             7.7992200363      -34.5904772330        9.0756853358  MEMB      75              0.0000000000
      8509        75  CHL1      H17             6.9756596887      -35.2802840650        8.7787259244  MEMB      75              0.0000000000
      8510        75  CHL1      C13             7.5933810336      -34.2516097893       10.5225976666  MEMB      75              0.0000000000
      8511        75  CHL1      C18             8.5286342299      -33.0806752852       10.8185685718  MEMB      75              0.0000000000
      8512        75  CHL1      H18A            8.6072381961      -32.8442720217       11.8917576978  MEMB      75              0.0000000000
      8513        75  CHL1      H18B            9.4939814608      -33.4370455759       10.4756794188  MEMB      75              0.0000000000
      8514        75  CHL1      H18C            8.3055507030      -32.1579474528       10.2453309978  MEMB      75              0.0000000000
      8515        75  CHL1      C12             6.1681920136      -33.9780023040       10.9910525711  MEMB      75              0.0000000000
      8516        75  CHL1      H12A            5.8102740575      -32.9977525334       10.6075596589  MEMB      75              0.0000000000
      8517        75  CHL1      H12B            5.5278037831      -34.7667433138       10.5440925045  MEMB      75              0.0000000000
      8518        75  CHL1      C11             6.1006836814      -34.0075726763       12.5362086463  MEMB      75              0.0000000000
      8519        75  CHL1      H11A            6.5712258337      -33.0722378150       12.9000639586  MEMB      75              0.0000000000
      8520        75  CHL1      H11B            5.0389778603      -34.0121920434       12.8530345033  MEMB      75              0.0000000000
      8521        75  CHL1      C9              6.7959228725      -35.2248732762       13.2279793289  MEMB      75              0.0000000000
      8522        75  CHL1      H9              6.1700087255      -36.1046492862       12.9367914550  MEMB      75              0.0000000000
      8523        75  CHL1      C10             6.8048482594      -35.1590092582       14.7975003308  MEMB      75              0.0000000000
      8524        75  CHL1      C19             7.2919402926      -33.7615339755       15.2785185069  MEMB      75              0.0000000000
      8525        75  CHL1      H19A            7.3727955844      -33.7228067545       16.3831264069  MEMB      75              0.0000000000
      8526        75  CHL1      H19B            8.2765132749      -33.5091027005       14.8369304213  MEMB      75              0.0000000000
      8527        75  CHL1      H19C            6.5597396117      -32.9711410467       15.0092134145  MEMB      75              0.0000000000
      8528        75  CHL1      C1              5.3612020662      -35.3717406209       15.3483639939  MEMB      75              0.0000000000
      8529        75  CHL1      H1A             4.7586386648      -34.4777149923       15.0852099702  MEMB      75              0.0000000000
      8530        75  CHL1      H1B             4.9385362841      -36.2688318445       14.8427605527  MEMB      75              0.0000000000
      8531        75  CHL1      C2              5.2422594112      -35.5738100024       16.8753518215  MEMB      75              0.0000000000
      8532        75  CHL1      H2A             4.1958123071      -35.8277683242       17.1490478066  MEMB      75              0.0000000000
      8533        75  CHL1      H2B             5.5011532198      -34.6340044768       17.4115195927  MEMB      75              0.0000000000
      8534        75  CHL1      C20             7.7697148082      -33.4959688383        8.0548957038  MEMB      75              0.0000000000
      8535        75  CHL1      H20             8.7221006553      -32.9102440990        8.1887668950  MEMB      75              0.0000000000
      8536        75  CHL1      C21             6.5627736736      -32.4981750398        8.0049359161  MEMB      75              0.0000000000
      8537        75  CHL1      H21A            5.6338711547      -33.0984651349        8.0247425822  MEMB      75              0.0000000000
      8538        75  CHL1      H21B            6.5284817296      -31.9137520316        7.0559895326  MEMB      75              0.0000000000
      8539        75  CHL1      H21C            6.5648707985      -31.7239731091        8.7992291034  MEMB      75              0.0000000000
      8540        75  CHL1      C22             7.7420684712      -34.3693086165        6.7712742721  MEMB      75              0.0000000000
      8541        75  CHL1      H22A            8.2775305222      -35.3137560150        6.7344525102  MEMB      75              0.0000000000
      8542        75  CHL1      H22B            6.7496484449      -34.3961467219        6.2777243327  MEMB      75              0.0000000000
      8543        75  CHL1      C23             8.7636605162      -33.8917576852        5.8396132803  MEMB      75              0.0000000000
      8544        75  CHL1      H23A            8.2181846580      -32.8895387530        6.0168284444  MEMB      75              0.0000000000
      8545        75  CHL1      H23B            9.4164861446      -33.2759141193        6.3896663969  MEMB      75              0.0000000000
      8546        75  CHL1      C24             9.0580865506      -34.7071436583        4.2824602804  MEMB      75              0.0000000000
      8547        75  CHL1      H24A            9.8846728207      -35.3598664225        4.5308895737  MEMB      75              0.0000000000
      8548        75  CHL1      H24B            8.1093629803      -35.2499108378        4.0171340582  MEMB      75              0.0000000000
      8549        75  CHL1      C25             9.5585155311      -34.1452176871        2.6488694916  MEMB      75              0.0000000000
      8550        75  CHL1      H25             8.6234742911      -33.6198801537        2.3063957054  MEMB      75              0.0000000000
      8551        75  CHL1      C26            10.9643445035      -33.2478651282        2.3589012709  MEMB      75              0.0000000000
      8552        75  CHL1      H26A           11.0838111176      -32.1972968026        2.7339272665  MEMB      75              0.0000000000
      8553        75  CHL1      H26B           11.7167685121      -33.3598213481        3.1397360819  MEMB      75              0.0000000000
      8554        75  CHL1      H26C           11.1160402170      -32.6819547341        1.4041178720  MEMB      75              0.0000000000
      8555        75  CHL1      C27             9.3472203657      -34.9168911912        1.3880869517  MEMB      75              0.0000000000
      8556        75  CHL1      H27A            9.6508050251      -34.2362620428        0.5284353430  MEMB      75              0.0000000000
      8557        75  CHL1      H27B           10.0813232800      -35.6579933198        1.7216138461  MEMB      75              0.0000000000
      8558        75  CHL1      H27C            8.2620409038      -35.2003172929        1.3062830342  MEMB      75              0.0000000000
      8559        76  SAPC      N             -17.6976313584       33.7707045133       21.8479786955  MEMB      76              0.0000000000
      8560        76  SAPC      C12           -16.3150260856       33.2082066835       21.5255417554  MEMB      76              0.0000000000
      8561        76  SAPC      H12A          -15.8361244055       32.8675403316       22.4235739094  MEMB      76              0.0000000000
      8562        76  SAPC      H12B          -15.6942167844       33.9539711999       21.0414020682  MEMB      76              0.0000000000
      8563        76  SAPC      C13           -17.5643320252       34.4740616321       23.1297405343  MEMB      76              0.0000000000
      8564        76  SAPC      H13A          -17.2233082366       33.7745197498       23.8885920076  MEMB      76              0.0000000000
      8565        76  SAPC      H13B          -16.8056171424       35.2389669932       23.0088282799  MEMB      76              0.0000000000
      8566        76  SAPC      H13C          -18.4861134365       34.9334688066       23.4155806049  MEMB      76              0.0000000000
      8567        76  SAPC      C14           -18.0887649402       34.7585469132       20.8001877359  MEMB      76              0.0000000000
      8568        76  SAPC      H14A          -19.0441619337       35.1986776700       20.9947684663  MEMB      76              0.0000000000
      8569        76  SAPC      H14B          -17.3447890168       35.5345057828       20.6940234670  MEMB      76              0.0000000000
      8570        76  SAPC      H14C          -18.1216417486       34.2651177296       19.8217062858  MEMB      76              0.0000000000
      8571        76  SAPC      C15           -18.7089335610       32.6505970062       21.8555518813  MEMB      76              0.0000000000
      8572        76  SAPC      H15A          -18.4151055122       31.8473294804       22.5108232952  MEMB      76              0.0000000000
      8573        76  SAPC      H15B          -19.7131133185       32.9527594746       22.0799919597  MEMB      76              0.0000000000
      8574        76  SAPC      H15C          -18.7347465454       32.2304778789       20.8430802917  MEMB      76              0.0000000000
      8575        76  SAPC      C11           -16.3004278045       32.0757456202       20.5577413401  MEMB      76              0.0000000000
      8576        76  SAPC      H11A          -16.7081061422       31.1461396720       21.0254320334  MEMB      76              0.0000000000
      8577        76  SAPC      H11B          -15.2186722342       31.8001684887       20.3011425389  MEMB      76              0.0000000000
      8578        76  SAPC      P             -17.1057711619       31.7134745711       18.1407914432  MEMB      76              0.0000000000
      8579        76  SAPC      O13           -16.5468813241       32.4163018551       16.9774558522  MEMB      76              0.0000000000
      8580        76  SAPC      O14           -16.4159809606       30.6372994138       18.7733641888  MEMB      76              0.0000000000
      8581        76  SAPC      O12           -17.1421885864       32.5380357188       19.4488322243  MEMB      76              0.0000000000
      8582        76  SAPC      O11           -18.4290663632       30.9636423525       17.8519332253  MEMB      76              0.0000000000
      8583        76  SAPC      C1            -18.7390018049       29.9483371506       18.8416099877  MEMB      76              0.0000000000
      8584        76  SAPC      HA            -17.9087871435       29.2858572932       19.2450454686  MEMB      76              0.0000000000
      8585        76  SAPC      HB            -19.1179964040       30.4631475653       19.7303659805  MEMB      76              0.0000000000
      8586        76  SAPC      C2            -19.7409780695       28.9583267732       18.2412414207  MEMB      76              0.0000000000
      8587        76  SAPC      HS            -19.7181487081       28.0168087466       18.8539617388  MEMB      76              0.0000000000
      8588        76  SAPC      O21           -19.5409697557       28.7494428048       16.8252940589  MEMB      76              0.0000000000
      8589        76  SAPC      C21           -18.4736427388       28.0460581207       16.7262727541  MEMB      76              0.0000000000
      8590        76  SAPC      O22           -17.9269735327       27.5641775825       17.7109540387  MEMB      76              0.0000000000
      8591        76  SAPC      C22           -18.1803206389       27.8737403046       15.2038890347  MEMB      76              0.0000000000
      8592        76  SAPC      H2R           -17.8089990449       26.8845430727       14.9858104120  MEMB      76              0.0000000000
      8593        76  SAPC      H2S           -19.1006562744       27.7652037958       14.6836683382  MEMB      76              0.0000000000
      8594        76  SAPC      C3            -21.1130230360       29.5399510106       18.3911224859  MEMB      76              0.0000000000
      8595        76  SAPC      HX            -21.2901976901       29.5879130619       19.4836620960  MEMB      76              0.0000000000
      8596        76  SAPC      HY            -21.8559072536       28.8599341764       17.9299020812  MEMB      76              0.0000000000
      8597        76  SAPC      O31           -21.1189942508       30.8640749887       17.8528597814  MEMB      76              0.0000000000
      8598        76  SAPC      C31           -21.3256697432       30.9585815389       16.5374167496  MEMB      76              0.0000000000
      8599        76  SAPC      O32           -21.6957208872       30.0596216502       15.8048457405  MEMB      76              0.0000000000
      8600        76  SAPC      C32           -21.2004276134       32.4323585733       16.1852957272  MEMB      76              0.0000000000
      8601        76  SAPC      H2X           -20.2192002822       32.8253243762       16.5234911091  MEMB      76              0.0000000000
      8602        76  SAPC      H2Y           -21.9759781709       32.9333418904       16.8070473883  MEMB      76              0.0000000000
      8603        76  SAPC      C23           -17.4728739612       29.0607895077       14.5091988919  MEMB      76              0.0000000000
      8604        76  SAPC      H3R           -16.3977970203       29.0330788779       14.7711374878  MEMB      76              0.0000000000
      8605        76  SAPC      H3S           -17.9177096549       29.9997086284       14.8860397653  MEMB      76              0.0000000000
      8606        76  SAPC      C24           -17.5354721050       29.1245550913       12.9771717259  MEMB      76              0.0000000000
      8607        76  SAPC      H4R           -17.1078821330       28.1866985470       12.6572034470  MEMB      76              0.0000000000
      8608        76  SAPC      H4S           -16.8792726433       29.9483166852       12.6223920164  MEMB      76              0.0000000000
      8609        76  SAPC      C25           -18.8870567274       29.2390638423       12.3739998200  MEMB      76              0.0000000000
      8610        76  SAPC      H5R           -19.7125232518       28.8974291550       12.9941699089  MEMB      76              0.0000000000
      8611        76  SAPC      C26           -19.2262223751       29.6719831308       11.1772455494  MEMB      76              0.0000000000
      8612        76  SAPC      H6R           -20.3435755134       29.5783072037       11.0468218679  MEMB      76              0.0000000000
      8613        76  SAPC      C27           -18.2612906379       30.1631851242       10.0952320307  MEMB      76              0.0000000000
      8614        76  SAPC      H7R           -17.2474126711       29.7076985370       10.1253269626  MEMB      76              0.0000000000
      8615        76  SAPC      H7S           -18.2408004798       31.2735600061       10.0210813109  MEMB      76              0.0000000000
      8616        76  SAPC      C28           -19.1132822841       29.3466338457        9.2465714259  MEMB      76              0.0000000000
      8617        76  SAPC      H8R           -19.5396195846       30.2004948652        8.5785111134  MEMB      76              0.0000000000
      8618        76  SAPC      C29           -18.6920286441       28.2986246984        8.4987442289  MEMB      76              0.0000000000
      8619        76  SAPC      H9R           -19.6322301761       28.4596889719        7.8231052422  MEMB      76              0.0000000000
      8620        76  SAPC      C210          -17.1225308618       27.4743975711        8.0181529422  MEMB      76              0.0000000000
      8621        76  SAPC      H10R          -17.5001943004       26.5614855274        8.4986103706  MEMB      76              0.0000000000
      8622        76  SAPC      H10S          -16.5331480252       27.9498183572        8.7844085698  MEMB      76              0.0000000000
      8623        76  SAPC      C211          -16.0246667816       27.5322308102        6.2044682470  MEMB      76              0.0000000000
      8624        76  SAPC      H11R          -16.5505948728       27.8308967034        5.2491816466  MEMB      76              0.0000000000
      8625        76  SAPC      C212          -15.3962103565       28.4739263124        5.1702931636  MEMB      76              0.0000000000
      8626        76  SAPC      H12R          -15.2047574734       28.2034604975        4.1102283330  MEMB      76              0.0000000000
      8627        76  SAPC      C213          -15.2909292325       29.9763122437        5.0223340670  MEMB      76              0.0000000000
      8628        76  SAPC      H13R          -14.2308487920       29.7700628653        4.9299774481  MEMB      76              0.0000000000
      8629        76  SAPC      H13S          -15.1234307868       30.5351450618        5.9532023847  MEMB      76              0.0000000000
      8630        76  SAPC      C214          -16.0054690022       31.2856076816        5.0515542590  MEMB      76              0.0000000000
      8631        76  SAPC      H14R          -16.8390856799       31.5577251582        5.7244191484  MEMB      76              0.0000000000
      8632        76  SAPC      C215          -15.4777866713       32.1584031743        4.3436790713  MEMB      76              0.0000000000
      8633        76  SAPC      H15R          -16.0167659831       33.0823020962        4.3395148144  MEMB      76              0.0000000000
      8634        76  SAPC      C216          -14.2821437511       31.6991521512        3.5846277564  MEMB      76              0.0000000000
      8635        76  SAPC      H16R          -13.4848886906       31.0257596595        3.9975787522  MEMB      76              0.0000000000
      8636        76  SAPC      H16S          -13.6986252919       32.5485749441        3.3882307993  MEMB      76              0.0000000000
      8637        76  SAPC      C217          -14.8742446226       31.1448103000        2.3014335218  MEMB      76              0.0000000000
      8638        76  SAPC      H17R          -14.0649992702       31.2487517387        1.6169723526  MEMB      76              0.0000000000
      8639        76  SAPC      H17S          -15.7071484114       31.7637797270        1.9322163593  MEMB      76              0.0000000000
      8640        76  SAPC      C218          -15.2610457245       29.6738859139        2.2847598811  MEMB      76              0.0000000000
      8641        76  SAPC      H18R          -16.2229313131       29.5418312717        2.8143703772  MEMB      76              0.0000000000
      8642        76  SAPC      H18S          -14.4038440886       29.1092659851        2.7368965256  MEMB      76              0.0000000000
      8643        76  SAPC      C219          -15.4154793122       29.0831847687        0.9612269689  MEMB      76              0.0000000000
      8644        76  SAPC      H19R          -16.1586832014       29.5597662643        0.3447949458  MEMB      76              0.0000000000
      8645        76  SAPC      H19S          -15.6309943632       27.9839450566        0.9504454981  MEMB      76              0.0000000000
      8646        76  SAPC      C220          -14.1671651565       29.4198395290        0.2800251803  MEMB      76              0.0000000000
      8647        76  SAPC      H20R          -14.5160270957       29.1192817906       -0.6439959092  MEMB      76              0.0000000000
      8648        76  SAPC      H20S          -13.3213789899       28.8205409556        0.6527206902  MEMB      76              0.0000000000
      8649        76  SAPC      H20T          -13.9331978182       30.4393641558       -0.0648588419  MEMB      76              0.0000000000
      8650        76  SAPC      C33           -21.5246149029       32.7296997474       14.7043775521  MEMB      76              0.0000000000
      8651        76  SAPC      H3X           -21.8541304449       33.7936609003       14.6495917989  MEMB      76              0.0000000000
      8652        76  SAPC      H3Y           -22.3655909535       32.0976542471       14.3459216880  MEMB      76              0.0000000000
      8653        76  SAPC      C34           -20.3480869692       32.6192598893       13.7356627051  MEMB      76              0.0000000000
      8654        76  SAPC      H4X           -20.0873973062       31.5569732138       13.5447007587  MEMB      76              0.0000000000
      8655        76  SAPC      H4Y           -19.4778598886       33.1271289229       14.2199401861  MEMB      76              0.0000000000
      8656        76  SAPC      C35           -20.6613568825       33.2932019630       12.3847349037  MEMB      76              0.0000000000
      8657        76  SAPC      H5X           -19.7442827172       33.2543294312       11.7550241770  MEMB      76              0.0000000000
      8658        76  SAPC      H5Y           -20.8728016548       34.3645839359       12.6024307319  MEMB      76              0.0000000000
      8659        76  SAPC      C36           -21.8403908086       32.6735759987       11.5931989081  MEMB      76              0.0000000000
      8660        76  SAPC      H6X           -22.7776954584       32.6983880762       12.1917218470  MEMB      76              0.0000000000
      8661        76  SAPC      H6Y           -21.6518080693       31.6013189290       11.3769635084  MEMB      76              0.0000000000
      8662        76  SAPC      C37           -22.0920593250       33.3515802286       10.2354883353  MEMB      76              0.0000000000
      8663        76  SAPC      H7X           -22.2747512023       34.4413127557       10.4023557727  MEMB      76              0.0000000000
      8664        76  SAPC      H7Y           -23.0430819505       32.9679225737        9.8027719536  MEMB      76              0.0000000000
      8665        76  SAPC      C38           -20.9885407196       33.0209309345        9.1856901630  MEMB      76              0.0000000000
      8666        76  SAPC      H8X           -20.8489243722       31.9408659734        9.0624555164  MEMB      76              0.0000000000
      8667        76  SAPC      H8Y           -20.0297009218       33.4706317421        9.5313312864  MEMB      76              0.0000000000
      8668        76  SAPC      C39           -21.3816729728       33.4824244399        7.7775551777  MEMB      76              0.0000000000
      8669        76  SAPC      H9X           -21.8157712137       34.3842307359        8.2268657353  MEMB      76              0.0000000000
      8670        76  SAPC      H9Y           -22.3430557859       33.1650819786        7.3514947122  MEMB      76              0.0000000000
      8671        76  SAPC      C310          -20.2918594932       33.6151499724        6.6163890830  MEMB      76              0.0000000000
      8672        76  SAPC      H10X          -19.2847273573       34.0548260375        6.7695022117  MEMB      76              0.0000000000
      8673        76  SAPC      H10Y          -20.5963757176       34.2767784051        5.7664903726  MEMB      76              0.0000000000
      8674        76  SAPC      C311          -19.9993251510       32.3490999898        5.9631430937  MEMB      76              0.0000000000
      8675        76  SAPC      H11X          -20.8928799307       31.7233823875        6.1597516120  MEMB      76              0.0000000000
      8676        76  SAPC      H11Y          -19.0867330022       31.9668158897        6.4744328451  MEMB      76              0.0000000000
      8677        76  SAPC      C312          -19.8132652278       32.6031873783        4.4807844934  MEMB      76              0.0000000000
      8678        76  SAPC      H12X          -18.9062116047       33.2200784463        4.2844548347  MEMB      76              0.0000000000
      8679        76  SAPC      H12Y          -20.6937377897       33.1359349063        4.0371147930  MEMB      76              0.0000000000
      8680        76  SAPC      C313          -19.6233052775       31.2691502405        3.8498191586  MEMB      76              0.0000000000
      8681        76  SAPC      H13X          -20.4444252885       30.5709307827        4.1482602298  MEMB      76              0.0000000000
      8682        76  SAPC      H13Y          -18.6746232829       30.8241080138        4.2301715489  MEMB      76              0.0000000000
      8683        76  SAPC      C314          -19.4524508685       31.3518218659        2.3530107619  MEMB      76              0.0000000000
      8684        76  SAPC      H14X          -18.4606573977       31.7453114276        2.0832246292  MEMB      76              0.0000000000
      8685        76  SAPC      H14Y          -20.2597595899       31.9329308972        1.8339123429  MEMB      76              0.0000000000
      8686        76  SAPC      C315          -19.4330779645       29.9081130615        1.9380338813  MEMB      76              0.0000000000
      8687        76  SAPC      H15X          -20.5316636726       29.7549575575        2.1048292968  MEMB      76              0.0000000000
      8688        76  SAPC      H15Y          -19.0017394591       29.1947541412        2.6436691599  MEMB      76              0.0000000000
      8689        76  SAPC      C316          -18.7419033493       29.5031758923        0.5901708312  MEMB      76              0.0000000000
      8690        76  SAPC      H16X          -17.8220907296       29.9795785949        0.2842468007  MEMB      76              0.0000000000
      8691        76  SAPC      H16Y          -19.1552522002       30.4174086897        0.0036824975  MEMB      76              0.0000000000
      8692        76  SAPC      C317          -18.9300830113       27.7251530226        0.2504161072  MEMB      76              0.0000000000
      8693        76  SAPC      H17X          -18.3775767333       27.5181177792        1.1288570577  MEMB      76              0.0000000000
      8694        76  SAPC      H17Y          -18.2661508170       27.7164695174       -0.5452441891  MEMB      76              0.0000000000
      8695        76  SAPC      C318          -20.3202797649       26.4650574933       -0.0710731424  MEMB      76              0.0000000000
      8696        76  SAPC      H18X          -21.2556092247       26.6794222530       -0.7788976566  MEMB      76              0.0000000000
      8697        76  SAPC      H18Y          -21.2922131670       26.4821799359        0.5375042486  MEMB      76              0.0000000000
      8698        76  SAPC      H18Z          -20.1067709835       25.7027173759       -0.7446569124  MEMB      76              0.0000000000
      8699        77  OSM       N             -27.5403113816       22.5268872937       22.1786713727  MEMB      77              0.0000000000
      8700        77  OSM       C15           -26.5801926183       22.6239976436       21.0422401985  MEMB      77              0.0000000000
      8701        77  OSM       H15A          -25.5683098513       22.4599864249       21.4016850765  MEMB      77              0.0000000000
      8702        77  OSM       H15B          -26.6193739804       23.6088723703       20.5727369258  MEMB      77              0.0000000000
      8703        77  OSM       H15C          -26.8056424019       21.8874443263       20.2777412384  MEMB      77              0.0000000000
      8704        77  OSM       C14           -27.4809247096       21.1277710662       22.6853669201  MEMB      77              0.0000000000
      8705        77  OSM       H14A          -27.9962297150       21.0535303928       23.6332060047  MEMB      77              0.0000000000
      8706        77  OSM       H14B          -26.4492399532       20.8338807991       22.8385030607  MEMB      77              0.0000000000
      8707        77  OSM       H14C          -27.9172337627       20.4549188807       21.9610642066  MEMB      77              0.0000000000
      8708        77  OSM       C13           -27.0594960317       23.4237955622       23.2661270449  MEMB      77              0.0000000000
      8709        77  OSM       H13A          -26.1223669269       23.0662600514       23.6741358250  MEMB      77              0.0000000000
      8710        77  OSM       H13B          -27.7984533530       23.4629204507       24.0584810508  MEMB      77              0.0000000000
      8711        77  OSM       H13C          -26.9244259409       24.4315788023       22.9048518784  MEMB      77              0.0000000000
      8712        77  OSM       C12           -28.9694937570       22.8674625189       21.7833129416  MEMB      77              0.0000000000
      8713        77  OSM       H12A          -29.5958779051       22.5894799417       22.6167866788  MEMB      77              0.0000000000
      8714        77  OSM       H12B          -29.2324151208       22.2609641310       20.9292364767  MEMB      77              0.0000000000
      8715        77  OSM       C11           -29.3521601575       24.3141359754       21.3996873853  MEMB      77              0.0000000000
      8716        77  OSM       H11A          -28.9451557843       24.9958694104       22.1756122767  MEMB      77              0.0000000000
      8717        77  OSM       H11B          -30.4607774937       24.4039689875       21.3910151437  MEMB      77              0.0000000000
      8718        77  OSM       P             -28.2789660767       26.0365427967       19.7539707462  MEMB      77              0.0000000000
      8719        77  OSM       O13           -28.7651689509       26.9548898020       20.8232263574  MEMB      77              0.0000000000
      8720        77  OSM       O14           -26.8241429016       25.8258749750       19.5845219679  MEMB      77              0.0000000000
      8721        77  OSM       O11           -29.0127394476       26.3758585391       18.3930430064  MEMB      77              0.0000000000
      8722        77  OSM       O12           -28.8887755128       24.6217856059       20.1001629892  MEMB      77              0.0000000000
      8723        77  OSM       C1S           -29.2478610940       25.3852233188       17.3895993023  MEMB      77              0.0000000000
      8724        77  OSM       H1S           -30.2464615516       24.9368741259       17.6003563740  MEMB      77              0.0000000000
      8725        77  OSM       H1T           -28.4673088057       24.5976794322       17.3845428879  MEMB      77              0.0000000000
      8726        77  OSM       NF            -27.9689603408       26.3037759643       15.4298288682  MEMB      77              0.0000000000
      8727        77  OSM       HNF           -27.8199604611       27.2783952448       15.4900886558  MEMB      77              0.0000000000
      8728        77  OSM       C2S           -29.2599865487       25.9596743979       15.9287857263  MEMB      77              0.0000000000
      8729        77  OSM       H2S           -29.7016740843       25.1855897839       15.2551878422  MEMB      77              0.0000000000
      8730        77  OSM       C3S           -30.1087364384       27.1972326072       15.8993595886  MEMB      77              0.0000000000
      8731        77  OSM       H3S           -29.7301323969       28.0079619776       16.5461987567  MEMB      77              0.0000000000
      8732        77  OSM       O3            -31.3933364640       26.9812694594       16.4247600089  MEMB      77              0.0000000000
      8733        77  OSM       HO3           -31.5099929768       26.0263972593       16.4051709649  MEMB      77              0.0000000000
      8734        77  OSM       C4S           -30.2992624442       27.7182705902       14.5008122988  MEMB      77              0.0000000000
      8735        77  OSM       H4S           -29.8797985253       28.7126477636       14.3346038059  MEMB      77              0.0000000000
      8736        77  OSM       C5S           -30.8851018429       27.1024669341       13.4613132866  MEMB      77              0.0000000000
      8737        77  OSM       H5S           -31.5202572774       26.2267944220       13.7119458916  MEMB      77              0.0000000000
      8738        77  OSM       C6S           -31.1284340137       27.8167642677       12.1383213331  MEMB      77              0.0000000000
      8739        77  OSM       H6S           -30.8521377796       28.8951205791       12.1752109661  MEMB      77              0.0000000000
      8740        77  OSM       H6T           -32.2345814099       27.8767390668       11.8779191198  MEMB      77              0.0000000000
      8741        77  OSM       C7S           -30.4580371005       27.0844404635       11.0353928339  MEMB      77              0.0000000000
      8742        77  OSM       H7S           -31.0481458071       26.1681545528       10.7983168027  MEMB      77              0.0000000000
      8743        77  OSM       H7T           -29.4597979476       26.8037445200       11.4226443146  MEMB      77              0.0000000000
      8744        77  OSM       C8S           -30.2781225719       27.9237019880        9.7914602471  MEMB      77              0.0000000000
      8745        77  OSM       H8S           -29.4102432975       28.6130796027        9.9132707524  MEMB      77              0.0000000000
      8746        77  OSM       H8T           -31.1703134241       28.5773745293        9.6436890171  MEMB      77              0.0000000000
      8747        77  OSM       C9S           -30.0849724384       26.9919714930        8.5886628342  MEMB      77              0.0000000000
      8748        77  OSM       H9S           -31.0363274214       26.3974718195        8.4696358901  MEMB      77              0.0000000000
      8749        77  OSM       H9T           -29.1897206294       26.3642756600        8.6033598500  MEMB      77              0.0000000000
      8750        77  OSM       C10S          -29.8937964057       27.8318573771        7.3857653871  MEMB      77              0.0000000000
      8751        77  OSM       H10S          -29.4524910678       28.8273746811        7.6648802891  MEMB      77              0.0000000000
      8752        77  OSM       H10T          -30.9917230462       27.7845397282        7.2457496249  MEMB      77              0.0000000000
      8753        77  OSM       C11S          -29.4554556781       27.4303481068        5.9924078783  MEMB      77              0.0000000000
      8754        77  OSM       H11S          -29.8236898478       28.1533966041        5.2121620208  MEMB      77              0.0000000000
      8755        77  OSM       H11T          -29.8400517131       26.4507650606        5.6870714631  MEMB      77              0.0000000000
      8756        77  OSM       C12S          -27.9681559401       27.5448558134        5.9780452561  MEMB      77              0.0000000000
      8757        77  OSM       H12S          -27.5229625955       26.7239183430        6.5554894738  MEMB      77              0.0000000000
      8758        77  OSM       H12T          -27.7374923138       28.3980366171        6.5950771248  MEMB      77              0.0000000000
      8759        77  OSM       C13S          -27.4437063584       27.7951115089        4.5898943067  MEMB      77              0.0000000000
      8760        77  OSM       H13S          -26.3326296887       27.7708126891        4.5985886508  MEMB      77              0.0000000000
      8761        77  OSM       H13T          -27.7410371484       28.8156597821        4.2387101587  MEMB      77              0.0000000000
      8762        77  OSM       C14S          -28.0034458970       26.7702825980        3.6312451767  MEMB      77              0.0000000000
      8763        77  OSM       H14S          -29.0933856070       26.9426895624        3.4579770524  MEMB      77              0.0000000000
      8764        77  OSM       H14T          -27.8869932550       25.7378100576        4.0080313078  MEMB      77              0.0000000000
      8765        77  OSM       C15S          -27.1745426509       26.8462781955        2.3829412228  MEMB      77              0.0000000000
      8766        77  OSM       H15S          -26.1220797294       26.5888745978        2.5504539101  MEMB      77              0.0000000000
      8767        77  OSM       H15T          -27.1435423188       27.8991123188        2.1143357747  MEMB      77              0.0000000000
      8768        77  OSM       C16S          -27.7437808809       25.9828545316        1.3212493664  MEMB      77              0.0000000000
      8769        77  OSM       H16S          -27.7991826173       24.9166913811        1.6377394606  MEMB      77              0.0000000000
      8770        77  OSM       H16T          -27.0968224755       25.9998160884        0.4088218736  MEMB      77              0.0000000000
      8771        77  OSM       C17S          -29.1207459080       26.4703976525        1.0214490424  MEMB      77              0.0000000000
      8772        77  OSM       H17S          -29.4393190850       27.5232474948        1.0308781252  MEMB      77              0.0000000000
      8773        77  OSM       H17T          -29.8835485463       25.8818762565        1.6022255527  MEMB      77              0.0000000000
      8774        77  OSM       C18S          -29.1698483432       26.2098765609       -0.3715641184  MEMB      77              0.0000000000
      8775        77  OSM       H18S          -30.2706908586       26.4560112353       -0.3226609979  MEMB      77              0.0000000000
      8776        77  OSM       H18T          -28.9425566182       25.1123424460       -0.5092535041  MEMB      77              0.0000000000
      8777        77  OSM       H18U          -29.1714874303       26.7483035089       -1.3329489057  MEMB      77              0.0000000000
      8778        77  OSM       C1F           -26.9930117314       25.4606907466       15.1840303460  MEMB      77              0.0000000000
      8779        77  OSM       OF            -27.1967868462       24.2766444134       14.9639891524  MEMB      77              0.0000000000
      8780        77  OSM       C2F           -25.6244767486       26.0542604533       15.2495530623  MEMB      77              0.0000000000
      8781        77  OSM       H2F           -25.1396468025       25.6705871674       16.1768298724  MEMB      77              0.0000000000
      8782        77  OSM       H2G           -25.6759946021       27.1597085444       15.3097474751  MEMB      77              0.0000000000
      8783        77  OSM       C3F           -24.7918017716       25.6981825862       14.0069302029  MEMB      77              0.0000000000
      8784        77  OSM       H3F           -24.7831412874       24.6264774025       13.9725227990  MEMB      77              0.0000000000
      8785        77  OSM       H3G           -23.7391168130       26.0039328831       14.1701685030  MEMB      77              0.0000000000
      8786        77  OSM       C4F           -25.3664425610       26.1247539774       12.6356280963  MEMB      77              0.0000000000
      8787        77  OSM       H4F           -24.9982283392       27.1460970092       12.4553451925  MEMB      77              0.0000000000
      8788        77  OSM       H4G           -26.4760662488       26.1022362313       12.7030155376  MEMB      77              0.0000000000
      8789        77  OSM       C5F           -24.9972965240       25.1909276480       11.4611558489  MEMB      77              0.0000000000
      8790        77  OSM       H5F           -25.4675814778       24.2400800306       11.7312489314  MEMB      77              0.0000000000
      8791        77  OSM       H5G           -23.9009725023       25.0695571633       11.3991750205  MEMB      77              0.0000000000
      8792        77  OSM       C6F           -25.5845284537       25.3779439834       10.0593548153  MEMB      77              0.0000000000
      8793        77  OSM       H6F           -25.0767845168       24.6885722968        9.3361438570  MEMB      77              0.0000000000
      8794        77  OSM       H6G           -25.3805448832       26.4121803700        9.7372527028  MEMB      77              0.0000000000
      8795        77  OSM       C7F           -27.1028209830       25.1626708311        9.9806399928  MEMB      77              0.0000000000
      8796        77  OSM       H7F           -27.3708659273       25.1742372915        8.8984871267  MEMB      77              0.0000000000
      8797        77  OSM       H7G           -27.5812238557       26.0188271644       10.4953529637  MEMB      77              0.0000000000
      8798        77  OSM       C8F           -27.6743288510       23.9159941379       10.6702731410  MEMB      77              0.0000000000
      8799        77  OSM       H8F           -27.4195780695       23.9181398841       11.7534183014  MEMB      77              0.0000000000
      8800        77  OSM       H8G           -27.2395457646       23.0627187771       10.1413873203  MEMB      77              0.0000000000
      8801        77  OSM       C9F           -29.1430866467       23.8234710784       10.5063808271  MEMB      77              0.0000000000
      8802        77  OSM       H9F           -29.7417298317       24.1026243671       11.3922847857  MEMB      77              0.0000000000
      8803        77  OSM       C10F          -29.6993488105       23.3599219469        9.3762177251  MEMB      77              0.0000000000
      8804        77  OSM       H10F          -30.7605052833       23.3539978825        9.1639852312  MEMB      77              0.0000000000
      8805        77  OSM       C11F          -29.1538118615       22.8584642813        8.1248820567  MEMB      77              0.0000000000
      8806        77  OSM       H11F          -29.7846407557       21.9776066827        7.9600404868  MEMB      77              0.0000000000
      8807        77  OSM       H11G          -28.0837716950       22.6070987205        8.2107294224  MEMB      77              0.0000000000
      8808        77  OSM       C12F          -29.5775102290       23.6173753140        6.9012852236  MEMB      77              0.0000000000
      8809        77  OSM       H12F          -29.2484909082       24.6565297485        7.0532336788  MEMB      77              0.0000000000
      8810        77  OSM       H12G          -30.6963087011       23.6015459869        6.8257948959  MEMB      77              0.0000000000
      8811        77  OSM       C13F          -28.9297036463       23.0261642534        5.6484197487  MEMB      77              0.0000000000
      8812        77  OSM       H13F          -29.5329398200       23.4048455092        4.7967761099  MEMB      77              0.0000000000
      8813        77  OSM       H13G          -28.9698805942       21.9158819953        5.6494901201  MEMB      77              0.0000000000
      8814        77  OSM       C14F          -27.4627004175       23.4628242503        5.5140113835  MEMB      77              0.0000000000
      8815        77  OSM       H14F          -26.8594936570       23.0163756215        6.3332191847  MEMB      77              0.0000000000
      8816        77  OSM       H14G          -27.4215860942       24.5643195008        5.6536982474  MEMB      77              0.0000000000
      8817        77  OSM       C15F          -26.7952318116       23.0835384524        4.1901426421  MEMB      77              0.0000000000
      8818        77  OSM       H15F          -27.4965787375       23.1859592492        3.3322597673  MEMB      77              0.0000000000
      8819        77  OSM       H15G          -26.4628801198       22.0188363421        4.2327948527  MEMB      77              0.0000000000
      8820        77  OSM       C16F          -25.5346883938       23.9002538493        3.9189182697  MEMB      77              0.0000000000
      8821        77  OSM       H16F          -24.8175352941       23.6727904242        4.7451837143  MEMB      77              0.0000000000
      8822        77  OSM       H16G          -25.6858195221       24.9931521642        3.8659459247  MEMB      77              0.0000000000
      8823        77  OSM       C17F          -24.9456818130       23.4892466881        2.5893126239  MEMB      77              0.0000000000
      8824        77  OSM       H17F          -25.6843350440       23.4009624786        1.7696874527  MEMB      77              0.0000000000
      8825        77  OSM       H17G          -24.7446924694       22.4144757563        2.8269456348  MEMB      77              0.0000000000
      8826        77  OSM       C18F          -23.7961973993       24.4339929922        2.1191977933  MEMB      77              0.0000000000
      8827        77  OSM       H18F          -22.9304592257       24.4858206645        2.8205106276  MEMB      77              0.0000000000
      8828        77  OSM       H18G          -24.1555430789       25.4213554580        1.8124143506  MEMB      77              0.0000000000
      8829        77  OSM       H18H          -23.3448499867       24.1485153097        1.1601035937  MEMB      77              0.0000000000
      8830        78  SAPS      N              19.1644300777       32.8485212413       22.0677261040  MEMB      78              0.0000000000
      8831        78  SAPS      HN1            19.2498566395       33.7748619878       22.5452253047  MEMB      78              0.0000000000
      8832        78  SAPS      HN2            18.1951646517       32.5165368084       21.9464012733  MEMB      78              0.0000000000
      8833        78  SAPS      HN3            19.6904293654       32.1375988972       22.6110538033  MEMB      78              0.0000000000
      8834        78  SAPS      C12            19.6873225543       33.0088127148       20.6874786951  MEMB      78              0.0000000000
      8835        78  SAPS      H12A           19.0184133504       33.7047168094       20.2104785979  MEMB      78              0.0000000000
      8836        78  SAPS      C13            21.0889279165       33.6279547848       20.6306800158  MEMB      78              0.0000000000
      8837        78  SAPS      O13A           21.6617286109       33.8726678780       21.7315640747  MEMB      78              0.0000000000
      8838        78  SAPS      O13B           21.6564550240       33.6467448302       19.5147128038  MEMB      78              0.0000000000
      8839        78  SAPS      C11            19.7173000979       31.6265369134       19.9748754630  MEMB      78              0.0000000000
      8840        78  SAPS      H11A           20.5917708034       31.0783404478       20.3776900908  MEMB      78              0.0000000000
      8841        78  SAPS      H11B           19.9197915431       31.7815278318       18.8852938963  MEMB      78              0.0000000000
      8842        78  SAPS      P              17.8237493930       30.0333732078       19.0740691316  MEMB      78              0.0000000000
      8843        78  SAPS      O13            18.7949601755       29.2383889573       18.2942312271  MEMB      78              0.0000000000
      8844        78  SAPS      O14            16.5996412237       29.4809892701       19.6794239538  MEMB      78              0.0000000000
      8845        78  SAPS      O12            18.5432896959       30.8541771084       20.2334033265  MEMB      78              0.0000000000
      8846        78  SAPS      O11            17.4135389016       31.2683824815       18.1883855837  MEMB      78              0.0000000000
      8847        78  SAPS      C1             16.4533509032       32.1962572811       18.6504236888  MEMB      78              0.0000000000
      8848        78  SAPS      HA             15.5437509309       31.6100059822       18.7021133490  MEMB      78              0.0000000000
      8849        78  SAPS      HB             16.7154373297       32.6469134644       19.6377771955  MEMB      78              0.0000000000
      8850        78  SAPS      C2             16.0473352743       33.2580161144       17.5993253162  MEMB      78              0.0000000000
      8851        78  SAPS      HS             15.0586642516       33.6939628726       17.9325776273  MEMB      78              0.0000000000
      8852        78  SAPS      O21            16.0097757599       32.7241648755       16.2689978834  MEMB      78              0.0000000000
      8853        78  SAPS      C21            14.9312138671       32.0414093407       16.0723306109  MEMB      78              0.0000000000
      8854        78  SAPS      O22            13.9956524687       32.0240765369       16.8657344433  MEMB      78              0.0000000000
      8855        78  SAPS      C22            14.9554105590       31.5693178668       14.5970023122  MEMB      78              0.0000000000
      8856        78  SAPS      H2R            15.9832552291       31.6850971598       14.2160310849  MEMB      78              0.0000000000
      8857        78  SAPS      H2S            14.8650379407       30.4991033080       14.4398124013  MEMB      78              0.0000000000
      8858        78  SAPS      C3             17.0361834417       34.3853694185       17.5157548973  MEMB      78              0.0000000000
      8859        78  SAPS      HX             17.1172308507       34.8724541908       18.5033209965  MEMB      78              0.0000000000
      8860        78  SAPS      HY             16.5908493782       35.1045772554       16.7867481195  MEMB      78              0.0000000000
      8861        78  SAPS      O31            18.3430413263       33.9131116553       17.1403483398  MEMB      78              0.0000000000
      8862        78  SAPS      C31            18.7927594000       34.1835044729       15.9073567115  MEMB      78              0.0000000000
      8863        78  SAPS      O32            18.2693923420       34.8840434664       15.0774389977  MEMB      78              0.0000000000
      8864        78  SAPS      C32            20.0662957168       33.4624082774       15.5741779547  MEMB      78              0.0000000000
      8865        78  SAPS      H2X            20.8610901203       33.9034479049       16.2057870853  MEMB      78              0.0000000000
      8866        78  SAPS      H2Y            20.3308257742       33.6804316747       14.5141723606  MEMB      78              0.0000000000
      8867        78  SAPS      C23            13.9002145144       32.3636626094       13.7727906126  MEMB      78              0.0000000000
      8868        78  SAPS      H3R            14.1257003398       33.4320538606       13.9021376324  MEMB      78              0.0000000000
      8869        78  SAPS      H3S            12.8618721151       32.2924733873       14.1485071513  MEMB      78              0.0000000000
      8870        78  SAPS      C24            13.8387516260       32.0787861063       12.2690516760  MEMB      78              0.0000000000
      8871        78  SAPS      H4R            13.0690678592       32.7164769803       11.7926445128  MEMB      78              0.0000000000
      8872        78  SAPS      H4S            13.2816227896       31.2280719269       12.0426703956  MEMB      78              0.0000000000
      8873        78  SAPS      C25            15.2122072452       31.9589113799       11.6509098008  MEMB      78              0.0000000000
      8874        78  SAPS      H5R            15.8617963234       32.7524666268       11.9819983314  MEMB      78              0.0000000000
      8875        78  SAPS      C26            15.7629216007       31.0859616595       10.7799223272  MEMB      78              0.0000000000
      8876        78  SAPS      H6R            16.7841359133       31.2012838336       10.4292977383  MEMB      78              0.0000000000
      8877        78  SAPS      C27            15.1368609741       29.9378641036       10.1381437355  MEMB      78              0.0000000000
      8878        78  SAPS      H7R            15.2521388109       29.8334864921        9.0310696442  MEMB      78              0.0000000000
      8879        78  SAPS      H7S            14.1711515006       30.3550774002       10.0922625626  MEMB      78              0.0000000000
      8880        78  SAPS      C28            15.0359486778       28.6527466683       10.8700468478  MEMB      78              0.0000000000
      8881        78  SAPS      H8R            14.8648572050       28.5160434416       11.9346264774  MEMB      78              0.0000000000
      8882        78  SAPS      C29            15.2952679909       27.5764677010       10.2778200470  MEMB      78              0.0000000000
      8883        78  SAPS      H9R            15.1676809468       26.7172883882       10.9350305609  MEMB      78              0.0000000000
      8884        78  SAPS      C210           15.7609647346       27.4807513022        8.8714108526  MEMB      78              0.0000000000
      8885        78  SAPS      H10R           15.1315592598       27.8546957134        8.0603990341  MEMB      78              0.0000000000
      8886        78  SAPS      H10S           15.6315937123       26.4042120391        8.5854300233  MEMB      78              0.0000000000
      8887        78  SAPS      C211           17.1952984628       28.0995227979        8.9420028716  MEMB      78              0.0000000000
      8888        78  SAPS      H11R           17.9355149457       27.5827101415        9.5872390651  MEMB      78              0.0000000000
      8889        78  SAPS      C212           17.8075020995       28.7767866114        7.9710961708  MEMB      78              0.0000000000
      8890        78  SAPS      H12R           18.9143667546       28.7031290843        7.9307886061  MEMB      78              0.0000000000
      8891        78  SAPS      C213           17.1523659131       29.0407153871        6.6657650545  MEMB      78              0.0000000000
      8892        78  SAPS      H13R           17.0230713372       30.1258538250        6.6843587640  MEMB      78              0.0000000000
      8893        78  SAPS      H13S           16.1267357256       28.6259137122        6.5834168595  MEMB      78              0.0000000000
      8894        78  SAPS      C214           17.9991582538       28.6475078318        5.4928039437  MEMB      78              0.0000000000
      8895        78  SAPS      H14R           19.0578502738       28.9361062286        5.5328846229  MEMB      78              0.0000000000
      8896        78  SAPS      C215           17.5350916469       28.2104150169        4.3229028861  MEMB      78              0.0000000000
      8897        78  SAPS      H15R           18.2582469573       27.9069713256        3.5462911443  MEMB      78              0.0000000000
      8898        78  SAPS      C216           16.0874214111       28.0420313602        3.9906681603  MEMB      78              0.0000000000
      8899        78  SAPS      H16R           15.3279535692       28.1988616230        4.7736099556  MEMB      78              0.0000000000
      8900        78  SAPS      H16S           15.9467510172       27.0388907841        3.8636703840  MEMB      78              0.0000000000
      8901        78  SAPS      C217           15.6076899437       28.3304550668        2.6059851755  MEMB      78              0.0000000000
      8902        78  SAPS      H17R           15.5043363250       29.4257054921        2.5958963097  MEMB      78              0.0000000000
      8903        78  SAPS      H17S           14.6077357882       27.8286676176        2.4741624501  MEMB      78              0.0000000000
      8904        78  SAPS      C218           16.5395566398       27.8357725151        1.5057648952  MEMB      78              0.0000000000
      8905        78  SAPS      H18R           16.6527548210       26.7315673823        1.4098722678  MEMB      78              0.0000000000
      8906        78  SAPS      H18S           17.5362580884       28.2929466281        1.5500642454  MEMB      78              0.0000000000
      8907        78  SAPS      C219           15.9082907002       28.2701947524        0.2649894020  MEMB      78              0.0000000000
      8908        78  SAPS      H19R           15.9573002161       29.3786431400        0.1148297989  MEMB      78              0.0000000000
      8909        78  SAPS      H19S           14.8430063889       28.0130395062        0.5236049710  MEMB      78              0.0000000000
      8910        78  SAPS      C220           16.4039678685       27.4689215419       -0.9327092574  MEMB      78              0.0000000000
      8911        78  SAPS      H20R           16.3539945868       26.3864989635       -0.7973635586  MEMB      78              0.0000000000
      8912        78  SAPS      H20S           17.3492389967       27.8783730830       -1.2583741493  MEMB      78              0.0000000000
      8913        78  SAPS      H20T           15.8391029320       27.5001766549       -1.8431716538  MEMB      78              0.0000000000
      8914        78  SAPS      C33            19.8625843869       31.9801735347       15.8992981213  MEMB      78              0.0000000000
      8915        78  SAPS      H3X            19.2085520786       31.8718484185       16.7902857816  MEMB      78              0.0000000000
      8916        78  SAPS      H3Y            20.8394928220       31.5542208759       16.2010695562  MEMB      78              0.0000000000
      8917        78  SAPS      C34            19.2081759855       31.1326349413       14.8072872503  MEMB      78              0.0000000000
      8918        78  SAPS      H4X            18.5484857012       31.7350985892       14.1446408037  MEMB      78              0.0000000000
      8919        78  SAPS      H4Y            18.5762268766       30.3642769165       15.3196738133  MEMB      78              0.0000000000
      8920        78  SAPS      C35            20.2737284677       30.3858695820       14.0258955248  MEMB      78              0.0000000000
      8921        78  SAPS      H5X            20.8833499824       29.8085839057       14.7612838327  MEMB      78              0.0000000000
      8922        78  SAPS      H5Y            20.9262392155       31.1394714847       13.5318738413  MEMB      78              0.0000000000
      8923        78  SAPS      C36            19.6853805022       29.3751674951       13.0484232882  MEMB      78              0.0000000000
      8924        78  SAPS      H6X            18.8864298094       29.7953604812       12.3962814192  MEMB      78              0.0000000000
      8925        78  SAPS      H6Y            19.2439169340       28.5561674847       13.6430898117  MEMB      78              0.0000000000
      8926        78  SAPS      C37            20.7242306824       28.7507774244       12.1623398218  MEMB      78              0.0000000000
      8927        78  SAPS      H7X            20.2705042682       27.9411709580       11.5468079828  MEMB      78              0.0000000000
      8928        78  SAPS      H7Y            21.6394470583       28.4427886493       12.7225518631  MEMB      78              0.0000000000
      8929        78  SAPS      C38            21.2259549539       29.7355272468       11.1952891369  MEMB      78              0.0000000000
      8930        78  SAPS      H8X            21.7171740095       29.1053032514       10.4039564003  MEMB      78              0.0000000000
      8931        78  SAPS      H8Y            22.0076682318       30.3040971038       11.7501242075  MEMB      78              0.0000000000
      8932        78  SAPS      C39            20.1995392822       30.7236049808       10.6532436740  MEMB      78              0.0000000000
      8933        78  SAPS      H9X            20.0210146770       31.6305135948       11.2699562739  MEMB      78              0.0000000000
      8934        78  SAPS      H9Y            19.3993146652       30.2006783824       10.0872836564  MEMB      78              0.0000000000
      8935        78  SAPS      C310           20.4443231659       31.3403997828        9.3838957657  MEMB      78              0.0000000000
      8936        78  SAPS      H10X           20.9614078117       30.5330548796        8.8261649841  MEMB      78              0.0000000000
      8937        78  SAPS      H10Y           21.4267258735       31.4130039825        9.2674758712  MEMB      78              0.0000000000
      8938        78  SAPS      C311           19.9103190455       32.8227650604        9.1740040791  MEMB      78              0.0000000000
      8939        78  SAPS      H11X           20.2972784836       33.4787788032        8.3777282577  MEMB      78              0.0000000000
      8940        78  SAPS      H11Y           20.1040002309       33.5384422089        9.9875955919  MEMB      78              0.0000000000
      8941        78  SAPS      C312           18.7131778477       32.8240711875        8.2673430748  MEMB      78              0.0000000000
      8942        78  SAPS      H12X           18.0386383957       32.4639218524        9.0347410027  MEMB      78              0.0000000000
      8943        78  SAPS      H12Y           18.8202170130       32.0040784143        7.5330082192  MEMB      78              0.0000000000
      8944        78  SAPS      C313           18.4696504363       34.1523267856        7.4912792697  MEMB      78              0.0000000000
      8945        78  SAPS      H13X           19.2595402326       34.4511032556        6.7475109481  MEMB      78              0.0000000000
      8946        78  SAPS      H13Y           18.4369677834       34.9623707219        8.2430246821  MEMB      78              0.0000000000
      8947        78  SAPS      C314           17.1282492324       34.1517655076        6.7813262135  MEMB      78              0.0000000000
      8948        78  SAPS      H14X           16.6010140830       35.0994611569        6.9815552692  MEMB      78              0.0000000000
      8949        78  SAPS      H14Y           16.5488054278       33.2613645392        7.1173625485  MEMB      78              0.0000000000
      8950        78  SAPS      C315           17.2450190667       33.9956587873        5.2871149712  MEMB      78              0.0000000000
      8951        78  SAPS      H15X           17.7750046865       33.0257246535        5.3257071370  MEMB      78              0.0000000000
      8952        78  SAPS      H15Y           17.8484923518       34.8414347840        4.8743550221  MEMB      78              0.0000000000
      8953        78  SAPS      C316           15.8688898569       33.7873280205        4.6252285532  MEMB      78              0.0000000000
      8954        78  SAPS      H16X           15.3418374858       34.7275684901        4.8698586521  MEMB      78              0.0000000000
      8955        78  SAPS      H16Y           15.4678715843       32.8360596961        5.0170564562  MEMB      78              0.0000000000
      8956        78  SAPS      C317           15.7176059122       33.6198403979        3.1275816365  MEMB      78              0.0000000000
      8957        78  SAPS      H17X           16.3583262142       32.7321547067        2.8147683114  MEMB      78              0.0000000000
      8958        78  SAPS      H17Y           16.0347046150       34.6519529388        2.7707169963  MEMB      78              0.0000000000
      8959        78  SAPS      C318           14.5205335567       33.4191353706        2.3387329831  MEMB      78              0.0000000000
      8960        78  SAPS      H18X           14.0950705047       32.5048468266        2.7754897036  MEMB      78              0.0000000000
      8961        78  SAPS      H18Y           14.8362782729       33.2456109618        1.2756809012  MEMB      78              0.0000000000
      8962        78  SAPS      H18Z           14.0093728127       34.3969605737        2.4618900777  MEMB      78              0.0000000000
      8963        79  SAPS      N             -37.2754349138       -7.2658951560       21.5467610952  MEMB      79              0.0000000000
      8964        79  SAPS      HN1           -37.1135958838       -6.2654053166       21.7832319344  MEMB      79              0.0000000000
      8965        79  SAPS      HN2           -37.9938029599       -7.3027798654       20.8010757491  MEMB      79              0.0000000000
      8966        79  SAPS      HN3           -37.6003370063       -7.7203691533       22.4238611945  MEMB      79              0.0000000000
      8967        79  SAPS      C12           -36.0163831145       -7.8756702455       21.0480026868  MEMB      79              0.0000000000
      8968        79  SAPS      H12A          -35.7227868901       -7.2785657022       20.2071182339  MEMB      79              0.0000000000
      8969        79  SAPS      C13           -34.8104440847       -7.8562543311       22.0349090653  MEMB      79              0.0000000000
      8970        79  SAPS      O13A          -34.9153517239       -7.2747005462       23.1494019492  MEMB      79              0.0000000000
      8971        79  SAPS      O13B          -33.7465523486       -8.3970256754       21.6427290157  MEMB      79              0.0000000000
      8972        79  SAPS      C11           -36.3143173632       -9.3034830661       20.4786729865  MEMB      79              0.0000000000
      8973        79  SAPS      H11A          -36.6228921914       -9.9782231679       21.3047507491  MEMB      79              0.0000000000
      8974        79  SAPS      H11B          -35.3631485190       -9.6621337205       20.0350456113  MEMB      79              0.0000000000
      8975        79  SAPS      P             -36.9482081271       -9.3600836671       17.9024498031  MEMB      79              0.0000000000
      8976        79  SAPS      O13           -35.8472691043       -8.4204065067       17.6955006998  MEMB      79              0.0000000000
      8977        79  SAPS      O14           -36.9179701948      -10.7497610701       17.4466463417  MEMB      79              0.0000000000
      8978        79  SAPS      O12           -37.3294331373       -9.3394746732       19.4814480301  MEMB      79              0.0000000000
      8979        79  SAPS      O11           -38.1837307513       -8.6868823698       17.3272335607  MEMB      79              0.0000000000
      8980        79  SAPS      C1            -39.3433547308       -8.7924788553       18.0886149054  MEMB      79              0.0000000000
      8981        79  SAPS      HA            -39.6604140123       -9.8451222769       18.3167550299  MEMB      79              0.0000000000
      8982        79  SAPS      HB            -39.1319485959       -8.2115373026       19.0060912796  MEMB      79              0.0000000000
      8983        79  SAPS      C2            -40.4661895372       -8.1170069486       17.3609161949  MEMB      79              0.0000000000
      8984        79  SAPS      HS            -41.4698749843       -8.4199917606       17.7086102417  MEMB      79              0.0000000000
      8985        79  SAPS      O21           -40.2524597727       -8.3168705606       15.9623780943  MEMB      79              0.0000000000
      8986        79  SAPS      C21           -39.9968725442       -9.5605299573       15.4944437611  MEMB      79              0.0000000000
      8987        79  SAPS      O22           -40.0681623467      -10.6069526506       16.1145635111  MEMB      79              0.0000000000
      8988        79  SAPS      C22           -39.8511438294       -9.5035900928       13.9742126880  MEMB      79              0.0000000000
      8989        79  SAPS      H2R           -40.6429199316       -9.9151145153       13.3547232736  MEMB      79              0.0000000000
      8990        79  SAPS      H2S           -39.8060872978       -8.4965567321       13.5628336163  MEMB      79              0.0000000000
      8991        79  SAPS      C3            -40.4693119697       -6.6791396646       17.7814093125  MEMB      79              0.0000000000
      8992        79  SAPS      HX            -40.8025281401       -6.4940375070       18.8088820223  MEMB      79              0.0000000000
      8993        79  SAPS      HY            -41.2590547832       -6.1503561864       17.1744041092  MEMB      79              0.0000000000
      8994        79  SAPS      O31           -39.0974196154       -6.2872095780       17.6420531082  MEMB      79              0.0000000000
      8995        79  SAPS      C31           -38.5142707715       -5.5632221430       18.5529663195  MEMB      79              0.0000000000
      8996        79  SAPS      O32           -38.9442453844       -5.4153343736       19.6875243680  MEMB      79              0.0000000000
      8997        79  SAPS      C32           -37.1200741435       -5.1912130306       18.0253014806  MEMB      79              0.0000000000
      8998        79  SAPS      H2X           -36.4021981685       -5.8549113626       18.5480902755  MEMB      79              0.0000000000
      8999        79  SAPS      H2Y           -36.8796555816       -4.1289985242       18.2245302478  MEMB      79              0.0000000000
      9000        79  SAPS      C23           -38.8488363529      -10.4241234551       13.4988652170  MEMB      79              0.0000000000
      9001        79  SAPS      H3R           -39.3370926975      -11.0541400868       12.7343392657  MEMB      79              0.0000000000
      9002        79  SAPS      H3S           -38.7036730226      -11.0981844520       14.3689220159  MEMB      79              0.0000000000
      9003        79  SAPS      C24           -37.7312222131       -9.5268391782       12.9423306762  MEMB      79              0.0000000000
      9004        79  SAPS      H4R           -37.4801128612       -8.8910285521       13.8215931615  MEMB      79              0.0000000000
      9005        79  SAPS      H4S           -38.2565358723       -8.9378781573       12.1730132112  MEMB      79              0.0000000000
      9006        79  SAPS      C25           -36.5249424986      -10.0968194810       12.2348260302  MEMB      79              0.0000000000
      9007        79  SAPS      H5R           -36.7569934172      -10.7910356144       11.4360570376  MEMB      79              0.0000000000
      9008        79  SAPS      C26           -35.2603386603      -10.2404570462       12.6213529615  MEMB      79              0.0000000000
      9009        79  SAPS      H6R           -34.8106366256      -11.1986267226       12.2793083165  MEMB      79              0.0000000000
      9010        79  SAPS      C27           -34.7037299397       -9.8236879313       13.9351593895  MEMB      79              0.0000000000
      9011        79  SAPS      H7R           -35.0755043713      -10.3732025684       14.8442830444  MEMB      79              0.0000000000
      9012        79  SAPS      H7S           -35.0496203171       -8.7864411124       14.0233563924  MEMB      79              0.0000000000
      9013        79  SAPS      C28           -33.2168783038       -9.9331282586       13.7257052893  MEMB      79              0.0000000000
      9014        79  SAPS      H8R           -32.7243962929      -10.8545007058       14.0846956517  MEMB      79              0.0000000000
      9015        79  SAPS      C29           -32.4742660618       -9.0081260372       13.0926287557  MEMB      79              0.0000000000
      9016        79  SAPS      H9R           -31.4046470743       -9.1955255795       13.0076074374  MEMB      79              0.0000000000
      9017        79  SAPS      C210          -32.8989027725       -7.6954477680       12.4734362957  MEMB      79              0.0000000000
      9018        79  SAPS      H10R          -31.9781436647       -7.2836812150       12.0125526912  MEMB      79              0.0000000000
      9019        79  SAPS      H10S          -33.1060567843       -7.0341421452       13.3395329036  MEMB      79              0.0000000000
      9020        79  SAPS      C211          -34.0166390254       -7.4697327437       11.4678277603  MEMB      79              0.0000000000
      9021        79  SAPS      H11R          -34.9134999518       -6.9999504347       11.8984633687  MEMB      79              0.0000000000
      9022        79  SAPS      C212          -34.0295960716       -7.7065952781       10.1383107004  MEMB      79              0.0000000000
      9023        79  SAPS      H12R          -34.8926173171       -7.3305596832        9.5609565915  MEMB      79              0.0000000000
      9024        79  SAPS      C213          -32.9033952675       -8.2711872592        9.3065020145  MEMB      79              0.0000000000
      9025        79  SAPS      H13R          -31.9497137389       -8.1452408053        9.8564527140  MEMB      79              0.0000000000
      9026        79  SAPS      H13S          -32.7986377489       -7.6465014482        8.3929266806  MEMB      79              0.0000000000
      9027        79  SAPS      C214          -33.0092447211       -9.7337576349        8.9438486159  MEMB      79              0.0000000000
      9028        79  SAPS      H14R          -32.9226957837      -10.4381207304        9.7895297553  MEMB      79              0.0000000000
      9029        79  SAPS      C215          -33.1998705172      -10.2472307061        7.7146098195  MEMB      79              0.0000000000
      9030        79  SAPS      H15R          -33.2709158960      -11.3422985867        7.6462649279  MEMB      79              0.0000000000
      9031        79  SAPS      C216          -33.3610998863       -9.4975364631        6.4041807660  MEMB      79              0.0000000000
      9032        79  SAPS      H16R          -33.8011083033       -8.4866868388        6.5572784866  MEMB      79              0.0000000000
      9033        79  SAPS      H16S          -34.1026820954      -10.0423475350        5.7801460461  MEMB      79              0.0000000000
      9034        79  SAPS      C217          -32.0466762290       -9.3360776440        5.6011446681  MEMB      79              0.0000000000
      9035        79  SAPS      H17R          -31.5697237216      -10.3382404960        5.4899944937  MEMB      79              0.0000000000
      9036        79  SAPS      H17S          -31.3446615440       -8.6750202206        6.1446673545  MEMB      79              0.0000000000
      9037        79  SAPS      C218          -32.1999115840       -8.7341654630        4.2017000110  MEMB      79              0.0000000000
      9038        79  SAPS      H18R          -31.1997006231       -8.5720881272        3.7309336318  MEMB      79              0.0000000000
      9039        79  SAPS      H18S          -32.7576348334       -7.7777445231        4.1659705094  MEMB      79              0.0000000000
      9040        79  SAPS      C219          -32.8680690689       -9.7084653616        3.3158181947  MEMB      79              0.0000000000
      9041        79  SAPS      H19R          -33.9762148645       -9.8027580507        3.4682598209  MEMB      79              0.0000000000
      9042        79  SAPS      H19S          -32.4430059000      -10.6941787039        3.4729590945  MEMB      79              0.0000000000
      9043        79  SAPS      C220          -32.5168154041       -9.5187482451        1.8948836795  MEMB      79              0.0000000000
      9044        79  SAPS      H20R          -32.7521593553       -8.5433365817        1.4286438505  MEMB      79              0.0000000000
      9045        79  SAPS      H20S          -33.3082270386      -10.2417562464        1.7229984132  MEMB      79              0.0000000000
      9046        79  SAPS      H20T          -31.6265106311      -10.0157236422        1.4596863113  MEMB      79              0.0000000000
      9047        79  SAPS      C33           -36.9874881015       -5.4075780535       16.5090625845  MEMB      79              0.0000000000
      9048        79  SAPS      H3X           -37.7240340405       -4.7588083200       16.0006025962  MEMB      79              0.0000000000
      9049        79  SAPS      H3Y           -37.2099473060       -6.4602183878       16.2152494001  MEMB      79              0.0000000000
      9050        79  SAPS      C34           -35.6228246160       -5.0695363568       15.9421732176  MEMB      79              0.0000000000
      9051        79  SAPS      H4X           -34.8723918045       -5.7546320932       16.3911484605  MEMB      79              0.0000000000
      9052        79  SAPS      H4Y           -35.3320247436       -4.0368125037       16.2354191210  MEMB      79              0.0000000000
      9053        79  SAPS      C35           -35.7588501568       -5.2524855003       14.4313311660  MEMB      79              0.0000000000
      9054        79  SAPS      H5X           -36.2700806587       -6.1982598734       14.1754203123  MEMB      79              0.0000000000
      9055        79  SAPS      H5Y           -34.7542494094       -5.2665751862       13.9478712858  MEMB      79              0.0000000000
      9056        79  SAPS      C36           -36.6233565694       -4.1452013936       13.8298220259  MEMB      79              0.0000000000
      9057        79  SAPS      H6X           -35.8855480018       -3.4690961606       13.9491797210  MEMB      79              0.0000000000
      9058        79  SAPS      H6Y           -37.4298475137       -3.6715101611       14.4149573895  MEMB      79              0.0000000000
      9059        79  SAPS      C37           -36.8212498868       -4.1844900781       12.3442504992  MEMB      79              0.0000000000
      9060        79  SAPS      H7X           -35.9417974104       -4.6656929793       11.8899031467  MEMB      79              0.0000000000
      9061        79  SAPS      H7Y           -36.9884972739       -3.1817908626       11.8608830466  MEMB      79              0.0000000000
      9062        79  SAPS      C38           -38.0387770830       -5.0145825141       12.2325637235  MEMB      79              0.0000000000
      9063        79  SAPS      H8X           -38.7547617510       -4.2051983099       12.5170951901  MEMB      79              0.0000000000
      9064        79  SAPS      H8Y           -38.1028042461       -5.8127271342       13.0095481522  MEMB      79              0.0000000000
      9065        79  SAPS      C39           -38.2717028141       -5.6076090207       10.8474177582  MEMB      79              0.0000000000
      9066        79  SAPS      H9X           -37.3591953470       -6.1718145024       10.6041810450  MEMB      79              0.0000000000
      9067        79  SAPS      H9Y           -38.3743926455       -4.7371208270       10.1753301433  MEMB      79              0.0000000000
      9068        79  SAPS      C310          -39.3162050613       -6.7278828747       10.6508544609  MEMB      79              0.0000000000
      9069        79  SAPS      H10X          -40.3568961739       -6.5905674516       10.7299275621  MEMB      79              0.0000000000
      9070        79  SAPS      H10Y          -39.3156138299       -7.4631172700       11.4593140562  MEMB      79              0.0000000000
      9071        79  SAPS      C311          -39.6863824651       -6.9893238464        9.2185472332  MEMB      79              0.0000000000
      9072        79  SAPS      H11X          -39.9889117496       -6.0778034484        8.6593160950  MEMB      79              0.0000000000
      9073        79  SAPS      H11Y          -40.5768644145       -7.6366296375        9.2362440945  MEMB      79              0.0000000000
      9074        79  SAPS      C312          -38.5064906301       -7.6211348039        8.6368487977  MEMB      79              0.0000000000
      9075        79  SAPS      H12X          -38.2428786634       -8.4178808752        9.3819881883  MEMB      79              0.0000000000
      9076        79  SAPS      H12Y          -37.7425140178       -6.8306500483        8.5918805182  MEMB      79              0.0000000000
      9077        79  SAPS      C313          -38.6753505262       -8.0877552778        7.2240628405  MEMB      79              0.0000000000
      9078        79  SAPS      H13X          -38.7309440803       -7.3340115610        6.4471091486  MEMB      79              0.0000000000
      9079        79  SAPS      H13Y          -39.7201109072       -8.2426630825        7.0021091884  MEMB      79              0.0000000000
      9080        79  SAPS      C314          -37.6593397849       -9.1809540894        6.9326198891  MEMB      79              0.0000000000
      9081        79  SAPS      H14X          -37.5332797068       -9.9915677467        7.6287944960  MEMB      79              0.0000000000
      9082        79  SAPS      H14Y          -36.6591380751       -8.7505170831        7.0885835534  MEMB      79              0.0000000000
      9083        79  SAPS      C315          -37.8331452311       -9.7678586621        5.5636345711  MEMB      79              0.0000000000
      9084        79  SAPS      H15X          -38.9018957142       -9.9259439137        5.2948186258  MEMB      79              0.0000000000
      9085        79  SAPS      H15Y          -37.3345385602      -10.7580381585        5.5204186466  MEMB      79              0.0000000000
      9086        79  SAPS      C316          -37.1777886727       -8.7602538283        4.6570854231  MEMB      79              0.0000000000
      9087        79  SAPS      H16X          -36.1157753191       -8.5779162270        4.9658041799  MEMB      79              0.0000000000
      9088        79  SAPS      H16Y          -37.7817699198       -7.8409188874        4.7022945638  MEMB      79              0.0000000000
      9089        79  SAPS      C317          -37.0903771991       -9.2625544221        3.2559819971  MEMB      79              0.0000000000
      9090        79  SAPS      H17X          -38.0635638432       -9.7537757213        3.0730363039  MEMB      79              0.0000000000
      9091        79  SAPS      H17Y          -36.1871185053       -9.8914183409        3.4552026663  MEMB      79              0.0000000000
      9092        79  SAPS      C318          -36.6524940089       -8.6339431532        1.9221567529  MEMB      79              0.0000000000
      9093        79  SAPS      H18X          -36.3924014197       -9.2339403930        1.0401299924  MEMB      79              0.0000000000
      9094        79  SAPS      H18Y          -35.6920459390       -8.1170962160        2.1516714982  MEMB      79              0.0000000000
      9095        79  SAPS      H18Z          -37.5241598685       -7.9978451134        1.6453663259  MEMB      79              0.0000000000
      9096        80  CHL1      C3             14.2416826679      -34.3204804618       17.2586747407  MEMB      80              0.0000000000
      9097        80  CHL1      H3             15.3329734206      -34.1962820627       17.0808209749  MEMB      80              0.0000000000
      9098        80  CHL1      O3             14.0526467780      -34.6579215107       18.6247847652  MEMB      80              0.0000000000
      9099        80  CHL1      H3'            13.1985300909      -34.3070458930       18.9062307335  MEMB      80              0.0000000000
      9100        80  CHL1      C4             13.5191791753      -33.0070392732       16.8956029129  MEMB      80              0.0000000000
      9101        80  CHL1      H4A            12.4668535161      -33.0144524946       17.2357331577  MEMB      80              0.0000000000
      9102        80  CHL1      H4B            14.0396217105      -32.2098538915       17.4797246780  MEMB      80              0.0000000000
      9103        80  CHL1      C5             13.5092716772      -32.7137828521       15.4083929605  MEMB      80              0.0000000000
      9104        80  CHL1      C6             13.9282605987      -31.5093267215       15.0005449857  MEMB      80              0.0000000000
      9105        80  CHL1      H6             14.2017497709      -30.7642797802       15.7623705263  MEMB      80              0.0000000000
      9106        80  CHL1      C7             13.9507977304      -31.0573715851       13.5739692518  MEMB      80              0.0000000000
      9107        80  CHL1      H7A            13.4633243010      -30.0631823580       13.4984070600  MEMB      80              0.0000000000
      9108        80  CHL1      H7B            15.0027240300      -30.8983695000       13.2465555626  MEMB      80              0.0000000000
      9109        80  CHL1      C8             13.2262192061      -32.0573359085       12.6205605777  MEMB      80              0.0000000000
      9110        80  CHL1      H8             12.1329976019      -31.8707149713       12.6993577563  MEMB      80              0.0000000000
      9111        80  CHL1      C14            13.7184766626      -31.8246834878       11.2030905859  MEMB      80              0.0000000000
      9112        80  CHL1      H14            14.8031749029      -32.0983061407       11.2557392660  MEMB      80              0.0000000000
      9113        80  CHL1      C15            13.7238164266      -30.3924390045       10.6195805694  MEMB      80              0.0000000000
      9114        80  CHL1      H15A           12.8592554013      -29.8201881897       11.0090210014  MEMB      80              0.0000000000
      9115        80  CHL1      H15B           14.6686035950      -29.8951333665       10.9237865897  MEMB      80              0.0000000000
      9116        80  CHL1      C16            13.6750262593      -30.5804535797        9.0831315898  MEMB      80              0.0000000000
      9117        80  CHL1      H16A           12.7597480037      -30.1064989590        8.6730976898  MEMB      80              0.0000000000
      9118        80  CHL1      H16B           14.5616095356      -30.1184410252        8.6016775984  MEMB      80              0.0000000000
      9119        80  CHL1      C17            13.7120536040      -32.1278614293        8.8817981892  MEMB      80              0.0000000000
      9120        80  CHL1      H17            14.7969554427      -32.3710334195        8.9675112342  MEMB      80              0.0000000000
      9121        80  CHL1      C13            13.1153830996      -32.7250576686       10.1470732307  MEMB      80              0.0000000000
      9122        80  CHL1      C18            11.6067829768      -32.5699950541       10.0825701302  MEMB      80              0.0000000000
      9123        80  CHL1      H18A           11.1936914617      -31.5873643817        9.8054882575  MEMB      80              0.0000000000
      9124        80  CHL1      H18B           11.2265216163      -33.3051966078        9.3468475789  MEMB      80              0.0000000000
      9125        80  CHL1      H18C           11.1865947368      -32.8259005087       11.0749074025  MEMB      80              0.0000000000
      9126        80  CHL1      C12            13.4517987684      -34.1921491017       10.4621363562  MEMB      80              0.0000000000
      9127        80  CHL1      H12A           13.0036937155      -34.8479283764        9.6830548097  MEMB      80              0.0000000000
      9128        80  CHL1      H12B           14.5511983480      -34.3176784853       10.4040433402  MEMB      80              0.0000000000
      9129        80  CHL1      C11            12.9677179045      -34.5489843395       11.8917613210  MEMB      80              0.0000000000
      9130        80  CHL1      H11A           11.8589247482      -34.5449117943       11.9043029057  MEMB      80              0.0000000000
      9131        80  CHL1      H11B           13.2644887804      -35.5914977137       12.1251565648  MEMB      80              0.0000000000
      9132        80  CHL1      C9             13.4912757402      -33.5379471427       12.9783833443  MEMB      80              0.0000000000
      9133        80  CHL1      H9             14.6044423107      -33.6170377278       12.9237702203  MEMB      80              0.0000000000
      9134        80  CHL1      C10            13.1006935053      -33.8738880741       14.4516039220  MEMB      80              0.0000000000
      9135        80  CHL1      C19            11.6076433624      -34.2450584163       14.5591630481  MEMB      80              0.0000000000
      9136        80  CHL1      H19A           11.4244333934      -35.2629389107       14.1486212284  MEMB      80              0.0000000000
      9137        80  CHL1      H19B           11.3185704358      -34.3002538559       15.6285050677  MEMB      80              0.0000000000
      9138        80  CHL1      H19C           10.9641176761      -33.5306318715       14.0211575213  MEMB      80              0.0000000000
      9139        80  CHL1      C1             13.8152730088      -35.1553563921       14.8985958553  MEMB      80              0.0000000000
      9140        80  CHL1      H1A            13.5095906395      -36.0359434987       14.3094205072  MEMB      80              0.0000000000
      9141        80  CHL1      H1B            14.8193350602      -34.9943018657       14.5529121086  MEMB      80              0.0000000000
      9142        80  CHL1      C2             13.7191587958      -35.4701090937       16.4032369960  MEMB      80              0.0000000000
      9143        80  CHL1      H2A            14.2669090088      -36.4089269295       16.6355248994  MEMB      80              0.0000000000
      9144        80  CHL1      H2B            12.6589633375      -35.6218120160       16.6890347088  MEMB      80              0.0000000000
      9145        80  CHL1      C20            13.2364686603      -32.7317219411        7.5573772977  MEMB      80              0.0000000000
      9146        80  CHL1      H20            12.7909519041      -33.7407052781        7.7486526145  MEMB      80              0.0000000000
      9147        80  CHL1      C21            14.5086169514      -32.9717973137        6.7146888728  MEMB      80              0.0000000000
      9148        80  CHL1      H21A           14.2875385686      -33.4673720079        5.7475669816  MEMB      80              0.0000000000
      9149        80  CHL1      H21B           15.2183926279      -33.6030789783        7.2941327633  MEMB      80              0.0000000000
      9150        80  CHL1      H21C           15.0120733234      -32.0075919727        6.5048409675  MEMB      80              0.0000000000
      9151        80  CHL1      C22            12.1794983691      -31.8979285425        6.8094910846  MEMB      80              0.0000000000
      9152        80  CHL1      H22A           11.4134512762      -31.4996350616        7.5169778318  MEMB      80              0.0000000000
      9153        80  CHL1      H22B           12.6278811647      -31.0420547638        6.2770399909  MEMB      80              0.0000000000
      9154        80  CHL1      C23            11.4279181227      -32.6660808501        5.7298167955  MEMB      80              0.0000000000
      9155        80  CHL1      H23A           12.1214031372      -33.1929363202        5.0571202073  MEMB      80              0.0000000000
      9156        80  CHL1      H23B           11.1139979919      -33.5658360402        6.3186237243  MEMB      80              0.0000000000
      9157        80  CHL1      C24            10.3729922552      -31.5858223234        5.0643480605  MEMB      80              0.0000000000
      9158        80  CHL1      H24A            9.7860050090      -31.1274148604        5.8514075802  MEMB      80              0.0000000000
      9159        80  CHL1      H24B           11.0950442253      -30.9053180415        4.5813383930  MEMB      80              0.0000000000
      9160        80  CHL1      C25             9.1422576579      -31.8552209888        3.9962373137  MEMB      80              0.0000000000
      9161        80  CHL1      H25             9.8090151866      -32.7117845522        4.2069942053  MEMB      80              0.0000000000
      9162        80  CHL1      C26             7.6005144845      -32.3572482522        3.9774261258  MEMB      80              0.0000000000
      9163        80  CHL1      H26A            7.0638415618      -31.6904241243        4.5956813776  MEMB      80              0.0000000000
      9164        80  CHL1      H26B            7.1760729820      -33.2534051176        3.4487934010  MEMB      80              0.0000000000
      9165        80  CHL1      H26C            7.2949745381      -33.2592035331        4.4951463301  MEMB      80              0.0000000000
      9166        80  CHL1      C27             8.9809498827      -31.2460647863        2.5717811226  MEMB      80              0.0000000000
      9167        80  CHL1      H27A            8.2428326624      -30.4839837066        2.8005444457  MEMB      80              0.0000000000
      9168        80  CHL1      H27B            9.8329886967      -30.9074908869        2.0006835281  MEMB      80              0.0000000000
      9169        80  CHL1      H27C            8.5957795293      -31.9005260797        1.7341031052  MEMB      80              0.0000000000
      9170        81  CHL1      C3            -37.4698972803       13.1361569863       17.3179883144  MEMB      81              0.0000000000
      9171        81  CHL1      H3            -38.4827265688       12.7868290388       16.9880005735  MEMB      81              0.0000000000
      9172        81  CHL1      O3            -37.3815043932       13.1417155615       18.7218126941  MEMB      81              0.0000000000
      9173        81  CHL1      H3'           -37.0204191442       12.2957961630       18.9998453669  MEMB      81              0.0000000000
      9174        81  CHL1      C4            -36.3004075100       12.4176098239       16.6437984927  MEMB      81              0.0000000000
      9175        81  CHL1      H4A           -35.3904576903       12.8242151075       17.1090346359  MEMB      81              0.0000000000
      9176        81  CHL1      H4B           -36.3880153749       11.3388380403       16.8846904072  MEMB      81              0.0000000000
      9177        81  CHL1      C5            -36.1691580470       12.7148110677       15.1636065964  MEMB      81              0.0000000000
      9178        81  CHL1      C6            -36.0968674878       11.8325458532       14.2603938726  MEMB      81              0.0000000000
      9179        81  CHL1      H6            -35.7411258135       10.9515886092       14.6510343085  MEMB      81              0.0000000000
      9180        81  CHL1      C7            -36.0559954787       12.0269774816       12.8153497326  MEMB      81              0.0000000000
      9181        81  CHL1      H7A           -35.1333180265       11.5796459442       12.4477400547  MEMB      81              0.0000000000
      9182        81  CHL1      H7B           -37.0646372134       11.7484856271       12.3817208363  MEMB      81              0.0000000000
      9183        81  CHL1      C8            -35.6899251989       13.2475115859       12.2101858413  MEMB      81              0.0000000000
      9184        81  CHL1      H8            -34.6050875838       13.4672418095       12.3364587281  MEMB      81              0.0000000000
      9185        81  CHL1      C14           -36.0342913394       13.2500295696       10.7090168029  MEMB      81              0.0000000000
      9186        81  CHL1      H14           -37.1162901895       12.9367981384       10.5988366822  MEMB      81              0.0000000000
      9187        81  CHL1      C15           -35.2197183089       12.5152433588        9.6978374472  MEMB      81              0.0000000000
      9188        81  CHL1      H15A          -34.2268841975       12.2673249089       10.0581462843  MEMB      81              0.0000000000
      9189        81  CHL1      H15B          -35.4652197259       11.6156804025        9.2917789643  MEMB      81              0.0000000000
      9190        81  CHL1      C16           -35.6052467755       13.0164961755        8.3096069949  MEMB      81              0.0000000000
      9191        81  CHL1      H16A          -34.7660348112       13.0626762608        7.6677073989  MEMB      81              0.0000000000
      9192        81  CHL1      H16B          -36.1891190350       12.3342128298        7.6536415540  MEMB      81              0.0000000000
      9193        81  CHL1      C17           -36.2760014377       14.3297009167        8.6568247192  MEMB      81              0.0000000000
      9194        81  CHL1      H17           -37.2639985322       13.9122559249        8.6408491680  MEMB      81              0.0000000000
      9195        81  CHL1      C13           -35.8836495428       14.6003569068       10.1017053355  MEMB      81              0.0000000000
      9196        81  CHL1      C18           -34.6585183679       15.4042035706       10.2790525771  MEMB      81              0.0000000000
      9197        81  CHL1      H18A          -34.6597218819       16.4414665259       10.0749365490  MEMB      81              0.0000000000
      9198        81  CHL1      H18B          -34.1886623044       15.2107025355       11.2351057349  MEMB      81              0.0000000000
      9199        81  CHL1      H18C          -33.9564265132       15.5182132169        9.5344926995  MEMB      81              0.0000000000
      9200        81  CHL1      C12           -36.5622987409       15.3809113283       11.0670433405  MEMB      81              0.0000000000
      9201        81  CHL1      H12A          -36.6894407022       16.3794528579       10.6084647951  MEMB      81              0.0000000000
      9202        81  CHL1      H12B          -37.4431713061       14.7801997610       11.2415023103  MEMB      81              0.0000000000
      9203        81  CHL1      C11           -36.1104375967       15.2932553072       12.5052656429  MEMB      81              0.0000000000
      9204        81  CHL1      H11A          -35.0980373709       15.5619745544       12.7296825319  MEMB      81              0.0000000000
      9205        81  CHL1      H11B          -36.4301892460       16.0013001003       13.1667616529  MEMB      81              0.0000000000
      9206        81  CHL1      C9            -36.5046843038       14.0776214889       13.0996578519  MEMB      81              0.0000000000
      9207        81  CHL1      H9            -37.5987834828       13.8205645993       12.9726954315  MEMB      81              0.0000000000
      9208        81  CHL1      C10           -36.1661383083       14.0450976419       14.6162511623  MEMB      81              0.0000000000
      9209        81  CHL1      C19           -34.8597112389       14.7733056890       14.9592498829  MEMB      81              0.0000000000
      9210        81  CHL1      H19A          -34.0064728089       14.3690002929       14.3815655687  MEMB      81              0.0000000000
      9211        81  CHL1      H19B          -34.9680457866       15.8514095009       14.7255937262  MEMB      81              0.0000000000
      9212        81  CHL1      H19C          -34.6373496955       14.7202929991       16.0334835493  MEMB      81              0.0000000000
      9213        81  CHL1      C1            -37.2662522501       14.6064507502       15.4125423740  MEMB      81              0.0000000000
      9214        81  CHL1      H1A           -37.1002520158       15.6756120484       15.3472538383  MEMB      81              0.0000000000
      9215        81  CHL1      H1B           -38.2329226485       14.3041667602       14.9330202635  MEMB      81              0.0000000000
      9216        81  CHL1      C2            -37.2268097102       14.5370043645       16.9459795290  MEMB      81              0.0000000000
      9217        81  CHL1      H2A           -37.9212384805       15.1682520526       17.5265211367  MEMB      81              0.0000000000
      9218        81  CHL1      H2B           -36.2711707358       14.9695476090       17.2743873100  MEMB      81              0.0000000000
      9219        81  CHL1      C20           -36.1615824890       15.3622800545        7.5940176913  MEMB      81              0.0000000000
      9220        81  CHL1      H20           -35.0959192763       15.4225517732        7.3324113526  MEMB      81              0.0000000000
      9221        81  CHL1      C21           -36.6511989313       16.7350270228        8.0036645446  MEMB      81              0.0000000000
      9222        81  CHL1      H21A          -36.1304260502       17.1390290147        8.8773075133  MEMB      81              0.0000000000
      9223        81  CHL1      H21B          -37.7510308393       16.7694066372        8.1319320643  MEMB      81              0.0000000000
      9224        81  CHL1      H21C          -36.3537361554       17.3926409528        7.1964496811  MEMB      81              0.0000000000
      9225        81  CHL1      C22           -36.9385830411       14.9281501102        6.3764619415  MEMB      81              0.0000000000
      9226        81  CHL1      H22A          -37.0751496181       13.8258777507        6.3769354758  MEMB      81              0.0000000000
      9227        81  CHL1      H22B          -37.8743528261       15.5046594574        6.2398530179  MEMB      81              0.0000000000
      9228        81  CHL1      C23           -36.2414278521       14.9863054718        5.1062512342  MEMB      81              0.0000000000
      9229        81  CHL1      H23A          -36.8783998788       14.4388936973        4.4374089917  MEMB      81              0.0000000000
      9230        81  CHL1      H23B          -36.0045395861       16.0371829182        4.7858014145  MEMB      81              0.0000000000
      9231        81  CHL1      C24           -35.2708221168       13.8395594324        4.9088969388  MEMB      81              0.0000000000
      9232        81  CHL1      H24A          -34.7415079370       14.4702593840        5.5958309413  MEMB      81              0.0000000000
      9233        81  CHL1      H24B          -35.4817950904       12.8852688606        5.3546944383  MEMB      81              0.0000000000
      9234        81  CHL1      C25           -34.7620415023       13.5495180868        3.5130924918  MEMB      81              0.0000000000
      9235        81  CHL1      H25           -35.4458914128       13.3772919330        2.6930269860  MEMB      81              0.0000000000
      9236        81  CHL1      C26           -34.3302625763       14.8517781284        3.2837580052  MEMB      81              0.0000000000
      9237        81  CHL1      H26A          -33.4300650829       14.6623077336        3.7720486427  MEMB      81              0.0000000000
      9238        81  CHL1      H26B          -34.1713206494       15.2549856121        2.3420652947  MEMB      81              0.0000000000
      9239        81  CHL1      H26C          -34.7517458449       15.8606104871        3.4495106201  MEMB      81              0.0000000000
      9240        81  CHL1      C27           -33.5881066488       12.5718405356        3.2685751268  MEMB      81              0.0000000000
      9241        81  CHL1      H27A          -33.0947302906       12.7361511986        2.2950518041  MEMB      81              0.0000000000
      9242        81  CHL1      H27B          -32.7476932700       12.6978136732        3.9805640314  MEMB      81              0.0000000000
      9243        81  CHL1      H27C          -33.9840750223       11.5709972503        3.1048025054  MEMB      81              0.0000000000
      9244        82  OSM       N              32.7484475555      -15.5211787972       22.3078307602  MEMB      82              0.0000000000
      9245        82  OSM       C15            31.7326930484      -14.5545288894       21.7770339847  MEMB      82              0.0000000000
      9246        82  OSM       H15A           31.9474084191      -14.2606726344       20.7541423091  MEMB      82              0.0000000000
      9247        82  OSM       H15B           31.6832338330      -13.6540748329       22.3733103313  MEMB      82              0.0000000000
      9248        82  OSM       H15C           30.7496056460      -15.0100246743       21.7820420682  MEMB      82              0.0000000000
      9249        82  OSM       C14            32.5202803217      -15.6647399330       23.7834154603  MEMB      82              0.0000000000
      9250        82  OSM       H14A           32.8883270525      -16.6110132417       24.1794700298  MEMB      82              0.0000000000
      9251        82  OSM       H14B           31.4642101539      -15.5974385704       23.9826448075  MEMB      82              0.0000000000
      9252        82  OSM       H14C           33.0070492923      -14.8602252263       24.3388958706  MEMB      82              0.0000000000
      9253        82  OSM       C13            32.6080491999      -16.8598933676       21.6272108323  MEMB      82              0.0000000000
      9254        82  OSM       H13A           31.6951024513      -17.3510914420       21.8886455300  MEMB      82              0.0000000000
      9255        82  OSM       H13B           33.4403151705      -17.5295192809       21.8471914608  MEMB      82              0.0000000000
      9256        82  OSM       H13C           32.6562699295      -16.7402860894       20.5417808291  MEMB      82              0.0000000000
      9257        82  OSM       C12            34.1526137649      -14.9965016018       22.0876294215  MEMB      82              0.0000000000
      9258        82  OSM       H12A           34.8058548228      -15.7101350364       22.5796665166  MEMB      82              0.0000000000
      9259        82  OSM       H12B           34.2524174414      -14.0378257997       22.5841675142  MEMB      82              0.0000000000
      9260        82  OSM       C11            34.6367991785      -14.8163969269       20.6227601794  MEMB      82              0.0000000000
      9261        82  OSM       H11A           35.5935673512      -14.2358588307       20.6039235222  MEMB      82              0.0000000000
      9262        82  OSM       H11B           33.9211060283      -14.1687162811       20.0746546157  MEMB      82              0.0000000000
      9263        82  OSM       P              36.1273309184      -16.8572812502       19.8639252292  MEMB      82              0.0000000000
      9264        82  OSM       O13            37.0778505059      -16.0712191198       20.6412275217  MEMB      82              0.0000000000
      9265        82  OSM       O14            35.8943320985      -18.2879428419       20.2026922168  MEMB      82              0.0000000000
      9266        82  OSM       O11            36.4688987926      -16.7519548327       18.3301093293  MEMB      82              0.0000000000
      9267        82  OSM       O12            34.7411620925      -16.0732013720       19.9415112528  MEMB      82              0.0000000000
      9268        82  OSM       C1S            35.3974719671      -16.8325977451       17.3876685954  MEMB      82              0.0000000000
      9269        82  OSM       H1S            34.5346463912      -17.4168766953       17.7833890194  MEMB      82              0.0000000000
      9270        82  OSM       H1T            35.7598743842      -17.3741595697       16.4885870431  MEMB      82              0.0000000000
      9271        82  OSM       NF             34.1546862188      -15.5443589916       15.6921279906  MEMB      82              0.0000000000
      9272        82  OSM       HNF            34.5042106996      -15.0169322413       14.9313307345  MEMB      82              0.0000000000
      9273        82  OSM       C2S            34.9383974182      -15.4205189376       16.9355977346  MEMB      82              0.0000000000
      9274        82  OSM       H2S            34.3083413483      -14.9449452450       17.7161453598  MEMB      82              0.0000000000
      9275        82  OSM       C3S            36.2112901952      -14.5297268883       16.7901821579  MEMB      82              0.0000000000
      9276        82  OSM       H3S            37.0945149009      -15.1021273775       16.4103377291  MEMB      82              0.0000000000
      9277        82  OSM       O3             36.6057205655      -13.8394498100       17.9688701168  MEMB      82              0.0000000000
      9278        82  OSM       HO3            36.0682779972      -14.1992649746       18.6707857860  MEMB      82              0.0000000000
      9279        82  OSM       C4S            35.9363103309      -13.4703592136       15.8258421094  MEMB      82              0.0000000000
      9280        82  OSM       H4S            35.2073289265      -12.6755589908       16.0810936633  MEMB      82              0.0000000000
      9281        82  OSM       C5S            36.5436869998      -13.4711113249       14.6517454853  MEMB      82              0.0000000000
      9282        82  OSM       H5S            37.2989605706      -14.1630792927       14.2839293960  MEMB      82              0.0000000000
      9283        82  OSM       C6S            36.3158141115      -12.4548675468       13.6987493606  MEMB      82              0.0000000000
      9284        82  OSM       H6S            37.3343738515      -12.3594578331       13.4279034664  MEMB      82              0.0000000000
      9285        82  OSM       H6T            36.0775572890      -11.5271319359       14.2533331316  MEMB      82              0.0000000000
      9286        82  OSM       C7S            35.6061492921      -12.8249289252       12.4190051431  MEMB      82              0.0000000000
      9287        82  OSM       H7S            36.2291567252      -13.2816301859       11.6316023434  MEMB      82              0.0000000000
      9288        82  OSM       H7T            35.0722417202      -12.0279053689       11.8567154725  MEMB      82              0.0000000000
      9289        82  OSM       C8S            34.4684056894      -13.5117459247       12.9552367168  MEMB      82              0.0000000000
      9290        82  OSM       H8S            34.0914163795      -12.9016691296       13.8117724728  MEMB      82              0.0000000000
      9291        82  OSM       H8T            34.6598092554      -14.5684117384       13.2110643603  MEMB      82              0.0000000000
      9292        82  OSM       C9S            33.4692303634      -13.5032278286       11.9482017280  MEMB      82              0.0000000000
      9293        82  OSM       H9S            33.0317530138      -12.5384649341       11.7766322005  MEMB      82              0.0000000000
      9294        82  OSM       H9T            32.8741312312      -14.0085359145       12.7105075286  MEMB      82              0.0000000000
      9295        82  OSM       C10S           34.0968369017      -14.1468644675       10.7455048571  MEMB      82              0.0000000000
      9296        82  OSM       H10S           34.5106651798      -15.1000122651       11.1862015235  MEMB      82              0.0000000000
      9297        82  OSM       H10T           34.7045221399      -13.6345304843       10.0166004942  MEMB      82              0.0000000000
      9298        82  OSM       C11S           33.2204087984      -14.4953780667        9.6658351056  MEMB      82              0.0000000000
      9299        82  OSM       H11S           32.3075600096      -14.1252948998        9.3912601205  MEMB      82              0.0000000000
      9300        82  OSM       H11T           32.9075184285      -15.1974404901       10.4505534741  MEMB      82              0.0000000000
      9301        82  OSM       C12S           33.2652416847      -14.6649988187        8.0900501201  MEMB      82              0.0000000000
      9302        82  OSM       H12S           32.9044763564      -15.6634560064        7.8603111242  MEMB      82              0.0000000000
      9303        82  OSM       H12T           34.1586204095      -14.6542986204        7.5809886716  MEMB      82              0.0000000000
      9304        82  OSM       C13S           32.2295801069      -14.1733083261        7.0461101117  MEMB      82              0.0000000000
      9305        82  OSM       H13S           31.6631850522      -13.2995790529        7.2633845573  MEMB      82              0.0000000000
      9306        82  OSM       H13T           31.3655593946      -14.4509605152        7.5391146800  MEMB      82              0.0000000000
      9307        82  OSM       C14S           32.2703776602      -14.8816777767        5.6062587689  MEMB      82              0.0000000000
      9308        82  OSM       H14S           33.1461702239      -14.3917030730        5.1943327049  MEMB      82              0.0000000000
      9309        82  OSM       H14T           31.5062599651      -14.4750818722        4.9407931969  MEMB      82              0.0000000000
      9310        82  OSM       C15S           32.4572452016      -16.4636732847        5.3835172817  MEMB      82              0.0000000000
      9311        82  OSM       H15S           31.6824994755      -17.2269534558        5.6458225314  MEMB      82              0.0000000000
      9312        82  OSM       H15T           33.2836350744      -16.7395373174        6.0572816121  MEMB      82              0.0000000000
      9313        82  OSM       C16S           32.6144598094      -17.0097842969        3.9726070097  MEMB      82              0.0000000000
      9314        82  OSM       H16S           33.0436990105      -18.0348466461        4.1145905222  MEMB      82              0.0000000000
      9315        82  OSM       H16T           33.3126438734      -16.3105113326        3.4907050144  MEMB      82              0.0000000000
      9316        82  OSM       C17S           31.3309741253      -17.2259894975        3.1503686518  MEMB      82              0.0000000000
      9317        82  OSM       H17S           30.6531026688      -16.3918498343        3.2540152741  MEMB      82              0.0000000000
      9318        82  OSM       H17T           30.7399194115      -18.0953860463        3.5170278276  MEMB      82              0.0000000000
      9319        82  OSM       C18S           31.5692261361      -17.2652374464        1.6506975428  MEMB      82              0.0000000000
      9320        82  OSM       H18S           32.1784822365      -18.1440364983        1.3898021961  MEMB      82              0.0000000000
      9321        82  OSM       H18T           32.0380019470      -16.3180236761        1.2954583108  MEMB      82              0.0000000000
      9322        82  OSM       H18U           30.6120868527      -17.3635455407        1.1246808088  MEMB      82              0.0000000000
      9323        82  OSM       C1F            32.9958460297      -16.1870900845       15.6277975929  MEMB      82              0.0000000000
      9324        82  OSM       OF             32.4345570972      -16.5129252218       16.6649676298  MEMB      82              0.0000000000
      9325        82  OSM       C2F            32.4541292373      -16.5337298862       14.2633566724  MEMB      82              0.0000000000
      9326        82  OSM       H2F            33.3832698333      -16.9606976151       13.9031887888  MEMB      82              0.0000000000
      9327        82  OSM       H2G            32.7887915695      -16.2439903625       13.2624508213  MEMB      82              0.0000000000
      9328        82  OSM       C3F            31.4114372190      -17.6561773585       14.3323775929  MEMB      82              0.0000000000
      9329        82  OSM       H3F            31.0335469324      -17.8035892624       13.3015988392  MEMB      82              0.0000000000
      9330        82  OSM       H3G            30.5390594544      -17.4754959373       15.0074411331  MEMB      82              0.0000000000
      9331        82  OSM       C4F            32.0904381146      -18.9580853206       14.6801408189  MEMB      82              0.0000000000
      9332        82  OSM       H4F            31.3451694553      -19.7874090007       14.7087296188  MEMB      82              0.0000000000
      9333        82  OSM       H4G            32.5171488146      -18.9377689396       15.7068764698  MEMB      82              0.0000000000
      9334        82  OSM       C5F            33.2950799261      -19.2078534303       13.7418988163  MEMB      82              0.0000000000
      9335        82  OSM       H5F            33.5893258572      -20.1235099834       14.2501270870  MEMB      82              0.0000000000
      9336        82  OSM       H5G            34.1723080205      -18.5794479119       13.8621547567  MEMB      82              0.0000000000
      9337        82  OSM       C6F            33.0562978112      -19.1235110685       12.2146930645  MEMB      82              0.0000000000
      9338        82  OSM       H6F            32.7950442115      -18.1966207723       11.6671449535  MEMB      82              0.0000000000
      9339        82  OSM       H6G            32.1390206461      -19.5597208238       12.3474216064  MEMB      82              0.0000000000
      9340        82  OSM       C7F            33.7219098287      -20.0141915190       11.1895153528  MEMB      82              0.0000000000
      9341        82  OSM       H7F            33.1122936223      -20.0396572594       10.3266882844  MEMB      82              0.0000000000
      9342        82  OSM       H7G            33.5892350725      -21.0797213209       11.1899291389  MEMB      82              0.0000000000
      9343        82  OSM       C8F            35.1634182888      -19.7396841064       11.0207026448  MEMB      82              0.0000000000
      9344        82  OSM       H8F            35.5864965033      -20.5784431612       10.4285368486  MEMB      82              0.0000000000
      9345        82  OSM       H8G            35.5552774345      -19.7178635501       12.0640401621  MEMB      82              0.0000000000
      9346        82  OSM       C9F            35.2523049031      -18.4118048844       10.3872491024  MEMB      82              0.0000000000
      9347        82  OSM       H9F            35.1106678424      -17.6113139725       11.1226924548  MEMB      82              0.0000000000
      9348        82  OSM       C10F           35.3780111901      -18.1397270458        9.0838867424  MEMB      82              0.0000000000
      9349        82  OSM       H10F           35.4695940879      -17.0851229894        8.8215908038  MEMB      82              0.0000000000
      9350        82  OSM       C11F           35.4630718951      -19.1027205909        7.9231878121  MEMB      82              0.0000000000
      9351        82  OSM       H11F           34.7259835098      -18.8396049587        7.1277340112  MEMB      82              0.0000000000
      9352        82  OSM       H11G           35.2032997845      -20.1179397911        8.2678845826  MEMB      82              0.0000000000
      9353        82  OSM       C12F           36.8301731694      -19.1655722470        7.2228054148  MEMB      82              0.0000000000
      9354        82  OSM       H12F           36.7832616017      -19.9096233091        6.3941171833  MEMB      82              0.0000000000
      9355        82  OSM       H12G           37.6069908254      -19.5209008739        7.9372519977  MEMB      82              0.0000000000
      9356        82  OSM       C13F           37.2445034440      -17.8213600612        6.6153488454  MEMB      82              0.0000000000
      9357        82  OSM       H13F           38.2648588066      -17.9542217830        6.1837967282  MEMB      82              0.0000000000
      9358        82  OSM       H13G           37.3051572069      -17.0404369076        7.4060078302  MEMB      82              0.0000000000
      9359        82  OSM       C14F           36.3738863101      -17.3175900946        5.4594962067  MEMB      82              0.0000000000
      9360        82  OSM       H14F           35.4273376925      -16.8416216986        5.7955865780  MEMB      82              0.0000000000
      9361        82  OSM       H14G           36.1441258275      -18.1732995385        4.7881738963  MEMB      82              0.0000000000
      9362        82  OSM       C15F           37.1329568842      -16.2435731364        4.6980605473  MEMB      82              0.0000000000
      9363        82  OSM       H15F           38.0731436658      -16.6613250271        4.2759832417  MEMB      82              0.0000000000
      9364        82  OSM       H15G           37.3754282701      -15.4382904021        5.4262347806  MEMB      82              0.0000000000
      9365        82  OSM       C16F           36.3671302917      -15.6429563431        3.5447795042  MEMB      82              0.0000000000
      9366        82  OSM       H16F           36.9774511630      -14.7609554970        3.2411597461  MEMB      82              0.0000000000
      9367        82  OSM       H16G           35.3776519901      -15.2406387338        3.8650256602  MEMB      82              0.0000000000
      9368        82  OSM       C17F           36.2172275901      -16.6158529046        2.3632219989  MEMB      82              0.0000000000
      9369        82  OSM       H17F           35.2947683476      -16.3776988967        1.7897457722  MEMB      82              0.0000000000
      9370        82  OSM       H17G           36.1135009582      -17.6520523700        2.7318826065  MEMB      82              0.0000000000
      9371        82  OSM       C18F           37.3796858421      -16.5863016573        1.3821069803  MEMB      82              0.0000000000
      9372        82  OSM       H18F           38.3649376336      -16.7411143043        1.8547425429  MEMB      82              0.0000000000
      9373        82  OSM       H18G           37.4200610040      -15.6451116810        0.8713114866  MEMB      82              0.0000000000
      9374        82  OSM       H18H           37.1977279313      -17.2276502360        0.5216523306  MEMB      82              0.0000000000
      9375        83  SAPI      C12            22.8046316336      -33.1393252814       24.2522843145  MEMB      83              0.0000000000
      9376        83  SAPI      H2             23.6219191879      -33.8247857182       23.9125208127  MEMB      83              0.0000000000
      9377        83  SAPI      O2             21.7046395386      -33.9532134442       24.6686265623  MEMB      83              0.0000000000
      9378        83  SAPI      HO2            21.8585097821      -34.8217891346       24.2866508277  MEMB      83              0.0000000000
      9379        83  SAPI      C13            23.3106591936      -32.3652792251       25.4415239481  MEMB      83              0.0000000000
      9380        83  SAPI      H3             24.2032403007      -31.7837949650       25.1381817952  MEMB      83              0.0000000000
      9381        83  SAPI      O3             23.7099386222      -33.2690447354       26.4702543156  MEMB      83              0.0000000000
      9382        83  SAPI      HO3            23.1960184274      -34.0734017411       26.3190620514  MEMB      83              0.0000000000
      9383        83  SAPI      C14            22.2699872072      -31.3574405944       25.8974615135  MEMB      83              0.0000000000
      9384        83  SAPI      H4             21.3596820604      -31.8700106827       26.1735917642  MEMB      83              0.0000000000
      9385        83  SAPI      O4             22.6942887581      -30.6381610414       27.0509693294  MEMB      83              0.0000000000
      9386        83  SAPI      HO4            23.4268411948      -30.0854759194       26.7896845100  MEMB      83              0.0000000000
      9387        83  SAPI      C15            21.8988143909      -30.4218481880       24.7863750166  MEMB      83              0.0000000000
      9388        83  SAPI      H5             22.8290952556      -29.8776709116       24.5041209592  MEMB      83              0.0000000000
      9389        83  SAPI      O5             20.9276306103      -29.4710122905       25.2333000773  MEMB      83              0.0000000000
      9390        83  SAPI      HO5            21.3625405541      -28.6660414161       25.4946813327  MEMB      83              0.0000000000
      9391        83  SAPI      C16            21.3995183092      -31.1906067157       23.5833105774  MEMB      83              0.0000000000
      9392        83  SAPI      H6             20.4984456108      -31.7799239761       23.8855783121  MEMB      83              0.0000000000
      9393        83  SAPI      O6             21.0417823291      -30.2852103336       22.5356813872  MEMB      83              0.0000000000
      9394        83  SAPI      HO6            21.7890706173      -29.7466955725       22.2491448496  MEMB      83              0.0000000000
      9395        83  SAPI      C11            22.4460689292      -32.1785072896       23.1281784863  MEMB      83              0.0000000000
      9396        83  SAPI      H1             23.3555126442      -31.5704521555       22.8601453401  MEMB      83              0.0000000000
      9397        83  SAPI      P              22.8301438070      -32.9565832218       20.6460961299  MEMB      83              0.0000000000
      9398        83  SAPI      O13            24.0790985756      -33.6770224049       20.9732085305  MEMB      83              0.0000000000
      9399        83  SAPI      O14            22.8962826189      -31.5734919021       20.1305418383  MEMB      83              0.0000000000
      9400        83  SAPI      O12            21.9398143570      -32.9498235983       22.0323919965  MEMB      83              0.0000000000
      9401        83  SAPI      O11            21.8904322368      -33.8525524533       19.7336298333  MEMB      83              0.0000000000
      9402        83  SAPI      C1             20.4622187732      -33.7617604263       19.7499112234  MEMB      83              0.0000000000
      9403        83  SAPI      HA             20.0372050995      -34.4082763022       20.5569845649  MEMB      83              0.0000000000
      9404        83  SAPI      HB             20.1212942818      -32.7266857594       19.9742435352  MEMB      83              0.0000000000
      9405        83  SAPI      C2             19.9071105615      -34.1185500368       18.3380156760  MEMB      83              0.0000000000
      9406        83  SAPI      HS             20.2368959081      -35.1650398033       18.1164545187  MEMB      83              0.0000000000
      9407        83  SAPI      O21            20.4034686164      -33.1591688482       17.3858187542  MEMB      83              0.0000000000
      9408        83  SAPI      C21            21.2269503391      -33.5936968287       16.4547644499  MEMB      83              0.0000000000
      9409        83  SAPI      O22            21.5506083752      -34.7448047471       16.2364113371  MEMB      83              0.0000000000
      9410        83  SAPI      C22            21.6940800366      -32.4262608167       15.6027931600  MEMB      83              0.0000000000
      9411        83  SAPI      H2R            21.6002444927      -32.6984304990       14.5284742481  MEMB      83              0.0000000000
      9412        83  SAPI      H2S            21.0800608701      -31.5233199119       15.7808198811  MEMB      83              0.0000000000
      9413        83  SAPI      C3             18.3467924380      -34.0346506584       18.2958833843  MEMB      83              0.0000000000
      9414        83  SAPI      HX             18.0666065843      -33.0164042796       18.6462340832  MEMB      83              0.0000000000
      9415        83  SAPI      HY             17.9217805076      -34.7642977011       19.0239079464  MEMB      83              0.0000000000
      9416        83  SAPI      O31            17.7736841051      -34.1918748202       16.9715424202  MEMB      83              0.0000000000
      9417        83  SAPI      C31            17.8171983321      -35.4542382906       16.5637942258  MEMB      83              0.0000000000
      9418        83  SAPI      O32            18.3080526597      -36.3479010064       17.2258258621  MEMB      83              0.0000000000
      9419        83  SAPI      C32            17.0649446580      -35.5942685122       15.2345236153  MEMB      83              0.0000000000
      9420        83  SAPI      H2X            16.1039635570      -36.0841039210       15.4605572365  MEMB      83              0.0000000000
      9421        83  SAPI      H2Y            17.5201243288      -36.2851785289       14.5353269581  MEMB      83              0.0000000000
      9422        83  SAPI      C23            23.1606510355      -32.1055288782       15.8913329597  MEMB      83              0.0000000000
      9423        83  SAPI      H3R            23.8036361246      -33.0098572399       15.8028117389  MEMB      83              0.0000000000
      9424        83  SAPI      H3S            23.2956650453      -31.7188708627       16.9312758945  MEMB      83              0.0000000000
      9425        83  SAPI      C24            23.6031403087      -30.9797247729       14.9682533790  MEMB      83              0.0000000000
      9426        83  SAPI      H4R            24.6156300041      -30.6945717967       15.3649869536  MEMB      83              0.0000000000
      9427        83  SAPI      H4S            22.9766521255      -30.1270598366       15.1925357337  MEMB      83              0.0000000000
      9428        83  SAPI      C25            23.5338556779      -31.3147692930       13.4868440692  MEMB      83              0.0000000000
      9429        83  SAPI      H5R            24.0445187688      -32.2046761407       13.2905927631  MEMB      83              0.0000000000
      9430        83  SAPI      C26            22.9537012057      -30.8423408353       12.3859338726  MEMB      83              0.0000000000
      9431        83  SAPI      H6R            23.1783504024      -31.1996447268       11.3743815691  MEMB      83              0.0000000000
      9432        83  SAPI      C27            22.1019638606      -29.6908754255       12.4023540768  MEMB      83              0.0000000000
      9433        83  SAPI      H7R            21.8525773216      -29.2055312534       11.4542672517  MEMB      83              0.0000000000
      9434        83  SAPI      H7S            22.8696273303      -28.9966561291       12.6862184310  MEMB      83              0.0000000000
      9435        83  SAPI      C28            20.8897289724      -29.9930994469       13.2682240215  MEMB      83              0.0000000000
      9436        83  SAPI      H8R            20.9113736679      -29.8318596379       14.3625460788  MEMB      83              0.0000000000
      9437        83  SAPI      C29            19.8383296770      -30.5735185353       12.8006562816  MEMB      83              0.0000000000
      9438        83  SAPI      H9R            19.0092883853      -30.7429180524       13.4884891363  MEMB      83              0.0000000000
      9439        83  SAPI      C210           19.7523431648      -30.9918891593       11.3829848874  MEMB      83              0.0000000000
      9440        83  SAPI      H10R           18.8862344449      -31.6619009983       11.3917956245  MEMB      83              0.0000000000
      9441        83  SAPI      H10S           20.6647208823      -31.5822476284       11.1738270560  MEMB      83              0.0000000000
      9442        83  SAPI      C211           19.7066502872      -30.0427889855       10.2269432356  MEMB      83              0.0000000000
      9443        83  SAPI      H11R           20.2596068881      -29.0871930444       10.3179050513  MEMB      83              0.0000000000
      9444        83  SAPI      C212           18.8999545712      -30.1652629695        9.1650825968  MEMB      83              0.0000000000
      9445        83  SAPI      H12R           18.8601815906      -29.2934334687        8.4956617568  MEMB      83              0.0000000000
      9446        83  SAPI      C213           17.8652041679      -31.1907574979        8.8171310646  MEMB      83              0.0000000000
      9447        83  SAPI      H13R           17.1263351980      -30.7477704120        8.1105615398  MEMB      83              0.0000000000
      9448        83  SAPI      H13S           17.2711276015      -31.4788180289        9.7168617914  MEMB      83              0.0000000000
      9449        83  SAPI      C214           18.4739918881      -32.4079789897        8.1965717629  MEMB      83              0.0000000000
      9450        83  SAPI      H14R           18.0604873490      -33.3367219183        8.6065942269  MEMB      83              0.0000000000
      9451        83  SAPI      C215           19.4112027493      -32.4833782655        7.2282690003  MEMB      83              0.0000000000
      9452        83  SAPI      H15R           19.7773806599      -33.4808926921        6.9647996420  MEMB      83              0.0000000000
      9453        83  SAPI      C216           20.1198678350      -31.3693011650        6.4889274094  MEMB      83              0.0000000000
      9454        83  SAPI      H16R           21.2085868173      -31.4965509924        6.6765326808  MEMB      83              0.0000000000
      9455        83  SAPI      H16S           19.8499242426      -30.3625539932        6.8683167135  MEMB      83              0.0000000000
      9456        83  SAPI      C217           19.9309873801      -31.3844520665        4.9532095396  MEMB      83              0.0000000000
      9457        83  SAPI      H17R           19.9463871633      -32.4325484480        4.5833645139  MEMB      83              0.0000000000
      9458        83  SAPI      H17S           20.7975740074      -30.8630094190        4.4862747765  MEMB      83              0.0000000000
      9459        83  SAPI      C218           18.6694489474      -30.6593861605        4.4537111868  MEMB      83              0.0000000000
      9460        83  SAPI      H18R           18.8967152566      -29.5672793526        4.4287015562  MEMB      83              0.0000000000
      9461        83  SAPI      H18S           17.8374843277      -30.8373009184        5.1632575127  MEMB      83              0.0000000000
      9462        83  SAPI      C219           18.1756977805      -31.1477799251        3.0885999329  MEMB      83              0.0000000000
      9463        83  SAPI      H19R           17.3186289934      -30.5089235681        2.7522555177  MEMB      83              0.0000000000
      9464        83  SAPI      H19S           17.8195457664      -32.1932162679        3.1598099116  MEMB      83              0.0000000000
      9465        83  SAPI      C220           19.2693283359      -31.1852285327        2.0521022915  MEMB      83              0.0000000000
      9466        83  SAPI      H20R           20.0751822423      -31.9157520097        2.2149033953  MEMB      83              0.0000000000
      9467        83  SAPI      H20S           19.8106188990      -30.2323496754        2.1589762407  MEMB      83              0.0000000000
      9468        83  SAPI      H20T           18.8096029265      -31.3334908341        1.0472724360  MEMB      83              0.0000000000
      9469        83  SAPI      C33            17.0308426254      -34.3348307146       14.3440989582  MEMB      83              0.0000000000
      9470        83  SAPI      H3X            16.5301388884      -33.4853021571       14.8516494564  MEMB      83              0.0000000000
      9471        83  SAPI      H3Y            16.4408486683      -34.6052147737       13.4308377953  MEMB      83              0.0000000000
      9472        83  SAPI      C34            18.3869208541      -33.9597690515       13.7849012173  MEMB      83              0.0000000000
      9473        83  SAPI      H4X            19.0759649998      -33.6430417057       14.5930858006  MEMB      83              0.0000000000
      9474        83  SAPI      H4Y            18.2316928210      -33.0651646190       13.1404520460  MEMB      83              0.0000000000
      9475        83  SAPI      C35            19.0170062693      -35.0712148438       12.9316316402  MEMB      83              0.0000000000
      9476        83  SAPI      H5X            18.2579983485      -35.6002124055       12.3103267092  MEMB      83              0.0000000000
      9477        83  SAPI      H5Y            19.5061224012      -35.8383683598       13.5730887850  MEMB      83              0.0000000000
      9478        83  SAPI      C36            20.0346665908      -34.4210803462       12.0201564283  MEMB      83              0.0000000000
      9479        83  SAPI      H6X            20.6813728761      -33.7732926432       12.6546410207  MEMB      83              0.0000000000
      9480        83  SAPI      H6Y            19.4784623994      -33.7794186330       11.2983561319  MEMB      83              0.0000000000
      9481        83  SAPI      C37            20.9390661316      -35.3752953107       11.2627145945  MEMB      83              0.0000000000
      9482        83  SAPI      H7X            20.3081654714      -36.0946825711       10.6945647362  MEMB      83              0.0000000000
      9483        83  SAPI      H7Y            21.5462084209      -35.9799221132       11.9732862637  MEMB      83              0.0000000000
      9484        83  SAPI      C38            21.8591012954      -34.5195133602       10.3867373158  MEMB      83              0.0000000000
      9485        83  SAPI      H8X            22.4310099919      -33.8025772803       11.0170176926  MEMB      83              0.0000000000
      9486        83  SAPI      H8Y            21.2606079827      -33.8973703497        9.6819883264  MEMB      83              0.0000000000
      9487        83  SAPI      C39            22.8672945475      -35.3368605040        9.6127166894  MEMB      83              0.0000000000
      9488        83  SAPI      H9X            22.2859217143      -36.0208793086        8.9766102860  MEMB      83              0.0000000000
      9489        83  SAPI      H9Y            23.5428031432      -35.8845202599       10.3125050376  MEMB      83              0.0000000000
      9490        83  SAPI      C310           23.6820532978      -34.4734938853        8.6728689245  MEMB      83              0.0000000000
      9491        83  SAPI      H10X           24.2448717509      -33.7926926183        9.3516298945  MEMB      83              0.0000000000
      9492        83  SAPI      H10Y           22.9974415075      -33.8321145010        8.0851047859  MEMB      83              0.0000000000
      9493        83  SAPI      C311           24.6345332547      -35.2937065493        7.7786437141  MEMB      83              0.0000000000
      9494        83  SAPI      H11X           25.2335093137      -35.9773849296        8.4261075346  MEMB      83              0.0000000000
      9495        83  SAPI      H11Y           25.3219890555      -34.6137689855        7.2099321577  MEMB      83              0.0000000000
      9496        83  SAPI      C312           24.1306029757      -36.2042091369        6.7722663921  MEMB      83              0.0000000000
      9497        83  SAPI      H12X           23.4119534288      -36.8774819807        7.2314856088  MEMB      83              0.0000000000
      9498        83  SAPI      H12Y           24.9418980718      -36.8204533137        6.3183416125  MEMB      83              0.0000000000
      9499        83  SAPI      C313           23.4795121752      -35.4548066878        5.7119563373  MEMB      83              0.0000000000
      9500        83  SAPI      H13X           24.0320397827      -34.6898158821        5.1291408946  MEMB      83              0.0000000000
      9501        83  SAPI      H13Y           22.5287739315      -35.0080214686        6.1216779108  MEMB      83              0.0000000000
      9502        83  SAPI      C314           23.2260684493      -36.5137505575        4.7660655519  MEMB      83              0.0000000000
      9503        83  SAPI      H14X           22.9984840271      -37.4977255248        5.3505548371  MEMB      83              0.0000000000
      9504        83  SAPI      H14Y           24.0131999901      -36.8057967138        4.0447813310  MEMB      83              0.0000000000
      9505        83  SAPI      C315           22.0846016088      -35.7344093975        4.1328342298  MEMB      83              0.0000000000
      9506        83  SAPI      H15X           21.1994275053      -35.5512338023        4.7564146901  MEMB      83              0.0000000000
      9507        83  SAPI      H15Y           21.9395503132      -36.8372372082        4.1587107732  MEMB      83              0.0000000000
      9508        83  SAPI      C316           22.0829331644      -34.8780676021        2.6751219605  MEMB      83              0.0000000000
      9509        83  SAPI      H16X           22.9906236318      -35.1347406729        2.1198869481  MEMB      83              0.0000000000
      9510        83  SAPI      H16Y           22.4426491245      -33.9022148980        2.9980228127  MEMB      83              0.0000000000
      9511        83  SAPI      C317           20.9224296062      -34.8079595292        1.3800383527  MEMB      83              0.0000000000
      9512        83  SAPI      H17X           21.3019759613      -34.1124051382        0.6201488485  MEMB      83              0.0000000000
      9513        83  SAPI      H17Y           20.0687799700      -34.3398081720        1.8957751389  MEMB      83              0.0000000000
      9514        83  SAPI      C318           20.2224352326      -35.9704291660        0.3600868805  MEMB      83              0.0000000000
      9515        83  SAPI      H18X           20.3598361995      -37.0169489180        0.5673389362  MEMB      83              0.0000000000
      9516        83  SAPI      H18Y           20.7491911738      -36.6064187957       -0.3660594222  MEMB      83              0.0000000000
      9517        83  SAPI      H18Z           19.1988545517      -35.9424161342       -0.0006339916  MEMB      83              0.0000000000
      9518        84  SAPE      N              34.2721311997      -22.4322488153       19.3855392299  MEMB      84              0.0000000000
      9519        84  SAPE      HN1            34.5498378881      -21.9701107900       20.2763819734  MEMB      84              0.0000000000
      9520        84  SAPE      HN2            34.9893465698      -22.4182494044       18.6453747128  MEMB      84              0.0000000000
      9521        84  SAPE      HN3            33.3468915873      -22.1071519710       19.0513085076  MEMB      84              0.0000000000
      9522        84  SAPE      C12            34.0117819387      -23.8359817884       19.7072033677  MEMB      84              0.0000000000
      9523        84  SAPE      H12A           35.0123619985      -24.2751775370       19.9173340019  MEMB      84              0.0000000000
      9524        84  SAPE      H12B           33.6113379215      -24.3656455867       18.8130511780  MEMB      84              0.0000000000
      9525        84  SAPE      C11            33.0704798254      -23.9305131002       20.9405938068  MEMB      84              0.0000000000
      9526        84  SAPE      H11A           33.6424151537      -23.6468268457       21.8463529072  MEMB      84              0.0000000000
      9527        84  SAPE      H11B           32.7476418153      -24.9596175664       21.2158337575  MEMB      84              0.0000000000
      9528        84  SAPE      P              30.6874896697      -23.8148130458       19.9732093914  MEMB      84              0.0000000000
      9529        84  SAPE      O13            29.8109833652      -24.5906299595       20.8769834542  MEMB      84              0.0000000000
      9530        84  SAPE      O14            30.1143024526      -22.7261608625       19.1552997331  MEMB      84              0.0000000000
      9531        84  SAPE      O12            31.9083465829      -23.1453478529       20.7677834551  MEMB      84              0.0000000000
      9532        84  SAPE      O11            31.3824473012      -24.8140319887       18.9810585350  MEMB      84              0.0000000000
      9533        84  SAPE      C1             30.6151762119      -25.5957365731       18.0850422614  MEMB      84              0.0000000000
      9534        84  SAPE      HA             30.0795622158      -26.3927911357       18.6566447562  MEMB      84              0.0000000000
      9535        84  SAPE      HB             29.8678435357      -24.9931406366       17.5191469410  MEMB      84              0.0000000000
      9536        84  SAPE      C2             31.5624233311      -26.2204209882       17.0401361203  MEMB      84              0.0000000000
      9537        84  SAPE      HS             32.3379145119      -26.8073648725       17.5957109850  MEMB      84              0.0000000000
      9538        84  SAPE      O21            32.1473386440      -25.2662022826       16.1655756752  MEMB      84              0.0000000000
      9539        84  SAPE      C21            33.4271525782      -25.2103650950       15.9529605432  MEMB      84              0.0000000000
      9540        84  SAPE      O22            34.3362705667      -25.5183198866       16.7057944541  MEMB      84              0.0000000000
      9541        84  SAPE      C22            33.6175474598      -24.6287312236       14.5715601988  MEMB      84              0.0000000000
      9542        84  SAPE      H2R            34.5848199439      -24.0865841359       14.6096104906  MEMB      84              0.0000000000
      9543        84  SAPE      H2S            33.6780907507      -25.4502653035       13.8296317623  MEMB      84              0.0000000000
      9544        84  SAPE      C3             30.7712234319      -27.1608789235       16.1309014018  MEMB      84              0.0000000000
      9545        84  SAPE      HX             30.1133911979      -27.7735366760       16.7842676113  MEMB      84              0.0000000000
      9546        84  SAPE      HY             31.5879275119      -27.7416441813       15.6464763428  MEMB      84              0.0000000000
      9547        84  SAPE      O31            29.9406063414      -26.5682416305       15.1512149368  MEMB      84              0.0000000000
      9548        84  SAPE      C31            30.1591603630      -27.0017976852       13.9276001502  MEMB      84              0.0000000000
      9549        84  SAPE      O32            30.9779689982      -27.8131246050       13.5357766756  MEMB      84              0.0000000000
      9550        84  SAPE      C32            29.1327649548      -26.3144394166       13.1149567956  MEMB      84              0.0000000000
      9551        84  SAPE      H2X            29.1160099624      -25.2484688086       13.4212418221  MEMB      84              0.0000000000
      9552        84  SAPE      H2Y            28.1365498807      -26.7570777556       13.3316412204  MEMB      84              0.0000000000
      9553        84  SAPE      C23            32.4117619696      -23.7389755516       14.2053002470  MEMB      84              0.0000000000
      9554        84  SAPE      H3R            32.2474302304      -22.9758409344       15.0123714853  MEMB      84              0.0000000000
      9555        84  SAPE      H3S            31.4991363147      -24.3643962290       14.0986938849  MEMB      84              0.0000000000
      9556        84  SAPE      C24            32.5457083074      -23.0473444186       12.8902535041  MEMB      84              0.0000000000
      9557        84  SAPE      H4R            31.6675780887      -22.3739557452       12.8018014425  MEMB      84              0.0000000000
      9558        84  SAPE      H4S            32.5017201438      -23.6523787088       11.9729428933  MEMB      84              0.0000000000
      9559        84  SAPE      C25            33.8341942525      -22.3317052921       13.0285977862  MEMB      84              0.0000000000
      9560        84  SAPE      H5R            33.6101304919      -21.3245458809       13.0702929228  MEMB      84              0.0000000000
      9561        84  SAPE      C26            35.0174391979      -22.5309443851       12.4751345960  MEMB      84              0.0000000000
      9562        84  SAPE      H6R            35.6854424974      -21.6721118683       12.3181999478  MEMB      84              0.0000000000
      9563        84  SAPE      C27            35.2256628932      -23.6335362196       11.5519029484  MEMB      84              0.0000000000
      9564        84  SAPE      H7R            34.4605542429      -24.4176199767       11.6937230506  MEMB      84              0.0000000000
      9565        84  SAPE      H7S            36.0799930715      -24.0184312275       12.0401566942  MEMB      84              0.0000000000
      9566        84  SAPE      C28            35.5738760547      -23.3368642222       10.1203454991  MEMB      84              0.0000000000
      9567        84  SAPE      H8R            36.3383810601      -22.5698996276        9.9195614328  MEMB      84              0.0000000000
      9568        84  SAPE      C29            35.0220069594      -23.9608466931        9.0843189885  MEMB      84              0.0000000000
      9569        84  SAPE      H9R            35.3423398687      -23.6774764489        8.0732774627  MEMB      84              0.0000000000
      9570        84  SAPE      C210           33.9790799644      -25.0338309502        9.1810937429  MEMB      84              0.0000000000
      9571        84  SAPE      H10R           33.0628004414      -24.5947254611        9.6372291810  MEMB      84              0.0000000000
      9572        84  SAPE      H10S           34.2946799274      -25.8644708147        9.8517141165  MEMB      84              0.0000000000
      9573        84  SAPE      C211           33.7474852717      -25.5716282404        7.7952699173  MEMB      84              0.0000000000
      9574        84  SAPE      H11R           34.5834094140      -25.4701071421        7.0965197808  MEMB      84              0.0000000000
      9575        84  SAPE      C212           32.6031281814      -26.0671411318        7.3402008747  MEMB      84              0.0000000000
      9576        84  SAPE      H12R           32.5393348630      -26.4528246113        6.3092024109  MEMB      84              0.0000000000
      9577        84  SAPE      C213           31.4166764649      -26.1133839395        8.2424336985  MEMB      84              0.0000000000
      9578        84  SAPE      H13R           30.9371765731      -25.1261195103        8.2081841044  MEMB      84              0.0000000000
      9579        84  SAPE      H13S           31.6936811613      -26.3753254503        9.2812937038  MEMB      84              0.0000000000
      9580        84  SAPE      C214           30.3657678435      -27.0634080177        7.9409160429  MEMB      84              0.0000000000
      9581        84  SAPE      H14R           30.6360089250      -28.0953985132        8.2531915388  MEMB      84              0.0000000000
      9582        84  SAPE      C215           29.3058539482      -26.7757517091        7.1615260749  MEMB      84              0.0000000000
      9583        84  SAPE      H15R           28.4758291638      -27.4415792172        7.0135956184  MEMB      84              0.0000000000
      9584        84  SAPE      C216           28.8365931277      -25.6274773167        6.4236447144  MEMB      84              0.0000000000
      9585        84  SAPE      H16R           29.3788604118      -24.7395832361        6.7631360362  MEMB      84              0.0000000000
      9586        84  SAPE      H16S           27.7597892319      -25.6495979136        6.6692489846  MEMB      84              0.0000000000
      9587        84  SAPE      C217           28.7880852755      -25.7738156052        4.9160691424  MEMB      84              0.0000000000
      9588        84  SAPE      H17R           28.3007519641      -24.8501117584        4.5192608931  MEMB      84              0.0000000000
      9589        84  SAPE      H17S           28.1519585437      -26.6266929767        4.6090916290  MEMB      84              0.0000000000
      9590        84  SAPE      C218           30.1734584442      -25.8540687787        4.3144417954  MEMB      84              0.0000000000
      9591        84  SAPE      H18R           30.9594882206      -26.1960100524        5.0038242341  MEMB      84              0.0000000000
      9592        84  SAPE      H18S           30.3493322205      -24.7738519646        4.1638611402  MEMB      84              0.0000000000
      9593        84  SAPE      C219           30.2695678627      -26.6404575409        3.0081517281  MEMB      84              0.0000000000
      9594        84  SAPE      H19R           30.2966142648      -27.7188849974        3.0595910276  MEMB      84              0.0000000000
      9595        84  SAPE      H19S           31.2911462211      -26.5676094894        2.5946908329  MEMB      84              0.0000000000
      9596        84  SAPE      C220           29.1713361244      -26.2128521562        2.0181795059  MEMB      84              0.0000000000
      9597        84  SAPE      H20R           29.0279774471      -25.1340595446        1.8774414258  MEMB      84              0.0000000000
      9598        84  SAPE      H20S           28.2001962207      -26.4911213283        2.4495800277  MEMB      84              0.0000000000
      9599        84  SAPE      H20T           29.3878903148      -26.7369859171        1.0533679980  MEMB      84              0.0000000000
      9600        84  SAPE      C33            29.4528731028      -26.4740498793       11.6536993359  MEMB      84              0.0000000000
      9601        84  SAPE      H3X            29.5455554064      -27.5361643940       11.3297054119  MEMB      84              0.0000000000
      9602        84  SAPE      H3Y            30.3410530139      -25.8833064116       11.3369490548  MEMB      84              0.0000000000
      9603        84  SAPE      C34            28.3163975203      -25.9064102115       10.9082261003  MEMB      84              0.0000000000
      9604        84  SAPE      H4X            27.3745950586      -26.4009470628       11.2236033607  MEMB      84              0.0000000000
      9605        84  SAPE      H4Y            28.4911308295      -26.3465590939        9.8965643587  MEMB      84              0.0000000000
      9606        84  SAPE      C35            28.3394415404      -24.3426209624       11.0595732520  MEMB      84              0.0000000000
      9607        84  SAPE      H5X            27.9776304281      -24.0210488729       12.0411880158  MEMB      84              0.0000000000
      9608        84  SAPE      H5Y            27.5700122214      -23.6572500740       10.6679610052  MEMB      84              0.0000000000
      9609        84  SAPE      C36            29.3767220387      -23.7054286377       10.1659887146  MEMB      84              0.0000000000
      9610        84  SAPE      H6X            29.5603479014      -24.3099378797        9.2604040821  MEMB      84              0.0000000000
      9611        84  SAPE      H6Y            30.2361940039      -23.5812082909       10.8466549591  MEMB      84              0.0000000000
      9612        84  SAPE      C37            29.0257708067      -22.3708833750        9.5489376174  MEMB      84              0.0000000000
      9613        84  SAPE      H7X            28.9670904252      -21.8483269474       10.4804384435  MEMB      84              0.0000000000
      9614        84  SAPE      H7Y            28.0391163822      -22.1740765375        9.0723387169  MEMB      84              0.0000000000
      9615        84  SAPE      C38            30.1651947904      -21.8299628187        8.6965666002  MEMB      84              0.0000000000
      9616        84  SAPE      H8X            29.8806658148      -20.8741796160        8.2302739999  MEMB      84              0.0000000000
      9617        84  SAPE      H8Y            30.2494097214      -22.4935700874        7.8301096998  MEMB      84              0.0000000000
      9618        84  SAPE      C39            31.5476840124      -21.7659100010        9.3681472202  MEMB      84              0.0000000000
      9619        84  SAPE      H9X            31.8940199114      -22.7805994314        9.6184990104  MEMB      84              0.0000000000
      9620        84  SAPE      H9Y            31.5739330792      -21.3329424528       10.3697122634  MEMB      84              0.0000000000
      9621        84  SAPE      C310           32.5583465686      -21.0840629844        8.4475663245  MEMB      84              0.0000000000
      9622        84  SAPE      H10X           33.5898541736      -21.2526390090        8.8445676574  MEMB      84              0.0000000000
      9623        84  SAPE      H10Y           32.4033627673      -19.9773698103        8.3819011742  MEMB      84              0.0000000000
      9624        84  SAPE      C311           32.4884078744      -21.6744839904        7.0948342277  MEMB      84              0.0000000000
      9625        84  SAPE      H11X           31.6125587125      -21.2657354375        6.5534692718  MEMB      84              0.0000000000
      9626        84  SAPE      H11Y           32.3971003168      -22.7837789047        7.2063895286  MEMB      84              0.0000000000
      9627        84  SAPE      C312           33.6991141527      -21.3252803536        6.3214534200  MEMB      84              0.0000000000
      9628        84  SAPE      H12X           34.6377517789      -21.3353486414        6.9075543035  MEMB      84              0.0000000000
      9629        84  SAPE      H12Y           33.5663283194      -20.3692896509        5.7680645507  MEMB      84              0.0000000000
      9630        84  SAPE      C313           33.8536361479      -22.3501255310        5.3196015574  MEMB      84              0.0000000000
      9631        84  SAPE      H13X           32.8963158244      -22.3920478000        4.7604245293  MEMB      84              0.0000000000
      9632        84  SAPE      H13Y           33.9601427990      -23.3758034010        5.7672673242  MEMB      84              0.0000000000
      9633        84  SAPE      C314           35.0457513217      -21.9111316015        4.5454667056  MEMB      84              0.0000000000
      9634        84  SAPE      H14X           36.0525222580      -21.8473644061        5.0259727996  MEMB      84              0.0000000000
      9635        84  SAPE      H14Y           34.9323906747      -21.1277008001        3.7418584217  MEMB      84              0.0000000000
      9636        84  SAPE      C315           35.1956395985      -23.1679866482        3.9054913299  MEMB      84              0.0000000000
      9637        84  SAPE      H15X           35.1685974105      -24.0934898794        4.4688979923  MEMB      84              0.0000000000
      9638        84  SAPE      H15Y           36.2462695609      -22.9608984161        3.4665389741  MEMB      84              0.0000000000
      9639        84  SAPE      C316           33.9099807971      -23.5696940605        2.9956133356  MEMB      84              0.0000000000
      9640        84  SAPE      H16X           34.6967934623      -22.6832569052        2.6434657160  MEMB      84              0.0000000000
      9641        84  SAPE      H16Y           33.1406013792      -22.8537631478        3.0482429955  MEMB      84              0.0000000000
      9642        84  SAPE      C317           33.6947738447      -24.9221967076        1.1919090097  MEMB      84              0.0000000000
      9643        84  SAPE      H17X           33.0145808719      -25.1427210220        0.4687868184  MEMB      84              0.0000000000
      9644        84  SAPE      H17Y           33.5685485025      -25.7148730675        1.7912427264  MEMB      84              0.0000000000
      9645        84  SAPE      C318           34.8124780481      -24.4692211153       -0.3403754456  MEMB      84              0.0000000000
      9646        84  SAPE      H18X           34.3997134775      -25.1170199264       -0.9701815733  MEMB      84              0.0000000000
      9647        84  SAPE      H18Y           35.9787676641      -24.4534145647       -0.1842545174  MEMB      84              0.0000000000
      9648        84  SAPE      H18Z           35.3178615670      -23.4871909580       -0.6154971195  MEMB      84              0.0000000000
      9649        85  SAPE      N             -28.3771235479      -32.2574231387       20.5417630017  MEMB      85              0.0000000000
      9650        85  SAPE      HN1           -28.8172075926      -32.1980444665       19.5998780268  MEMB      85              0.0000000000
      9651        85  SAPE      HN2           -27.4650846820      -32.7601524710       20.4615869385  MEMB      85              0.0000000000
      9652        85  SAPE      HN3           -28.9876276605      -32.7715059448       21.2028755761  MEMB      85              0.0000000000
      9653        85  SAPE      C12           -28.1008907521      -30.8741468088       21.0259200162  MEMB      85              0.0000000000
      9654        85  SAPE      H12A          -27.6378960063      -30.8949870900       22.0338205591  MEMB      85              0.0000000000
      9655        85  SAPE      H12B          -29.0494962583      -30.3350240471       21.1118475824  MEMB      85              0.0000000000
      9656        85  SAPE      C11           -27.2774435421      -30.1566234217       19.9856812330  MEMB      85              0.0000000000
      9657        85  SAPE      H11A          -27.8935120143      -30.0430455481       19.0586513828  MEMB      85              0.0000000000
      9658        85  SAPE      H11B          -26.3290563225      -30.6854130145       19.7558174574  MEMB      85              0.0000000000
      9659        85  SAPE      P             -26.8342262083      -27.5997068443       19.7133932793  MEMB      85              0.0000000000
      9660        85  SAPE      O13           -28.1942699528      -27.0420106305       19.7139724841  MEMB      85              0.0000000000
      9661        85  SAPE      O14           -25.6509513862      -26.9365636629       20.2880898103  MEMB      85              0.0000000000
      9662        85  SAPE      O12           -26.9441789522      -28.9219128081       20.5422647440  MEMB      85              0.0000000000
      9663        85  SAPE      O11           -26.4898961821      -28.0656688678       18.2840172416  MEMB      85              0.0000000000
      9664        85  SAPE      C1            -25.1962539522      -28.5659169770       18.0951857891  MEMB      85              0.0000000000
      9665        85  SAPE      HA            -24.5068872725      -27.6980750407       18.0871209932  MEMB      85              0.0000000000
      9666        85  SAPE      HB            -24.8733594875      -29.2610053982       18.9046850755  MEMB      85              0.0000000000
      9667        85  SAPE      C2            -25.2464644530      -29.3811347386       16.8205746171  MEMB      85              0.0000000000
      9668        85  SAPE      HS            -24.1781177802      -29.7597645611       16.6640145526  MEMB      85              0.0000000000
      9669        85  SAPE      O21           -25.9217191430      -28.6094327198       15.7903186377  MEMB      85              0.0000000000
      9670        85  SAPE      C21           -25.0404742433      -28.0713461321       15.0969426350  MEMB      85              0.0000000000
      9671        85  SAPE      O22           -23.8914014958      -28.4802802628       15.0612468840  MEMB      85              0.0000000000
      9672        85  SAPE      C22           -25.5597420797      -26.9656577439       14.2184265384  MEMB      85              0.0000000000
      9673        85  SAPE      H2R           -26.5418269427      -26.6467922477       14.5408753247  MEMB      85              0.0000000000
      9674        85  SAPE      H2S           -24.9300723951      -26.0436032348       14.2059084614  MEMB      85              0.0000000000
      9675        85  SAPE      C3            -26.0730627509      -30.6134920152       16.9857849102  MEMB      85              0.0000000000
      9676        85  SAPE      HX            -27.1064545896      -30.2434409436       16.9582621126  MEMB      85              0.0000000000
      9677        85  SAPE      HY            -25.8432553057      -31.2067314601       17.8822396884  MEMB      85              0.0000000000
      9678        85  SAPE      O31           -25.9933378739      -31.3810874726       15.8438549120  MEMB      85              0.0000000000
      9679        85  SAPE      C31           -24.9535227370      -32.0468091281       15.8110806907  MEMB      85              0.0000000000
      9680        85  SAPE      O32           -24.1558328414      -32.3206273759       16.6927164274  MEMB      85              0.0000000000
      9681        85  SAPE      C32           -24.9172222083      -32.3106778383       14.3712816366  MEMB      85              0.0000000000
      9682        85  SAPE      H2X           -25.7806259034      -32.7725186005       13.9161818465  MEMB      85              0.0000000000
      9683        85  SAPE      H2Y           -24.4933430506      -33.3035823633       14.7245977949  MEMB      85              0.0000000000
      9684        85  SAPE      C23           -25.4826332393      -27.6428883820       12.8649750961  MEMB      85              0.0000000000
      9685        85  SAPE      H3R           -24.9459204082      -28.5895905973       12.8257576225  MEMB      85              0.0000000000
      9686        85  SAPE      H3S           -24.8422585238      -27.0288718680       12.2736782167  MEMB      85              0.0000000000
      9687        85  SAPE      C24           -26.5357973662      -27.4827771203       11.8918015129  MEMB      85              0.0000000000
      9688        85  SAPE      H4R           -26.0714626960      -27.6306810338       10.8828515604  MEMB      85              0.0000000000
      9689        85  SAPE      H4S           -26.8283993407      -26.4464158895       11.9555950887  MEMB      85              0.0000000000
      9690        85  SAPE      C25           -27.6127412375      -28.3984209138       12.2343976701  MEMB      85              0.0000000000
      9691        85  SAPE      H5R           -27.5974370258      -28.8485046557       13.2341759571  MEMB      85              0.0000000000
      9692        85  SAPE      C26           -28.4835337248      -28.7381381806       11.3059727825  MEMB      85              0.0000000000
      9693        85  SAPE      H6R           -29.3204605608      -29.3628486128       11.6138646520  MEMB      85              0.0000000000
      9694        85  SAPE      C27           -28.4471593925      -28.2319964681        9.8907596324  MEMB      85              0.0000000000
      9695        85  SAPE      H7R           -28.1633145806      -27.1713622709        9.8853554928  MEMB      85              0.0000000000
      9696        85  SAPE      H7S           -29.4952319979      -28.2116004722        9.5555454381  MEMB      85              0.0000000000
      9697        85  SAPE      C28           -27.5247243406      -28.9367714570        8.9170569804  MEMB      85              0.0000000000
      9698        85  SAPE      H8R           -26.4413392409      -28.8568045854        9.1293942307  MEMB      85              0.0000000000
      9699        85  SAPE      C29           -27.8980397183      -29.6020406725        7.8076213517  MEMB      85              0.0000000000
      9700        85  SAPE      H9R           -27.1043648190      -29.9954072215        7.1548947953  MEMB      85              0.0000000000
      9701        85  SAPE      C210          -29.3006625228      -29.8019918144        7.2804959383  MEMB      85              0.0000000000
      9702        85  SAPE      H10R          -30.0365721230      -29.1854244530        7.8352750129  MEMB      85              0.0000000000
      9703        85  SAPE      H10S          -29.6271688157      -30.8526488557        7.4471904898  MEMB      85              0.0000000000
      9704        85  SAPE      C211          -29.3826526425      -29.4832763118        5.8124623603  MEMB      85              0.0000000000
      9705        85  SAPE      H11R          -29.2434911369      -28.4420297740        5.5065066895  MEMB      85              0.0000000000
      9706        85  SAPE      C212          -29.5938874758      -30.3527708597        4.8363391250  MEMB      85              0.0000000000
      9707        85  SAPE      H12R          -29.5894609023      -29.9605706828        3.7990993742  MEMB      85              0.0000000000
      9708        85  SAPE      C213          -29.7889437392      -31.8327958759        5.0072264666  MEMB      85              0.0000000000
      9709        85  SAPE      H13R          -30.8759768051      -32.0948399385        5.0662080208  MEMB      85              0.0000000000
      9710        85  SAPE      H13S          -29.2344147064      -32.3976250380        5.7585516438  MEMB      85              0.0000000000
      9711        85  SAPE      C214          -29.2774986177      -32.3178005960        3.7509381621  MEMB      85              0.0000000000
      9712        85  SAPE      H14R          -30.0932140562      -32.9540308586        3.4145613430  MEMB      85              0.0000000000
      9713        85  SAPE      C215          -28.1358885666      -32.4629367170        3.0769578827  MEMB      85              0.0000000000
      9714        85  SAPE      H15R          -28.0699472764      -33.0349255769        2.1178720693  MEMB      85              0.0000000000
      9715        85  SAPE      C216          -26.8950690469      -32.0827709645        3.6630812813  MEMB      85              0.0000000000
      9716        85  SAPE      H16R          -26.3522322311      -33.0022219768        3.9506748360  MEMB      85              0.0000000000
      9717        85  SAPE      H16S          -27.1143855698      -31.4327075281        4.5170181239  MEMB      85              0.0000000000
      9718        85  SAPE      C217          -26.1853917581      -31.4344130640        2.5759408771  MEMB      85              0.0000000000
      9719        85  SAPE      H17R          -25.4845128725      -30.7672499822        3.1312497330  MEMB      85              0.0000000000
      9720        85  SAPE      H17S          -26.8288432931      -30.7612665351        1.9740228081  MEMB      85              0.0000000000
      9721        85  SAPE      C218          -25.4932005311      -32.4683451387        1.6715054065  MEMB      85              0.0000000000
      9722        85  SAPE      H18R          -26.0161850466      -33.3987388235        1.4597709999  MEMB      85              0.0000000000
      9723        85  SAPE      H18S          -24.5146336676      -32.7215127687        2.1647105141  MEMB      85              0.0000000000
      9724        85  SAPE      C219          -25.3172008303      -31.9273488807        0.2879056238  MEMB      85              0.0000000000
      9725        85  SAPE      H19R          -26.0992090936      -31.4796097827       -0.3406579837  MEMB      85              0.0000000000
      9726        85  SAPE      H19S          -24.5704894546      -32.4935700612       -0.2949141082  MEMB      85              0.0000000000
      9727        85  SAPE      C220          -24.6231558140      -30.7875283309        0.6263239425  MEMB      85              0.0000000000
      9728        85  SAPE      H20R          -24.7614315926      -30.1576026887        1.4523348636  MEMB      85              0.0000000000
      9729        85  SAPE      H20S          -24.2234111204      -30.1847922360       -0.1608654673  MEMB      85              0.0000000000
      9730        85  SAPE      H20T          -23.8251476495      -31.2704668792        1.0657539386  MEMB      85              0.0000000000
      9731        85  SAPE      C33           -24.1306128829      -31.1625105834       13.4472998680  MEMB      85              0.0000000000
      9732        85  SAPE      H3X           -23.3287494095      -30.6937349600       14.0605571579  MEMB      85              0.0000000000
      9733        85  SAPE      H3Y           -24.8253995480      -30.3774508825       13.2396489437  MEMB      85              0.0000000000
      9734        85  SAPE      C34           -23.5177241326      -31.3659813463       11.9663397299  MEMB      85              0.0000000000
      9735        85  SAPE      H4X           -24.2527654243      -31.8679870445       11.2944217175  MEMB      85              0.0000000000
      9736        85  SAPE      H4Y           -22.6577828718      -32.0376636583       11.8860816586  MEMB      85              0.0000000000
      9737        85  SAPE      C35           -22.6764015337      -30.4226504319       11.2073640023  MEMB      85              0.0000000000
      9738        85  SAPE      H5X           -22.1302240601      -30.8699318538       10.3733626685  MEMB      85              0.0000000000
      9739        85  SAPE      H5Y           -21.7357704677      -30.0745371796       11.6600846565  MEMB      85              0.0000000000
      9740        85  SAPE      C36           -23.7792506393      -29.7330272000       10.5220204609  MEMB      85              0.0000000000
      9741        85  SAPE      H6X           -23.9500985406      -28.9350133607       11.2189884829  MEMB      85              0.0000000000
      9742        85  SAPE      H6Y           -24.7007888111      -30.3482763438       10.3456274836  MEMB      85              0.0000000000
      9743        85  SAPE      C37           -23.3852884458      -29.3260355027        9.1864088669  MEMB      85              0.0000000000
      9744        85  SAPE      H7X           -22.2837054132      -29.2876837545        9.3734629967  MEMB      85              0.0000000000
      9745        85  SAPE      H7Y           -23.6561593980      -28.2921703792        9.0100100395  MEMB      85              0.0000000000
      9746        85  SAPE      C38           -24.1058177521      -30.2438934059        8.1574730540  MEMB      85              0.0000000000
      9747        85  SAPE      H8X           -25.1753326942      -30.2605186401        8.2782475876  MEMB      85              0.0000000000
      9748        85  SAPE      H8Y           -23.7558298014      -31.2928315927        8.1470619839  MEMB      85              0.0000000000
      9749        85  SAPE      C39           -24.2343863104      -29.8145662138        6.7271019219  MEMB      85              0.0000000000
      9750        85  SAPE      H9X           -24.5521277639      -30.4144947499        5.8928347193  MEMB      85              0.0000000000
      9751        85  SAPE      H9Y           -23.4737492081      -30.5012717740        6.4559759960  MEMB      85              0.0000000000
      9752        85  SAPE      C310          -24.3154538255      -28.3427734732        6.4529816981  MEMB      85              0.0000000000
      9753        85  SAPE      H10X          -23.6638962100      -27.6163808353        7.0144033145  MEMB      85              0.0000000000
      9754        85  SAPE      H10Y          -25.3961659658      -28.1414798985        6.5070437597  MEMB      85              0.0000000000
      9755        85  SAPE      C311          -24.1486575920      -28.0068963550        5.0445023132  MEMB      85              0.0000000000
      9756        85  SAPE      H11X          -24.5823703986      -28.7234761319        4.3212807918  MEMB      85              0.0000000000
      9757        85  SAPE      H11Y          -23.1392910102      -28.2035422587        4.8476904459  MEMB      85              0.0000000000
      9758        85  SAPE      C312          -24.3873341351      -26.5361979809        4.8949681323  MEMB      85              0.0000000000
      9759        85  SAPE      H12X          -23.5121371733      -25.9139446092        4.5450558445  MEMB      85              0.0000000000
      9760        85  SAPE      H12Y          -24.8485765115      -26.0884265607        5.7768785379  MEMB      85              0.0000000000
      9761        85  SAPE      C313          -25.4748193621      -26.3884604932        3.9482517262  MEMB      85              0.0000000000
      9762        85  SAPE      H13X          -24.7432718775      -26.6581677226        3.1912432255  MEMB      85              0.0000000000
      9763        85  SAPE      H13Y          -25.7572607189      -25.5617482560        3.4148314369  MEMB      85              0.0000000000
      9764        85  SAPE      C314          -26.7580082591      -27.1649066220        4.1697048591  MEMB      85              0.0000000000
      9765        85  SAPE      H14X          -27.0477491533      -27.0950938957        5.2141571551  MEMB      85              0.0000000000
      9766        85  SAPE      H14Y          -26.4247028764      -28.1987618138        4.1495030750  MEMB      85              0.0000000000
      9767        85  SAPE      C315          -27.9809988594      -26.8886419839        3.2267943913  MEMB      85              0.0000000000
      9768        85  SAPE      H15X          -28.2678616977      -25.8101793866        3.3273021138  MEMB      85              0.0000000000
      9769        85  SAPE      H15Y          -28.7519061787      -27.6534529806        3.3905096181  MEMB      85              0.0000000000
      9770        85  SAPE      C316          -28.0623126274      -27.0622946171        1.7096163305  MEMB      85              0.0000000000
      9771        85  SAPE      H16X          -27.2563438476      -26.3655062184        1.3538677365  MEMB      85              0.0000000000
      9772        85  SAPE      H16Y          -28.6720361518      -26.2955644792        1.4040436528  MEMB      85              0.0000000000
      9773        85  SAPE      C317          -28.3895799493      -28.5333986029        1.0267378531  MEMB      85              0.0000000000
      9774        85  SAPE      H17X          -28.8218415390      -29.2828921653        1.6641999460  MEMB      85              0.0000000000
      9775        85  SAPE      H17Y          -27.6419623880      -29.2511758120        1.2426483693  MEMB      85              0.0000000000
      9776        85  SAPE      C318          -28.1989248910      -28.9184346970       -0.4995558192  MEMB      85              0.0000000000
      9777        85  SAPE      H18X          -27.8385945018      -29.8920086185       -0.9155164989  MEMB      85              0.0000000000
      9778        85  SAPE      H18Y          -27.5743272043      -28.3014045592       -1.1390326479  MEMB      85              0.0000000000
      9779        85  SAPE      H18Z          -29.2146424048      -28.7239511983       -0.7416047064  MEMB      85              0.0000000000
      9780        86  CHL1      C3            -33.0438674719      -22.6838360379       17.3637811857  MEMB      86              0.0000000000
      9781        86  CHL1      H3            -33.1683990360      -23.7899733932       17.2802427024  MEMB      86              0.0000000000
      9782        86  CHL1      O3            -33.3197600537      -22.2680834240       18.6784918042  MEMB      86              0.0000000000
      9783        86  CHL1      H3'           -34.2760793502      -22.3848458398       18.7627411286  MEMB      86              0.0000000000
      9784        86  CHL1      C4            -31.5887847076      -22.3670505320       17.0330393644  MEMB      86              0.0000000000
      9785        86  CHL1      H4A           -31.3900980269      -21.2884555013       17.1918529807  MEMB      86              0.0000000000
      9786        86  CHL1      H4B           -30.9654635010      -22.9512629052       17.7404315307  MEMB      86              0.0000000000
      9787        86  CHL1      C5            -31.3398556168      -22.7822033215       15.6178919236  MEMB      86              0.0000000000
      9788        86  CHL1      C6            -30.4420386596      -23.6909770270       15.2781706141  MEMB      86              0.0000000000
      9789        86  CHL1      H6            -29.7398750217      -24.1248638486       16.0039376171  MEMB      86              0.0000000000
      9790        86  CHL1      C7            -30.2849820239      -24.1081412795       13.8710625989  MEMB      86              0.0000000000
      9791        86  CHL1      H7A           -29.2928982364      -24.1438855361       13.8630353730  MEMB      86              0.0000000000
      9792        86  CHL1      H7B           -30.4677517536      -25.1716461305       13.6524977488  MEMB      86              0.0000000000
      9793        86  CHL1      C8            -30.7587311643      -23.1225795493       12.8047961301  MEMB      86              0.0000000000
      9794        86  CHL1      H8            -30.1662091973      -22.1816318261       12.7415570776  MEMB      86              0.0000000000
      9795        86  CHL1      C14           -30.7844623185      -23.7747795746       11.4201524212  MEMB      86              0.0000000000
      9796        86  CHL1      H14           -31.2903537241      -24.7810744267       11.5346068676  MEMB      86              0.0000000000
      9797        86  CHL1      C15           -29.5858057760      -24.1634736616       10.7256111797  MEMB      86              0.0000000000
      9798        86  CHL1      H15A          -28.8906931053      -23.3493174298       10.8908725900  MEMB      86              0.0000000000
      9799        86  CHL1      H15B          -29.3095491667      -25.1328106542       11.2002637322  MEMB      86              0.0000000000
      9800        86  CHL1      C16           -29.8113735751      -24.2160108611        9.1977280490  MEMB      86              0.0000000000
      9801        86  CHL1      H16A          -29.1721947759      -23.5163373404        8.6162100844  MEMB      86              0.0000000000
      9802        86  CHL1      H16B          -29.6696909233      -25.2436669541        8.7836521339  MEMB      86              0.0000000000
      9803        86  CHL1      C17           -31.2109749300      -23.6667993895        9.0244819171  MEMB      86              0.0000000000
      9804        86  CHL1      H17           -31.6661092889      -24.6344475290        8.9578324619  MEMB      86              0.0000000000
      9805        86  CHL1      C13           -31.4097158782      -22.9006384376       10.3660082270  MEMB      86              0.0000000000
      9806        86  CHL1      C18           -30.8197522084      -21.5529425751       10.1026767079  MEMB      86              0.0000000000
      9807        86  CHL1      H18A          -31.3419374203      -21.1103991050        9.2334202094  MEMB      86              0.0000000000
      9808        86  CHL1      H18B          -31.0537615752      -20.8896662779       10.9486978682  MEMB      86              0.0000000000
      9809        86  CHL1      H18C          -29.7488250564      -21.6673776726        9.9060251356  MEMB      86              0.0000000000
      9810        86  CHL1      C12           -32.6906345835      -22.5427088165       10.9695949253  MEMB      86              0.0000000000
      9811        86  CHL1      H12A          -33.4123802974      -22.1128711454       10.2695167746  MEMB      86              0.0000000000
      9812        86  CHL1      H12B          -32.8044356315      -23.5426017015       11.4197840269  MEMB      86              0.0000000000
      9813        86  CHL1      C11           -32.9710484713      -21.9785328224       12.2850181884  MEMB      86              0.0000000000
      9814        86  CHL1      H11A          -32.7955945296      -20.9286406105       12.0512085046  MEMB      86              0.0000000000
      9815        86  CHL1      H11B          -34.0662454280      -22.0388474890       12.4853524979  MEMB      86              0.0000000000
      9816        86  CHL1      C9            -32.1654744261      -22.8079549044       13.2802844690  MEMB      86              0.0000000000
      9817        86  CHL1      H9            -32.5893653532      -23.8491561344       13.4045534563  MEMB      86              0.0000000000
      9818        86  CHL1      C10           -32.3206306486      -22.2139091875       14.6163521829  MEMB      86              0.0000000000
      9819        86  CHL1      C19           -32.0535498515      -20.7581472622       14.4660769425  MEMB      86              0.0000000000
      9820        86  CHL1      H19A          -31.0701564745      -20.4773858664       14.0368359210  MEMB      86              0.0000000000
      9821        86  CHL1      H19B          -32.8867000203      -20.2557911920       13.9363184831  MEMB      86              0.0000000000
      9822        86  CHL1      H19C          -32.1191694695      -20.3874356453       15.4890366840  MEMB      86              0.0000000000
      9823        86  CHL1      C1            -33.8039201800      -22.3749009329       15.0247911155  MEMB      86              0.0000000000
      9824        86  CHL1      H1A           -34.5315879450      -21.8144419155       14.4018703542  MEMB      86              0.0000000000
      9825        86  CHL1      H1B           -34.0611948924      -23.4231201500       14.8943923549  MEMB      86              0.0000000000
      9826        86  CHL1      C2            -34.0426354465      -21.9825238410       16.4575753670  MEMB      86              0.0000000000
      9827        86  CHL1      H2A           -35.0781889363      -22.2602921954       16.7369501388  MEMB      86              0.0000000000
      9828        86  CHL1      H2B           -33.9190241984      -20.8812290118       16.5036004354  MEMB      86              0.0000000000
      9829        86  CHL1      C20           -31.3984726060      -22.9749702969        7.6595161077  MEMB      86              0.0000000000
      9830        86  CHL1      H20           -30.6750120896      -22.1671292690        7.5355842088  MEMB      86              0.0000000000
      9831        86  CHL1      C21           -32.8007816337      -22.3392821827        7.4445714615  MEMB      86              0.0000000000
      9832        86  CHL1      H21A          -32.9889651398      -21.5197700768        8.1418728118  MEMB      86              0.0000000000
      9833        86  CHL1      H21B          -33.6318912061      -22.9165784846        7.7269338197  MEMB      86              0.0000000000
      9834        86  CHL1      H21C          -33.1442356905      -22.2047229170        6.4090671080  MEMB      86              0.0000000000
      9835        86  CHL1      C22           -30.9137912713      -23.8108909111        6.4883299464  MEMB      86              0.0000000000
      9836        86  CHL1      H22A          -30.2156396941      -24.6386626488        6.7251489336  MEMB      86              0.0000000000
      9837        86  CHL1      H22B          -31.7999487902      -24.2898587866        6.3262032460  MEMB      86              0.0000000000
      9838        86  CHL1      C23           -31.1499430877      -23.2255161506        5.1004741468  MEMB      86              0.0000000000
      9839        86  CHL1      H23A          -32.1938563781      -22.8190299602        4.9735946707  MEMB      86              0.0000000000
      9840        86  CHL1      H23B          -30.2806077300      -22.6251020149        4.9094331009  MEMB      86              0.0000000000
      9841        86  CHL1      C24           -31.1912757653      -24.1464565307        3.9522420399  MEMB      86              0.0000000000
      9842        86  CHL1      H24A          -30.2908005775      -24.8189069044        3.9335059215  MEMB      86              0.0000000000
      9843        86  CHL1      H24B          -32.2286288065      -24.5010185636        4.0872590434  MEMB      86              0.0000000000
      9844        86  CHL1      C25           -31.4809753668      -23.7248964991        2.5882555762  MEMB      86              0.0000000000
      9845        86  CHL1      H25           -32.5256028018      -23.3726483190        2.4046036362  MEMB      86              0.0000000000
      9846        86  CHL1      C26           -30.4000559127      -22.8603699510        2.3712466571  MEMB      86              0.0000000000
      9847        86  CHL1      H26A          -30.7712172249      -22.7213025008        1.3449361846  MEMB      86              0.0000000000
      9848        86  CHL1      H26B          -30.3139227587      -21.9097549214        2.8503609695  MEMB      86              0.0000000000
      9849        86  CHL1      H26C          -29.4686280557      -23.4936311424        2.5506006527  MEMB      86              0.0000000000
      9850        86  CHL1      C27           -31.2992322683      -24.8252625353        1.6051180443  MEMB      86              0.0000000000
      9851        86  CHL1      H27A          -31.6689467445      -24.7036759260        0.5645406040  MEMB      86              0.0000000000
      9852        86  CHL1      H27B          -30.4547362245      -25.5486848897        1.6472886117  MEMB      86              0.0000000000
      9853        86  CHL1      H27C          -32.0431833392      -25.3891574223        2.0628869383  MEMB      86              0.0000000000
      9854        87  SAPC      N             -24.5135620241       30.8755467977       21.8019794136  MEMB      87              0.0000000000
      9855        87  SAPC      C12           -24.4987206689       29.9691857436       20.5706330508  MEMB      87              0.0000000000
      9856        87  SAPC      H12A          -24.2712156415       28.9712846386       20.9171246438  MEMB      87              0.0000000000
      9857        87  SAPC      H12B          -23.7121704986       30.3072976916       19.9071879089  MEMB      87              0.0000000000
      9858        87  SAPC      C13           -24.4645532172       32.3063639626       21.3588104169  MEMB      87              0.0000000000
      9859        87  SAPC      H13A          -25.3124585796       32.5444564199       20.7102667714  MEMB      87              0.0000000000
      9860        87  SAPC      H13B          -24.4402105638       33.0097393739       22.1753218240  MEMB      87              0.0000000000
      9861        87  SAPC      H13C          -23.5865391738       32.4597612834       20.7399633327  MEMB      87              0.0000000000
      9862        87  SAPC      C14           -25.7928820010       30.5427296002       22.5241509299  MEMB      87              0.0000000000
      9863        87  SAPC      H14A          -26.0229833925       31.1522898980       23.3806409649  MEMB      87              0.0000000000
      9864        87  SAPC      H14B          -26.5950362323       30.6656176494       21.7854915945  MEMB      87              0.0000000000
      9865        87  SAPC      H14C          -25.8316867644       29.5006841969       22.8009135099  MEMB      87              0.0000000000
      9866        87  SAPC      C15           -23.2994462935       30.6825173131       22.6082927048  MEMB      87              0.0000000000
      9867        87  SAPC      H15A          -23.2847083818       31.3599180155       23.4569982464  MEMB      87              0.0000000000
      9868        87  SAPC      H15B          -23.2306859924       29.6765272111       22.9975721014  MEMB      87              0.0000000000
      9869        87  SAPC      H15C          -22.4039064173       30.9042815410       22.0423314202  MEMB      87              0.0000000000
      9870        87  SAPC      C11           -25.7928634161       29.8512107945       19.7027915420  MEMB      87              0.0000000000
      9871        87  SAPC      H11A          -26.5193716420       29.1552212138       20.1812919009  MEMB      87              0.0000000000
      9872        87  SAPC      H11B          -25.5642800311       29.3848130443       18.7166216990  MEMB      87              0.0000000000
      9873        87  SAPC      P             -26.2542885971       31.9718392780       18.2135731240  MEMB      87              0.0000000000
      9874        87  SAPC      O13           -24.8088578489       32.2402007685       18.1016097601  MEMB      87              0.0000000000
      9875        87  SAPC      O14           -26.9323817359       31.3575807563       17.0471693360  MEMB      87              0.0000000000
      9876        87  SAPC      O12           -26.4257300623       31.1042077311       19.5248552525  MEMB      87              0.0000000000
      9877        87  SAPC      O11           -27.0043156875       33.2910206264       18.5907049789  MEMB      87              0.0000000000
      9878        87  SAPC      C1            -28.1535957759       33.3040653602       19.4237006788  MEMB      87              0.0000000000
      9879        87  SAPC      HA            -28.5191821032       32.2960754808       19.7441664630  MEMB      87              0.0000000000
      9880        87  SAPC      HB            -27.8919689828       33.8688528767       20.3442174593  MEMB      87              0.0000000000
      9881        87  SAPC      C2            -29.3159339802       34.0499148929       18.7232746536  MEMB      87              0.0000000000
      9882        87  SAPC      HS            -30.2317652606       33.9161924576       19.3430596731  MEMB      87              0.0000000000
      9883        87  SAPC      O21           -29.5850296068       33.6422173408       17.3672563677  MEMB      87              0.0000000000
      9884        87  SAPC      C21           -29.8342497746       32.3722039771       17.1571968173  MEMB      87              0.0000000000
      9885        87  SAPC      O22           -29.9310868417       31.4694913021       17.9599264642  MEMB      87              0.0000000000
      9886        87  SAPC      C22           -29.9378101765       32.0996163583       15.6327930250  MEMB      87              0.0000000000
      9887        87  SAPC      H2R           -28.9939493195       32.3765561647       15.1819565834  MEMB      87              0.0000000000
      9888        87  SAPC      H2S           -30.0224593210       30.9827289259       15.5987607029  MEMB      87              0.0000000000
      9889        87  SAPC      C3            -28.9998723124       35.5729829522       18.7395009013  MEMB      87              0.0000000000
      9890        87  SAPC      HX            -28.8687499250       35.8264122064       19.8123387243  MEMB      87              0.0000000000
      9891        87  SAPC      HY            -29.9030051393       36.1065038531       18.3673553393  MEMB      87              0.0000000000
      9892        87  SAPC      O31           -27.7708222784       35.9281385628       18.0659458428  MEMB      87              0.0000000000
      9893        87  SAPC      C31           -27.8617365537       36.6102565855       16.9350449831  MEMB      87              0.0000000000
      9894        87  SAPC      O32           -28.8754960619       37.1579469600       16.5316332369  MEMB      87              0.0000000000
      9895        87  SAPC      C32           -26.4658213725       36.7775531446       16.3224505335  MEMB      87              0.0000000000
      9896        87  SAPC      H2X           -25.6581437085       36.3196843202       16.9324726716  MEMB      87              0.0000000000
      9897        87  SAPC      H2Y           -26.2637096265       37.8690773210       16.3101237485  MEMB      87              0.0000000000
      9898        87  SAPC      C23           -31.0462628246       32.7906811346       14.7582692485  MEMB      87              0.0000000000
      9899        87  SAPC      H3R           -32.0566749571       32.7713843817       15.1075451234  MEMB      87              0.0000000000
      9900        87  SAPC      H3S           -31.1810847908       32.2486965908       13.8145941418  MEMB      87              0.0000000000
      9901        87  SAPC      C24           -31.2433637256       34.2683160638       14.7875526703  MEMB      87              0.0000000000
      9902        87  SAPC      H4R           -31.2922131473       34.6529963664       15.8253463549  MEMB      87              0.0000000000
      9903        87  SAPC      H4S           -32.2390481091       34.4852315874       14.3080582111  MEMB      87              0.0000000000
      9904        87  SAPC      C25           -30.0129027746       34.7373423205       14.1538584780  MEMB      87              0.0000000000
      9905        87  SAPC      H5R           -29.0898050440       34.3975018215       14.5273437650  MEMB      87              0.0000000000
      9906        87  SAPC      C26           -29.8862122010       35.3908624237       13.0735074763  MEMB      87              0.0000000000
      9907        87  SAPC      H6R           -28.9932175421       35.7844398023       12.6313109094  MEMB      87              0.0000000000
      9908        87  SAPC      C27           -30.9639451548       35.7574288558       12.3149516439  MEMB      87              0.0000000000
      9909        87  SAPC      H7R           -31.2623620845       36.7343918274       12.7220637626  MEMB      87              0.0000000000
      9910        87  SAPC      H7S           -31.6764600764       34.8691350807       12.3636659619  MEMB      87              0.0000000000
      9911        87  SAPC      C28           -30.5304500256       36.2787195879       11.1023957006  MEMB      87              0.0000000000
      9912        87  SAPC      H8R           -31.3812445958       37.0645325109       10.8646229705  MEMB      87              0.0000000000
      9913        87  SAPC      C29           -30.3393241524       35.1940834872       10.3302820384  MEMB      87              0.0000000000
      9914        87  SAPC      H9R           -30.9817085189       35.4310951571        9.7882320067  MEMB      87              0.0000000000
      9915        87  SAPC      C210          -30.3629653864       33.6307458200       10.1784504949  MEMB      87              0.0000000000
      9916        87  SAPC      H10R          -30.9285303080       33.1470254436       11.0102101442  MEMB      87              0.0000000000
      9917        87  SAPC      H10S          -29.3648622125       33.4276880680        9.9985524206  MEMB      87              0.0000000000
      9918        87  SAPC      C211          -30.9137522822       32.9889133300        8.8709251226  MEMB      87              0.0000000000
      9919        87  SAPC      H11R          -31.8824002802       32.7994675700        8.7039162046  MEMB      87              0.0000000000
      9920        87  SAPC      C212          -30.6227247287       32.4987620864        7.6754174341  MEMB      87              0.0000000000
      9921        87  SAPC      H12R          -31.4712621195       32.2577045087        6.9688215626  MEMB      87              0.0000000000
      9922        87  SAPC      C213          -29.5519042644       32.4797003127        6.7887804473  MEMB      87              0.0000000000
      9923        87  SAPC      H13R          -29.7233552280       31.6337876691        6.0969913788  MEMB      87              0.0000000000
      9924        87  SAPC      H13S          -28.7735789155       32.4544330815        7.5406255869  MEMB      87              0.0000000000
      9925        87  SAPC      C214          -29.4961629464       33.5881252416        5.9408195246  MEMB      87              0.0000000000
      9926        87  SAPC      H14R          -29.0722610623       34.3812650554        6.5191937747  MEMB      87              0.0000000000
      9927        87  SAPC      C215          -30.3006047889       33.8647339667        4.9221833584  MEMB      87              0.0000000000
      9928        87  SAPC      H15R          -30.4466836824       34.7663069068        4.3483687521  MEMB      87              0.0000000000
      9929        87  SAPC      C216          -31.3497974491       33.4034841021        4.1868609007  MEMB      87              0.0000000000
      9930        87  SAPC      H16R          -32.0988883048       34.1076940411        3.7621266123  MEMB      87              0.0000000000
      9931        87  SAPC      H16S          -31.9514308783       32.9051323199        4.9568242203  MEMB      87              0.0000000000
      9932        87  SAPC      C217          -30.0349258293       33.0092835230        3.4036242028  MEMB      87              0.0000000000
      9933        87  SAPC      H17R          -30.6363589636       32.4003621897        3.0860647207  MEMB      87              0.0000000000
      9934        87  SAPC      H17S          -29.4919836954       32.0670140607        3.6156571909  MEMB      87              0.0000000000
      9935        87  SAPC      C218          -29.8557480625       33.4868550906        1.9635630301  MEMB      87              0.0000000000
      9936        87  SAPC      H18R          -29.6829427036       34.3941504414        2.5140740561  MEMB      87              0.0000000000
      9937        87  SAPC      H18S          -30.5423219250       33.8755204364        1.2056354182  MEMB      87              0.0000000000
      9938        87  SAPC      C219          -29.0178570405       32.7030727541        0.9760703421  MEMB      87              0.0000000000
      9939        87  SAPC      H19R          -28.2473984766       32.1911512123        1.5666991944  MEMB      87              0.0000000000
      9940        87  SAPC      H19S          -28.4746859906       33.4089549266        0.3235939351  MEMB      87              0.0000000000
      9941        87  SAPC      C220          -29.8839412560       31.8408884416        0.0094915304  MEMB      87              0.0000000000
      9942        87  SAPC      H20R          -30.6918071638       32.3221997402       -0.5286575710  MEMB      87              0.0000000000
      9943        87  SAPC      H20S          -30.3256170221       30.9428346010        0.4305504610  MEMB      87              0.0000000000
      9944        87  SAPC      H20T          -29.3454088532       31.3579071161       -0.7745469869  MEMB      87              0.0000000000
      9945        87  SAPC      C33           -26.3928353861       36.2043695877       14.8936471473  MEMB      87              0.0000000000
      9946        87  SAPC      H3X           -25.4477751912       36.5743966867       14.4359375641  MEMB      87              0.0000000000
      9947        87  SAPC      H3Y           -27.2514241113       36.5899359453       14.2976159246  MEMB      87              0.0000000000
      9948        87  SAPC      C34           -26.3835419068       34.6696450865       14.8515533654  MEMB      87              0.0000000000
      9949        87  SAPC      H4X           -27.3267158705       34.2722478272       15.2874412176  MEMB      87              0.0000000000
      9950        87  SAPC      H4Y           -25.5820996970       34.2325751935       15.4874306730  MEMB      87              0.0000000000
      9951        87  SAPC      C35           -26.2650200686       34.1149652157       13.4312528532  MEMB      87              0.0000000000
      9952        87  SAPC      H5X           -25.2793516323       34.3404379409       12.9659170879  MEMB      87              0.0000000000
      9953        87  SAPC      H5Y           -27.0341093089       34.6147488459       12.8006870188  MEMB      87              0.0000000000
      9954        87  SAPC      C36           -26.6172664775       32.6220090371       13.4373870667  MEMB      87              0.0000000000
      9955        87  SAPC      H6X           -27.6723497499       32.5889813112       13.7720229369  MEMB      87              0.0000000000
      9956        87  SAPC      H6Y           -26.0262462641       32.0644227659       14.2005530102  MEMB      87              0.0000000000
      9957        87  SAPC      C37           -26.5388537168       32.0331282775       12.0262835725  MEMB      87              0.0000000000
      9958        87  SAPC      H7X           -25.5128620793       32.2176643697       11.6431984677  MEMB      87              0.0000000000
      9959        87  SAPC      H7Y           -27.2565663604       32.5984548571       11.3930062942  MEMB      87              0.0000000000
      9960        87  SAPC      C38           -26.9363877070       30.5633561123       11.8698318397  MEMB      87              0.0000000000
      9961        87  SAPC      H8X           -28.0327173455       30.4434197450       12.0216165080  MEMB      87              0.0000000000
      9962        87  SAPC      H8Y           -26.4174569371       29.9476399227       12.6404509626  MEMB      87              0.0000000000
      9963        87  SAPC      C39           -26.5509015153       29.9710460304       10.5068248445  MEMB      87              0.0000000000
      9964        87  SAPC      H9X           -26.9929117856       28.9496299793       10.4702094224  MEMB      87              0.0000000000
      9965        87  SAPC      H9Y           -25.4409510442       29.8705284041       10.4658826568  MEMB      87              0.0000000000
      9966        87  SAPC      C310          -27.0178656109       30.6803802193        9.2235441652  MEMB      87              0.0000000000
      9967        87  SAPC      H10X          -26.7903217096       31.7652191156        9.1986873556  MEMB      87              0.0000000000
      9968        87  SAPC      H10Y          -28.1259113196       30.5931189911        9.1460156687  MEMB      87              0.0000000000
      9969        87  SAPC      C311          -26.3115205243       29.9935510890        8.0408101115  MEMB      87              0.0000000000
      9970        87  SAPC      H11X          -26.4663077999       28.8940913033        8.1748104780  MEMB      87              0.0000000000
      9971        87  SAPC      H11Y          -25.2119825201       30.1128487915        8.0939925391  MEMB      87              0.0000000000
      9972        87  SAPC      C312          -26.7930347740       30.4341741572        6.6484858064  MEMB      87              0.0000000000
      9973        87  SAPC      H12X          -27.9096138109       30.3319954970        6.6263077858  MEMB      87              0.0000000000
      9974        87  SAPC      H12Y          -26.3530281644       29.7404864220        5.8998189779  MEMB      87              0.0000000000
      9975        87  SAPC      C313          -26.5249391026       31.8456029454        6.1776928728  MEMB      87              0.0000000000
      9976        87  SAPC      H13X          -26.9079110115       32.5056275178        6.9828061424  MEMB      87              0.0000000000
      9977        87  SAPC      H13Y          -27.1356175951       31.9957734828        5.2551040872  MEMB      87              0.0000000000
      9978        87  SAPC      C314          -25.0903066032       32.1912760835        5.8010931746  MEMB      87              0.0000000000
      9979        87  SAPC      H14X          -24.6776121503       31.5637497569        4.9819661212  MEMB      87              0.0000000000
      9980        87  SAPC      H14Y          -24.4539878590       32.0005232139        6.6938330047  MEMB      87              0.0000000000
      9981        87  SAPC      C315          -25.0060175913       33.6622716913        5.3715056581  MEMB      87              0.0000000000
      9982        87  SAPC      H15X          -24.0007379982       34.0249048409        5.6732554780  MEMB      87              0.0000000000
      9983        87  SAPC      H15Y          -25.7762105576       34.2693406424        5.8974627478  MEMB      87              0.0000000000
      9984        87  SAPC      C316          -25.1194767715       33.9439665939        3.8760049342  MEMB      87              0.0000000000
      9985        87  SAPC      H16X          -24.8561231982       33.0950504942        3.2122090480  MEMB      87              0.0000000000
      9986        87  SAPC      H16Y          -24.4264809851       34.7903018341        3.6421740900  MEMB      87              0.0000000000
      9987        87  SAPC      C317          -26.4349230545       34.4947577868        3.4381125367  MEMB      87              0.0000000000
      9988        87  SAPC      H17X          -26.6840854861       35.3948769446        4.0409449315  MEMB      87              0.0000000000
      9989        87  SAPC      H17Y          -27.3009592228       33.7874798738        3.5330626314  MEMB      87              0.0000000000
      9990        87  SAPC      C318          -26.2255421374       34.8512184734        1.9943323133  MEMB      87              0.0000000000
      9991        87  SAPC      H18X          -27.1753780004       34.4732987370        1.7162050260  MEMB      87              0.0000000000
      9992        87  SAPC      H18Y          -25.8413626279       34.1885062495        1.2146681451  MEMB      87              0.0000000000
      9993        87  SAPC      H18Z          -26.0404773659       35.9323639083        1.7873822102  MEMB      87              0.0000000000
      9994        88  SAPE      N             -21.7081227589      -35.3888344105       22.9868064048  MEMB      88              0.0000000000
      9995        88  SAPE      HN1           -22.6845097734      -35.5022451879       22.6194428694  MEMB      88              0.0000000000
      9996        88  SAPE      HN2           -21.6102893468      -35.9471992163       23.8546593740  MEMB      88              0.0000000000
      9997        88  SAPE      HN3           -21.5719044426      -34.3738788211       23.1395214992  MEMB      88              0.0000000000
      9998        88  SAPE      C12           -20.6991619129      -35.7194812478       21.9176575066  MEMB      88              0.0000000000
      9999        88  SAPE      H12A          -20.9395457558      -36.7299657516       21.6262185038  MEMB      88              0.0000000000
     10000        88  SAPE      H12B          -19.6911382904      -35.8214332214       22.3362063147  MEMB      88              0.0000000000
     10001        88  SAPE      C11           -20.7379111916      -34.7059770254       20.7562970983  MEMB      88              0.0000000000
     10002        88  SAPE      H11A          -20.0537556079      -35.0053090296       19.9304736466  MEMB      88              0.0000000000
     10003        88  SAPE      H11B          -20.3789190328      -33.7209573311       21.1420867560  MEMB      88              0.0000000000
     10004        88  SAPE      P             -22.6958728996      -34.6375450680       18.8223310377  MEMB      88              0.0000000000
     10005        88  SAPE      O13           -22.3876735048      -35.9091206820       18.1582218187  MEMB      88              0.0000000000
     10006        88  SAPE      O14           -24.0981999053      -34.1621819985       18.8974733096  MEMB      88              0.0000000000
     10007        88  SAPE      O12           -22.0694448866      -34.5802402948       20.3011597561  MEMB      88              0.0000000000
     10008        88  SAPE      O11           -21.7961830660      -33.6770779843       18.0453365855  MEMB      88              0.0000000000
     10009        88  SAPE      C1            -21.5721688408      -32.3813646517       18.4747064503  MEMB      88              0.0000000000
     10010        88  SAPE      HA            -22.5263037471      -31.8341985793       18.6670065558  MEMB      88              0.0000000000
     10011        88  SAPE      HB            -20.9146266967      -32.3429274590       19.3711503375  MEMB      88              0.0000000000
     10012        88  SAPE      C2            -20.7926815173      -31.7010253696       17.3725741372  MEMB      88              0.0000000000
     10013        88  SAPE      HS            -21.0080960420      -30.6781992616       17.7184919229  MEMB      88              0.0000000000
     10014        88  SAPE      O21           -21.3126949726      -31.9093168038       16.0686160101  MEMB      88              0.0000000000
     10015        88  SAPE      C21           -20.8036269529      -31.4310873012       14.9580211898  MEMB      88              0.0000000000
     10016        88  SAPE      O22           -20.2066911280      -30.4263736858       14.7578769321  MEMB      88              0.0000000000
     10017        88  SAPE      C22           -21.2876123993      -32.1247000929       13.7264099031  MEMB      88              0.0000000000
     10018        88  SAPE      H2R           -21.5733097461      -31.1497621795       13.2590333324  MEMB      88              0.0000000000
     10019        88  SAPE      H2S           -20.5118487369      -32.5062695213       13.0809597899  MEMB      88              0.0000000000
     10020        88  SAPE      C3            -19.3055388891      -32.1676908328       17.4047519144  MEMB      88              0.0000000000
     10021        88  SAPE      HX            -18.9014696260      -31.8155594270       18.3735935867  MEMB      88              0.0000000000
     10022        88  SAPE      HY            -18.7079157254      -31.6385521400       16.6260004030  MEMB      88              0.0000000000
     10023        88  SAPE      O31           -19.1722444165      -33.6141814599       17.3338338699  MEMB      88              0.0000000000
     10024        88  SAPE      C31           -18.9878198726      -34.0649701198       16.0914783437  MEMB      88              0.0000000000
     10025        88  SAPE      O32           -18.8058900531      -33.3676974099       15.1122315147  MEMB      88              0.0000000000
     10026        88  SAPE      C32           -18.8663083814      -35.5858052406       16.0339391116  MEMB      88              0.0000000000
     10027        88  SAPE      H2X           -19.7273820963      -36.0458030800       16.5665705176  MEMB      88              0.0000000000
     10028        88  SAPE      H2Y           -17.9329994085      -35.8837926066       16.5528504296  MEMB      88              0.0000000000
     10029        88  SAPE      C23           -22.3535393145      -33.2236540707       14.0133246882  MEMB      88              0.0000000000
     10030        88  SAPE      H3R           -22.7978191110      -32.5736892273       14.7689862556  MEMB      88              0.0000000000
     10031        88  SAPE      H3S           -22.1109124247      -33.9184586556       14.8085395080  MEMB      88              0.0000000000
     10032        88  SAPE      C24           -23.3552424809      -33.8836994581       12.8990286489  MEMB      88              0.0000000000
     10033        88  SAPE      H4R           -24.1549486684      -33.3306404558       12.4210304783  MEMB      88              0.0000000000
     10034        88  SAPE      H4S           -24.3635993831      -34.2995179118       13.0541688973  MEMB      88              0.0000000000
     10035        88  SAPE      C25           -22.5776347586      -34.5618678468       11.9107704226  MEMB      88              0.0000000000
     10036        88  SAPE      H5R           -22.2041549079      -35.3601383409       12.5350869426  MEMB      88              0.0000000000
     10037        88  SAPE      C26           -22.1030737601      -34.2528294411       10.6878597059  MEMB      88              0.0000000000
     10038        88  SAPE      H6R           -21.4481961448      -34.9756076160       10.2499432137  MEMB      88              0.0000000000
     10039        88  SAPE      C27           -22.1536125823      -33.0706118820        9.7741454274  MEMB      88              0.0000000000
     10040        88  SAPE      H7R           -21.2462045090      -32.4735320871       10.0452279064  MEMB      88              0.0000000000
     10041        88  SAPE      H7S           -23.0903663402      -32.4791131327        9.8164979430  MEMB      88              0.0000000000
     10042        88  SAPE      C28           -22.2152106281      -33.3031333203        8.3307110338  MEMB      88              0.0000000000
     10043        88  SAPE      H8R           -22.9671495965      -34.0183425873        8.0355158992  MEMB      88              0.0000000000
     10044        88  SAPE      C29           -21.7614472435      -32.4422260905        7.4456285005  MEMB      88              0.0000000000
     10045        88  SAPE      H9R           -21.8284302466      -32.6694936933        6.3714481473  MEMB      88              0.0000000000
     10046        88  SAPE      C210          -21.1294599907      -31.1690274086        7.8723551094  MEMB      88              0.0000000000
     10047        88  SAPE      H10R          -20.2204884183      -31.6514166248        7.6071259819  MEMB      88              0.0000000000
     10048        88  SAPE      H10S          -20.8667950227      -30.9269512141        8.9090688911  MEMB      88              0.0000000000
     10049        88  SAPE      C211          -21.4322022242      -29.8222005412        7.3202963933  MEMB      88              0.0000000000
     10050        88  SAPE      H11R          -21.2871803085      -28.8876563499        7.9211764261  MEMB      88              0.0000000000
     10051        88  SAPE      C212          -21.5649629580      -29.6052328535        6.0885240007  MEMB      88              0.0000000000
     10052        88  SAPE      H12R          -21.7574692038      -28.4757059524        5.9815936708  MEMB      88              0.0000000000
     10053        88  SAPE      C213          -21.3626112358      -30.6743087713        4.9043556788  MEMB      88              0.0000000000
     10054        88  SAPE      H13R          -20.5892806172      -31.4088499025        4.7046122099  MEMB      88              0.0000000000
     10055        88  SAPE      H13S          -20.4406119729      -30.4690532936        4.2212753554  MEMB      88              0.0000000000
     10056        88  SAPE      C214          -22.4950994862      -31.0301223449        4.1424744431  MEMB      88              0.0000000000
     10057        88  SAPE      H14R          -23.4179454443      -30.6113153366        4.5038058975  MEMB      88              0.0000000000
     10058        88  SAPE      C215          -22.5135234388      -31.0668753442        2.8628843405  MEMB      88              0.0000000000
     10059        88  SAPE      H15R          -23.5849624664      -30.9813421300        2.7354879013  MEMB      88              0.0000000000
     10060        88  SAPE      C216          -21.5269175227      -30.8031240998        1.6831429302  MEMB      88              0.0000000000
     10061        88  SAPE      H16R          -21.1586388019      -31.6377419306        1.4445328291  MEMB      88              0.0000000000
     10062        88  SAPE      H16S          -20.6744585049      -30.1219787041        1.7331811055  MEMB      88              0.0000000000
     10063        88  SAPE      C217          -21.9298329118      -30.5828440971        0.1904716479  MEMB      88              0.0000000000
     10064        88  SAPE      H17R          -22.5867749384      -29.9084412809        0.6330841594  MEMB      88              0.0000000000
     10065        88  SAPE      H17S          -22.5173551373      -31.3506344025       -0.2115109821  MEMB      88              0.0000000000
     10066        88  SAPE      C218          -21.4881375709      -29.7790166178       -0.9934632281  MEMB      88              0.0000000000
     10067        88  SAPE      H18R          -20.8480883840      -30.4616926115       -1.5267501645  MEMB      88              0.0000000000
     10068        88  SAPE      H18S          -21.0768262038      -28.8643690027       -0.5761672326  MEMB      88              0.0000000000
     10069        88  SAPE      C219          -22.5258445220      -29.4069518513       -2.0612613218  MEMB      88              0.0000000000
     10070        88  SAPE      H19R          -22.1003173303      -28.7690130615       -2.8664897946  MEMB      88              0.0000000000
     10071        88  SAPE      H19S          -23.0409201107      -28.6010589415       -1.7056224341  MEMB      88              0.0000000000
     10072        88  SAPE      C220          -23.6919897989      -30.3243364370       -2.4528258612  MEMB      88              0.0000000000
     10073        88  SAPE      H20R          -23.4674785170      -30.4651801839       -3.4568476444  MEMB      88              0.0000000000
     10074        88  SAPE      H20S          -24.6479108043      -29.9502078152       -2.8636425351  MEMB      88              0.0000000000
     10075        88  SAPE      H20T          -24.1294214501      -31.0702062144       -1.8033448203  MEMB      88              0.0000000000
     10076        88  SAPE      C33           -18.8268563889      -36.0335737587       14.5358447728  MEMB      88              0.0000000000
     10077        88  SAPE      H3X           -19.4227038445      -35.3275834947       13.9146106196  MEMB      88              0.0000000000
     10078        88  SAPE      H3Y           -19.3134163702      -37.0250738051       14.4293407542  MEMB      88              0.0000000000
     10079        88  SAPE      C34           -17.4175989638      -36.1092674322       13.9031007594  MEMB      88              0.0000000000
     10080        88  SAPE      H4X           -16.7837790692      -36.8360263859       14.4643312280  MEMB      88              0.0000000000
     10081        88  SAPE      H4Y           -16.9441832641      -35.1021628554       13.9535738022  MEMB      88              0.0000000000
     10082        88  SAPE      C35           -17.3490313568      -36.6065425864       12.4454134847  MEMB      88              0.0000000000
     10083        88  SAPE      H5X           -17.2117912670      -37.7118543013       12.4671409856  MEMB      88              0.0000000000
     10084        88  SAPE      H5Y           -16.4424234773      -36.1647918239       11.9670497415  MEMB      88              0.0000000000
     10085        88  SAPE      C36           -18.6026057393      -36.3599456960       11.6092136884  MEMB      88              0.0000000000
     10086        88  SAPE      H6X           -18.9305741638      -35.3020867158       11.7019786853  MEMB      88              0.0000000000
     10087        88  SAPE      H6Y           -19.4177514109      -37.0076371663       12.0056798201  MEMB      88              0.0000000000
     10088        88  SAPE      C37           -18.4137949529      -36.7414877944       10.1424173164  MEMB      88              0.0000000000
     10089        88  SAPE      H7X           -18.0692437227      -37.8010616058       10.0861075129  MEMB      88              0.0000000000
     10090        88  SAPE      H7Y           -17.6039699610      -36.1467438943        9.6848064294  MEMB      88              0.0000000000
     10091        88  SAPE      C38           -19.6736152524      -36.4207747769        9.3386691819  MEMB      88              0.0000000000
     10092        88  SAPE      H8X           -19.7235958100      -35.3465962795        9.0934243449  MEMB      88              0.0000000000
     10093        88  SAPE      H8Y           -20.6112562100      -36.7519200237        9.8595615297  MEMB      88              0.0000000000
     10094        88  SAPE      C39           -19.7053300122      -37.0461608596        7.9839871861  MEMB      88              0.0000000000
     10095        88  SAPE      H9X           -19.5201434444      -38.0708219432        8.3806971994  MEMB      88              0.0000000000
     10096        88  SAPE      H9Y           -18.8335704529      -36.8934816655        7.3278799826  MEMB      88              0.0000000000
     10097        88  SAPE      C310          -21.0892280285      -36.7725802220        7.3099524463  MEMB      88              0.0000000000
     10098        88  SAPE      H10X          -21.8850165859      -36.7052459793        8.0665743061  MEMB      88              0.0000000000
     10099        88  SAPE      H10Y          -21.5629309078      -37.5532874756        6.7043820797  MEMB      88              0.0000000000
     10100        88  SAPE      C311          -21.2759399143      -35.8314677879        6.1797592090  MEMB      88              0.0000000000
     10101        88  SAPE      H11X          -20.5830474138      -36.1297308316        5.3552215074  MEMB      88              0.0000000000
     10102        88  SAPE      H11Y          -21.0053366131      -34.8832853636        6.6519489074  MEMB      88              0.0000000000
     10103        88  SAPE      C312          -22.7495084524      -35.9952585460        5.7164280306  MEMB      88              0.0000000000
     10104        88  SAPE      H12X          -23.4410888921      -36.0652413429        6.5889376608  MEMB      88              0.0000000000
     10105        88  SAPE      H12Y          -22.8317167247      -36.9654627887        5.1630989781  MEMB      88              0.0000000000
     10106        88  SAPE      C313          -23.2663560716      -34.8764889570        4.8344710657  MEMB      88              0.0000000000
     10107        88  SAPE      H13X          -23.3748664363      -33.9742093306        5.4689813960  MEMB      88              0.0000000000
     10108        88  SAPE      H13Y          -24.2616096422      -35.1570195058        4.4212352654  MEMB      88              0.0000000000
     10109        88  SAPE      C314          -22.3088304567      -34.5567583092        3.7090057960  MEMB      88              0.0000000000
     10110        88  SAPE      H14X          -21.4267310378      -34.0459955605        4.1673004505  MEMB      88              0.0000000000
     10111        88  SAPE      H14Y          -22.7762478976      -33.7849672581        3.0507587659  MEMB      88              0.0000000000
     10112        88  SAPE      C315          -21.9194896092      -35.8454999009        2.9416623524  MEMB      88              0.0000000000
     10113        88  SAPE      H15X          -22.7836090995      -36.2706077994        2.3741533187  MEMB      88              0.0000000000
     10114        88  SAPE      H15Y          -21.3418197596      -36.6036030003        3.4800584623  MEMB      88              0.0000000000
     10115        88  SAPE      C316          -20.9369373243      -35.4881636895        1.9314108048  MEMB      88              0.0000000000
     10116        88  SAPE      H16X          -20.2038845412      -34.7649119237        2.3727638582  MEMB      88              0.0000000000
     10117        88  SAPE      H16Y          -21.7900236241      -35.0030341111        1.3942059422  MEMB      88              0.0000000000
     10118        88  SAPE      C317          -20.3164008317      -36.4042673442        0.8918849420  MEMB      88              0.0000000000
     10119        88  SAPE      H17X          -19.6520505779      -37.0468641959        1.4777704365  MEMB      88              0.0000000000
     10120        88  SAPE      H17Y          -19.6129405676      -35.9066106023        0.1634836146  MEMB      88              0.0000000000
     10121        88  SAPE      C318          -21.3707949809      -37.1684461995        0.1071656564  MEMB      88              0.0000000000
     10122        88  SAPE      H18X          -22.0155971384      -36.6398442274       -0.6272711298  MEMB      88              0.0000000000
     10123        88  SAPE      H18Y          -21.9616511293      -37.8463772639        0.7223672093  MEMB      88              0.0000000000
     10124        88  SAPE      H18Z          -20.8297753875      -37.8322078459       -0.5071721276  MEMB      88              0.0000000000
     10125        89  SAPE      N             -33.9879182507       20.8584643070       21.9832575864  MEMB      89              0.0000000000
     10126        89  SAPE      HN1           -33.7154028302       20.0713470412       21.3668884221  MEMB      89              0.0000000000
     10127        89  SAPE      HN2           -33.6456819575       21.7463238116       21.5680195736  MEMB      89              0.0000000000
     10128        89  SAPE      HN3           -33.6363596614       20.7192676711       22.9503046028  MEMB      89              0.0000000000
     10129        89  SAPE      C12           -35.4798812138       20.8526253189       21.9389967665  MEMB      89              0.0000000000
     10130        89  SAPE      H12A          -35.8734970756       21.5380216906       22.6808371297  MEMB      89              0.0000000000
     10131        89  SAPE      H12B          -35.8239209202       19.8574790737       22.2657341093  MEMB      89              0.0000000000
     10132        89  SAPE      C11           -35.9386614373       21.2220500231       20.5233024154  MEMB      89              0.0000000000
     10133        89  SAPE      H11A          -37.0101591374       20.8964415283       20.4602976598  MEMB      89              0.0000000000
     10134        89  SAPE      H11B          -35.3561997696       20.6335529705       19.7855272496  MEMB      89              0.0000000000
     10135        89  SAPE      P             -36.1515288207       23.2284027617       18.8210833987  MEMB      89              0.0000000000
     10136        89  SAPE      O13           -37.5185684497       22.7489871598       18.5430460352  MEMB      89              0.0000000000
     10137        89  SAPE      O14           -35.9440718350       24.6818166279       18.9642528525  MEMB      89              0.0000000000
     10138        89  SAPE      O12           -35.7397457901       22.6169856019       20.2497488777  MEMB      89              0.0000000000
     10139        89  SAPE      O11           -35.0630446622       22.6062519836       17.9350908857  MEMB      89              0.0000000000
     10140        89  SAPE      C1            -33.7577631942       23.1325898350       18.1572140911  MEMB      89              0.0000000000
     10141        89  SAPE      HA            -33.7073605155       24.1917495623       18.5319375074  MEMB      89              0.0000000000
     10142        89  SAPE      HB            -33.2200840548       22.4629108071       18.8440245131  MEMB      89              0.0000000000
     10143        89  SAPE      C2            -33.0857030672       23.1959290401       16.8108010736  MEMB      89              0.0000000000
     10144        89  SAPE      HS            -32.1591900909       23.8032711391       16.8904491954  MEMB      89              0.0000000000
     10145        89  SAPE      O21           -33.9444852854       23.7327092207       15.8481121528  MEMB      89              0.0000000000
     10146        89  SAPE      C21           -34.1510250506       24.9358312495       16.0293870014  MEMB      89              0.0000000000
     10147        89  SAPE      O22           -33.6493960504       25.7090743072       16.8367697422  MEMB      89              0.0000000000
     10148        89  SAPE      C22           -35.0214309996       25.3181313878       14.9128051477  MEMB      89              0.0000000000
     10149        89  SAPE      H2R           -36.0506404735       25.5412922566       15.2302993409  MEMB      89              0.0000000000
     10150        89  SAPE      H2S           -34.3807197155       26.1847285509       14.9851586943  MEMB      89              0.0000000000
     10151        89  SAPE      C3            -32.7511181530       21.8392182944       16.3070550417  MEMB      89              0.0000000000
     10152        89  SAPE      HX            -33.6915916626       21.2391842827       16.3780636244  MEMB      89              0.0000000000
     10153        89  SAPE      HY            -31.9845678892       21.3631057388       16.9440475497  MEMB      89              0.0000000000
     10154        89  SAPE      O31           -32.3647960953       21.9232972026       14.9310695408  MEMB      89              0.0000000000
     10155        89  SAPE      C31           -31.1991632816       22.4821901130       14.6799032384  MEMB      89              0.0000000000
     10156        89  SAPE      O32           -30.4286935879       22.9665628734       15.4871500348  MEMB      89              0.0000000000
     10157        89  SAPE      C32           -30.9797726497       22.3796545914       13.1813339928  MEMB      89              0.0000000000
     10158        89  SAPE      H2X           -30.8414826410       21.3031951756       12.9319824542  MEMB      89              0.0000000000
     10159        89  SAPE      H2Y           -30.0334850252       22.9063178076       12.9600437420  MEMB      89              0.0000000000
     10160        89  SAPE      C23           -34.6809405222       24.8785645116       13.4615827250  MEMB      89              0.0000000000
     10161        89  SAPE      H3R           -34.8743045105       23.7979970885       13.4595719587  MEMB      89              0.0000000000
     10162        89  SAPE      H3S           -33.5992605736       25.1142533513       13.2961861221  MEMB      89              0.0000000000
     10163        89  SAPE      C24           -35.3990973189       25.5154745390       12.2547649809  MEMB      89              0.0000000000
     10164        89  SAPE      H4R           -34.9078255977       25.2153835131       11.3196914678  MEMB      89              0.0000000000
     10165        89  SAPE      H4S           -35.0983143202       26.5353866560       12.0968183422  MEMB      89              0.0000000000
     10166        89  SAPE      C25           -36.8944433494       25.3381509936       12.3421260918  MEMB      89              0.0000000000
     10167        89  SAPE      H5R           -37.3410644658       25.4953040446       13.3384383538  MEMB      89              0.0000000000
     10168        89  SAPE      C26           -37.6753890905       24.9618783206       11.3232023387  MEMB      89              0.0000000000
     10169        89  SAPE      H6R           -38.7499623569       24.7850427558       11.4868248279  MEMB      89              0.0000000000
     10170        89  SAPE      C27           -37.1849501022       24.6690918181        9.9377479638  MEMB      89              0.0000000000
     10171        89  SAPE      H7R           -36.1042857403       24.8803862270        9.8130101297  MEMB      89              0.0000000000
     10172        89  SAPE      H7S           -37.6896919801       25.4186043605        9.3131527159  MEMB      89              0.0000000000
     10173        89  SAPE      C28           -37.4444024222       23.2356463926        9.5352520354  MEMB      89              0.0000000000
     10174        89  SAPE      H8R           -36.9065889250       22.5232591256       10.1784468620  MEMB      89              0.0000000000
     10175        89  SAPE      C29           -38.0963787319       22.7476216569        8.4503185114  MEMB      89              0.0000000000
     10176        89  SAPE      H9R           -38.2451910478       21.6633270117        8.3697546852  MEMB      89              0.0000000000
     10177        89  SAPE      C210          -38.7690962422       23.4406795958        7.2951658889  MEMB      89              0.0000000000
     10178        89  SAPE      H10R          -39.8644079794       23.3396996693        7.3923332063  MEMB      89              0.0000000000
     10179        89  SAPE      H10S          -38.5187822714       22.9001279274        6.3646585918  MEMB      89              0.0000000000
     10180        89  SAPE      C211          -38.4213491928       24.8695188963        7.0808229009  MEMB      89              0.0000000000
     10181        89  SAPE      H11R          -38.9493111518       25.4996088273        7.7891382238  MEMB      89              0.0000000000
     10182        89  SAPE      C212          -37.4823134274       25.4316259265        6.3147648958  MEMB      89              0.0000000000
     10183        89  SAPE      H12R          -37.5262213972       26.5184438938        6.1922712590  MEMB      89              0.0000000000
     10184        89  SAPE      C213          -36.5013554629       24.7174515449        5.4302755342  MEMB      89              0.0000000000
     10185        89  SAPE      H13R          -36.4854739803       25.2786806673        4.4971609097  MEMB      89              0.0000000000
     10186        89  SAPE      H13S          -36.9468312583       23.7411205438        5.1420578438  MEMB      89              0.0000000000
     10187        89  SAPE      C214          -35.0616626407       24.4975176222        5.8731117728  MEMB      89              0.0000000000
     10188        89  SAPE      H14R          -34.9194629138       23.5715731828        6.4178756024  MEMB      89              0.0000000000
     10189        89  SAPE      C215          -33.9306253852       25.2107113649        5.6892392554  MEMB      89              0.0000000000
     10190        89  SAPE      H15R          -32.9834909869       24.9295460853        6.1422859259  MEMB      89              0.0000000000
     10191        89  SAPE      C216          -33.7349223408       26.4681927437        4.9919859825  MEMB      89              0.0000000000
     10192        89  SAPE      H16R          -33.2682979936       27.1304366973        5.7095791159  MEMB      89              0.0000000000
     10193        89  SAPE      H16S          -34.6505249987       26.9264342992        5.1822329589  MEMB      89              0.0000000000
     10194        89  SAPE      C217          -33.1555486056       26.4979119964        3.5469970586  MEMB      89              0.0000000000
     10195        89  SAPE      H17R          -32.0725807225       26.3089288181        3.6432205004  MEMB      89              0.0000000000
     10196        89  SAPE      H17S          -33.1873440695       27.5438370345        3.2058526749  MEMB      89              0.0000000000
     10197        89  SAPE      C218          -33.6054570053       25.3744763244        2.5244789606  MEMB      89              0.0000000000
     10198        89  SAPE      H18R          -33.7393060299       24.4536497386        3.0530554431  MEMB      89              0.0000000000
     10199        89  SAPE      H18S          -32.9311948206       25.3495392385        1.6275034895  MEMB      89              0.0000000000
     10200        89  SAPE      C219          -35.0573534724       25.1658864553        2.0990251315  MEMB      89              0.0000000000
     10201        89  SAPE      H19R          -34.6680066800       26.1156605866        1.8015003454  MEMB      89              0.0000000000
     10202        89  SAPE      H19S          -35.9768517416       25.2591324784        2.7155154489  MEMB      89              0.0000000000
     10203        89  SAPE      C220          -35.7432901431       24.7332434167        0.9246886940  MEMB      89              0.0000000000
     10204        89  SAPE      H20R          -36.0912325075       23.7747687914        1.2923131953  MEMB      89              0.0000000000
     10205        89  SAPE      H20S          -35.0775950578       24.8575065699        0.0599620387  MEMB      89              0.0000000000
     10206        89  SAPE      H20T          -36.6849307426       25.3323679485        0.8457701137  MEMB      89              0.0000000000
     10207        89  SAPE      C33           -32.1701490362       23.0370377978       12.4309603978  MEMB      89              0.0000000000
     10208        89  SAPE      H3X           -31.9604790468       24.1274522257       12.3297445702  MEMB      89              0.0000000000
     10209        89  SAPE      H3Y           -33.1454978238       22.8256755962       12.8936224149  MEMB      89              0.0000000000
     10210        89  SAPE      C34           -32.3502460149       22.5264728878       11.0315430166  MEMB      89              0.0000000000
     10211        89  SAPE      H4X           -32.0901733017       21.5016037514       11.0905882079  MEMB      89              0.0000000000
     10212        89  SAPE      H4Y           -31.5953000934       23.1087897258       10.6156158899  MEMB      89              0.0000000000
     10213        89  SAPE      C35           -33.6147237472       22.7440940691       10.2186389275  MEMB      89              0.0000000000
     10214        89  SAPE      H5X           -33.7925637710       23.8330955063       10.2641685113  MEMB      89              0.0000000000
     10215        89  SAPE      H5Y           -34.4136176904       22.2065440772       10.7684970719  MEMB      89              0.0000000000
     10216        89  SAPE      C36           -33.5812375230       22.2855120451        8.7228541682  MEMB      89              0.0000000000
     10217        89  SAPE      H6X           -32.5990714574       22.4700812643        8.2333901757  MEMB      89              0.0000000000
     10218        89  SAPE      H6Y           -34.3662458224       22.8861140404        8.2244159063  MEMB      89              0.0000000000
     10219        89  SAPE      C37           -34.0000180862       20.8317401207        8.4393611411  MEMB      89              0.0000000000
     10220        89  SAPE      H7X           -34.8588647574       20.5183436675        9.0724089269  MEMB      89              0.0000000000
     10221        89  SAPE      H7Y           -33.1665018808       20.1724311080        8.6791310129  MEMB      89              0.0000000000
     10222        89  SAPE      C38           -34.2846368851       20.3856941810        7.0623718688  MEMB      89              0.0000000000
     10223        89  SAPE      H8X           -34.0820757246       19.2825266141        6.9922971018  MEMB      89              0.0000000000
     10224        89  SAPE      H8Y           -33.5956868043       20.9776896057        6.4289094321  MEMB      89              0.0000000000
     10225        89  SAPE      C39           -35.7582125247       20.5804046529        6.8469505664  MEMB      89              0.0000000000
     10226        89  SAPE      H9X           -35.9985037151       21.6363035793        7.1173613318  MEMB      89              0.0000000000
     10227        89  SAPE      H9Y           -36.3120684831       19.9377775070        7.5717417024  MEMB      89              0.0000000000
     10228        89  SAPE      C310          -36.1021264850       20.2741818926        5.3995549193  MEMB      89              0.0000000000
     10229        89  SAPE      H10X          -35.3920490920       20.8406339893        4.7546594855  MEMB      89              0.0000000000
     10230        89  SAPE      H10Y          -37.1438105858       20.6030228843        5.2229376737  MEMB      89              0.0000000000
     10231        89  SAPE      C311          -35.9885933982       18.8173022317        4.9575597094  MEMB      89              0.0000000000
     10232        89  SAPE      H11X          -36.5994101961       18.1834604467        5.6093735465  MEMB      89              0.0000000000
     10233        89  SAPE      H11Y          -34.9457904586       18.4729149203        5.0265554922  MEMB      89              0.0000000000
     10234        89  SAPE      C312          -36.5568516698       18.5681992648        3.5636319655  MEMB      89              0.0000000000
     10235        89  SAPE      H12X          -37.6561064903       18.7006401012        3.6657805974  MEMB      89              0.0000000000
     10236        89  SAPE      H12Y          -36.3499618800       17.5227069555        3.2718474658  MEMB      89              0.0000000000
     10237        89  SAPE      C313          -36.0759586801       19.4821438416        2.4410095488  MEMB      89              0.0000000000
     10238        89  SAPE      H13X          -36.3624509639       20.5300411365        2.6690418520  MEMB      89              0.0000000000
     10239        89  SAPE      H13Y          -36.5222522797       19.2497907974        1.4469696075  MEMB      89              0.0000000000
     10240        89  SAPE      C314          -34.5966497107       19.4121282182        2.2424125468  MEMB      89              0.0000000000
     10241        89  SAPE      H14X          -34.3109368501       18.4990088074        1.6548774487  MEMB      89              0.0000000000
     10242        89  SAPE      H14Y          -34.0567432131       19.4043416040        3.2071000760  MEMB      89              0.0000000000
     10243        89  SAPE      C315          -34.1591200085       20.7018633452        1.5977926807  MEMB      89              0.0000000000
     10244        89  SAPE      H15X          -34.2612790402       21.6141034590        2.1896671362  MEMB      89              0.0000000000
     10245        89  SAPE      H15Y          -34.8206187646       20.8806476713        0.7546165413  MEMB      89              0.0000000000
     10246        89  SAPE      C316          -32.7107817560       20.5344904718        1.3697604171  MEMB      89              0.0000000000
     10247        89  SAPE      H16X          -32.6985707280       19.5428141113        0.8925541744  MEMB      89              0.0000000000
     10248        89  SAPE      H16Y          -32.2318701629       20.3292812320        2.3242090881  MEMB      89              0.0000000000
     10249        89  SAPE      C317          -31.9974288937       21.7211041257        0.7561551264  MEMB      89              0.0000000000
     10250        89  SAPE      H17X          -30.9157014076       21.5892680020        0.4782307448  MEMB      89              0.0000000000
     10251        89  SAPE      H17Y          -31.9990541521       22.5407260790        1.4954480473  MEMB      89              0.0000000000
     10252        89  SAPE      C318          -32.6395899388       22.1650397581       -0.5005608096  MEMB      89              0.0000000000
     10253        89  SAPE      H18X          -32.1560345426       23.0095618155       -0.4862370587  MEMB      89              0.0000000000
     10254        89  SAPE      H18Y          -33.5889334701       22.7074217821       -0.5517601965  MEMB      89              0.0000000000
     10255        89  SAPE      H18Z          -32.3144168532       21.6791072178       -1.4588570006  MEMB      89              0.0000000000
     10256        90  SAPE      N              31.7122015445       24.5716133391       20.4504244659  MEMB      90              0.0000000000
     10257        90  SAPE      HN1            32.7182304086       24.3167265040       20.4454546221  MEMB      90              0.0000000000
     10258        90  SAPE      HN2            31.5992243943       25.2944761915       21.1934450473  MEMB      90              0.0000000000
     10259        90  SAPE      HN3            31.0914360514       23.7566750503       20.6262622370  MEMB      90              0.0000000000
     10260        90  SAPE      C12            31.3995964889       25.2441809381       19.1433552336  MEMB      90              0.0000000000
     10261        90  SAPE      H12A           30.3304635468       25.5398017565       19.1945760292  MEMB      90              0.0000000000
     10262        90  SAPE      H12B           31.5285691835       24.5119539587       18.3222422843  MEMB      90              0.0000000000
     10263        90  SAPE      C11            32.2762077108       26.5006941153       19.0033089696  MEMB      90              0.0000000000
     10264        90  SAPE      H11A           31.9404683246       27.0658325861       18.1044259630  MEMB      90              0.0000000000
     10265        90  SAPE      H11B           33.3515623463       26.2440934686       18.8078995092  MEMB      90              0.0000000000
     10266        90  SAPE      P              32.6968797763       28.7429368989       20.3680642247  MEMB      90              0.0000000000
     10267        90  SAPE      O13            32.1637831837       29.2090806490       21.6692962510  MEMB      90              0.0000000000
     10268        90  SAPE      O14            34.1516884379       28.6148431606       20.1875256693  MEMB      90              0.0000000000
     10269        90  SAPE      O12            32.1026438056       27.2732604603       20.2002708101  MEMB      90              0.0000000000
     10270        90  SAPE      O11            31.9414513422       29.4339568105       19.1650306375  MEMB      90              0.0000000000
     10271        90  SAPE      C1             30.5566182603       29.7188543210       19.4672520338  MEMB      90              0.0000000000
     10272        90  SAPE      HA             30.0073950671       28.8161887947       19.7713199817  MEMB      90              0.0000000000
     10273        90  SAPE      HB             30.4796813706       30.5252205255       20.2375851550  MEMB      90              0.0000000000
     10274        90  SAPE      C2             29.7930680909       30.2574350592       18.2727425455  MEMB      90              0.0000000000
     10275        90  SAPE      HS             28.6967770418       30.3081013338       18.3916755515  MEMB      90              0.0000000000
     10276        90  SAPE      O21            30.1685980562       29.4870096800       17.1231314163  MEMB      90              0.0000000000
     10277        90  SAPE      C21            29.5702074441       28.4049876563       16.9638276367  MEMB      90              0.0000000000
     10278        90  SAPE      O22            28.6568613574       27.9919860419       17.6758671730  MEMB      90              0.0000000000
     10279        90  SAPE      C22            30.1551335276       27.6908994268       15.7538679711  MEMB      90              0.0000000000
     10280        90  SAPE      H2R            31.1417249360       27.2687374945       15.9824831841  MEMB      90              0.0000000000
     10281        90  SAPE      H2S            29.4684046378       26.8652350748       15.6693890858  MEMB      90              0.0000000000
     10282        90  SAPE      C3             30.2551766017       31.7215974741       18.2581491558  MEMB      90              0.0000000000
     10283        90  SAPE      HX             31.3561036980       31.6161795115       18.3074666522  MEMB      90              0.0000000000
     10284        90  SAPE      HY             29.9306039418       32.2719147577       19.1393869320  MEMB      90              0.0000000000
     10285        90  SAPE      O31            29.7262673529       32.5148394367       17.2216658741  MEMB      90              0.0000000000
     10286        90  SAPE      C31            30.1250033432       32.0650041343       16.1287776703  MEMB      90              0.0000000000
     10287        90  SAPE      O32            31.0464197574       31.2699359721       16.0084712056  MEMB      90              0.0000000000
     10288        90  SAPE      C32            29.4306486099       32.8579733488       15.0090884790  MEMB      90              0.0000000000
     10289        90  SAPE      H2X            29.5308160004       33.9332570438       15.3191849018  MEMB      90              0.0000000000
     10290        90  SAPE      H2Y            28.4569291566       32.7328403964       14.8339380524  MEMB      90              0.0000000000
     10291        90  SAPE      C23            30.2054793477       28.5160976302       14.4345333290  MEMB      90              0.0000000000
     10292        90  SAPE      H3R            30.8402457672       29.4025547370       14.6122361728  MEMB      90              0.0000000000
     10293        90  SAPE      H3S            29.1855007779       28.9168226854       14.2248668129  MEMB      90              0.0000000000
     10294        90  SAPE      C24            30.7734666666       27.7494870431       13.1980764879  MEMB      90              0.0000000000
     10295        90  SAPE      H4R            30.4935395870       28.3222902602       12.2737983755  MEMB      90              0.0000000000
     10296        90  SAPE      H4S            30.3815999196       26.7664275369       12.9628356332  MEMB      90              0.0000000000
     10297        90  SAPE      C25            32.1924778528       27.3275532531       13.3910875484  MEMB      90              0.0000000000
     10298        90  SAPE      H5R            32.3877435787       26.2903873787       13.6044905854  MEMB      90              0.0000000000
     10299        90  SAPE      C26            33.2131033769       28.1126109876       13.2287437415  MEMB      90              0.0000000000
     10300        90  SAPE      H6R            34.2425593715       27.7957884426       13.3013784962  MEMB      90              0.0000000000
     10301        90  SAPE      C27            32.9295141500       29.4638494108       12.8307090088  MEMB      90              0.0000000000
     10302        90  SAPE      H7R            33.2608010979       30.2248522362       13.5687786102  MEMB      90              0.0000000000
     10303        90  SAPE      H7S            31.9705443489       29.5916889653       12.3396299295  MEMB      90              0.0000000000
     10304        90  SAPE      C28            33.7054891181       29.5981803658       11.6632907508  MEMB      90              0.0000000000
     10305        90  SAPE      H8R            34.5514932885       30.0285413063       12.2508860461  MEMB      90              0.0000000000
     10306        90  SAPE      C29            33.4991179253       30.2263021280       10.4906672469  MEMB      90              0.0000000000
     10307        90  SAPE      H9R            34.4892015587       30.2524495865       10.1010280107  MEMB      90              0.0000000000
     10308        90  SAPE      C210           32.3805533001       31.1732324086        9.6971834739  MEMB      90              0.0000000000
     10309        90  SAPE      H10R           32.2287012534       32.2514335750        9.9085227868  MEMB      90              0.0000000000
     10310        90  SAPE      H10S           31.4025431120       31.1635014022       10.1131237009  MEMB      90              0.0000000000
     10311        90  SAPE      C211           32.1913081804       31.8541762311        8.4603171792  MEMB      90              0.0000000000
     10312        90  SAPE      H11R           32.4711033629       32.9400234014        8.2989908844  MEMB      90              0.0000000000
     10313        90  SAPE      C212           32.3448377188       30.9161732849        7.6122904597  MEMB      90              0.0000000000
     10314        90  SAPE      H12R           32.2146090412       31.2062769536        6.6263825490  MEMB      90              0.0000000000
     10315        90  SAPE      C213           32.6701815750       29.4979639510        7.8593570101  MEMB      90              0.0000000000
     10316        90  SAPE      H13R           33.5105175695       29.2632823281        8.5279645137  MEMB      90              0.0000000000
     10317        90  SAPE      H13S           33.1817150889       29.1133061899        6.9769475370  MEMB      90              0.0000000000
     10318        90  SAPE      C214           31.3941548037       28.8861733959        8.3176899237  MEMB      90              0.0000000000
     10319        90  SAPE      H14R           30.6857329835       29.5396076667        8.8575067395  MEMB      90              0.0000000000
     10320        90  SAPE      C215           31.1262567889       27.6208973638        8.1713348769  MEMB      90              0.0000000000
     10321        90  SAPE      H15R           30.1629566495       27.2761247095        8.5354097052  MEMB      90              0.0000000000
     10322        90  SAPE      C216           32.0869211814       26.6821999775        7.5352258205  MEMB      90              0.0000000000
     10323        90  SAPE      H16R           32.0006307030       25.6967548056        8.0415795543  MEMB      90              0.0000000000
     10324        90  SAPE      H16S           33.1226838824       27.0639980136        7.7021292206  MEMB      90              0.0000000000
     10325        90  SAPE      C217           31.9906361333       26.5479702719        6.0163268250  MEMB      90              0.0000000000
     10326        90  SAPE      H17R           32.8744466055       25.9847047836        5.6343712230  MEMB      90              0.0000000000
     10327        90  SAPE      H17S           31.9821821714       27.5357074930        5.5205449160  MEMB      90              0.0000000000
     10328        90  SAPE      C218           30.7841679292       25.7629271996        5.5855941348  MEMB      90              0.0000000000
     10329        90  SAPE      H18R           29.8323089938       25.9792911681        6.1142036806  MEMB      90              0.0000000000
     10330        90  SAPE      H18S           31.0177751693       24.7797488316        5.8706363270  MEMB      90              0.0000000000
     10331        90  SAPE      C219           30.5845738532       25.7314623599        4.1078383356  MEMB      90              0.0000000000
     10332        90  SAPE      H19R           31.2174769803       26.5866048935        3.8010525425  MEMB      90              0.0000000000
     10333        90  SAPE      H19S           29.4852655120       25.6703105097        3.8793739162  MEMB      90              0.0000000000
     10334        90  SAPE      C220           31.3094941672       25.1359390820        2.9808275969  MEMB      90              0.0000000000
     10335        90  SAPE      H20R           31.0269289740       24.2523046784        3.3775834571  MEMB      90              0.0000000000
     10336        90  SAPE      H20S           32.3788191132       24.9667809623        2.9664802269  MEMB      90              0.0000000000
     10337        90  SAPE      H20T           30.7471184275       25.2604096573        2.0171055806  MEMB      90              0.0000000000
     10338        90  SAPE      C33            29.0597353182       32.0759249429       13.6435794872  MEMB      90              0.0000000000
     10339        90  SAPE      H3X            29.7833893688       31.2804263393       13.5526696585  MEMB      90              0.0000000000
     10340        90  SAPE      H3Y            29.2191794748       32.9054165620       13.0170570693  MEMB      90              0.0000000000
     10341        90  SAPE      C34            28.4010542132       32.3670276030       12.2396154236  MEMB      90              0.0000000000
     10342        90  SAPE      H4X            27.8647375958       33.3260196459       11.9686731223  MEMB      90              0.0000000000
     10343        90  SAPE      H4Y            27.7731244521       31.5083493591       12.4573107485  MEMB      90              0.0000000000
     10344        90  SAPE      C35            29.1766840986       32.1130780621       10.9349985772  MEMB      90              0.0000000000
     10345        90  SAPE      H5X            29.6549795157       31.1202497791       11.0112131988  MEMB      90              0.0000000000
     10346        90  SAPE      H5Y            29.9623816464       32.8786316854       10.7135647264  MEMB      90              0.0000000000
     10347        90  SAPE      C36            28.1689912411       32.2000276575        9.8145359032  MEMB      90              0.0000000000
     10348        90  SAPE      H6X            27.4869753223       33.0161419880       10.0867160807  MEMB      90              0.0000000000
     10349        90  SAPE      H6Y            27.6182069296       31.2470311291        9.7921127541  MEMB      90              0.0000000000
     10350        90  SAPE      C37            28.7449462074       32.5661842761        8.4674882165  MEMB      90              0.0000000000
     10351        90  SAPE      H7X            29.5814586138       31.8888542932        8.2439863199  MEMB      90              0.0000000000
     10352        90  SAPE      H7Y            29.1399001419       33.5578845619        8.5314938006  MEMB      90              0.0000000000
     10353        90  SAPE      C38            27.7256432141       32.6538277263        7.3458924349  MEMB      90              0.0000000000
     10354        90  SAPE      H8X            28.1282528357       33.2467121491        6.4928691791  MEMB      90              0.0000000000
     10355        90  SAPE      H8Y            26.8117089809       33.1773349149        7.6956522221  MEMB      90              0.0000000000
     10356        90  SAPE      C39            27.3595293005       31.2755714679        6.8524436927  MEMB      90              0.0000000000
     10357        90  SAPE      H9X            26.5686377457       31.4194172406        6.0826249273  MEMB      90              0.0000000000
     10358        90  SAPE      H9Y            26.9312786708       30.6623743606        7.6808665225  MEMB      90              0.0000000000
     10359        90  SAPE      C310           28.5558538279       30.4656065689        6.3238220543  MEMB      90              0.0000000000
     10360        90  SAPE      H10X           28.0441601750       29.6397105716        5.8334774443  MEMB      90              0.0000000000
     10361        90  SAPE      H10Y           29.1234660020       30.0245052010        7.1608462199  MEMB      90              0.0000000000
     10362        90  SAPE      C311           29.5609724476       31.1745121599        5.3895008421  MEMB      90              0.0000000000
     10363        90  SAPE      H11X           30.1019366252       31.9151680804        6.0107751583  MEMB      90              0.0000000000
     10364        90  SAPE      H11Y           28.9340417149       31.7070476051        4.6356772772  MEMB      90              0.0000000000
     10365        90  SAPE      C312           30.7021420947       30.3050183738        4.7531738593  MEMB      90              0.0000000000
     10366        90  SAPE      H12X           30.4748051963       29.8468819966        3.8144505486  MEMB      90              0.0000000000
     10367        90  SAPE      H12Y           31.0877224752       29.5196872678        5.4115924309  MEMB      90              0.0000000000
     10368        90  SAPE      C313           31.6767254960       30.9138797764        3.8047722063  MEMB      90              0.0000000000
     10369        90  SAPE      H13X           32.5347402851       30.3053020813        3.4668304422  MEMB      90              0.0000000000
     10370        90  SAPE      H13Y           31.8060747148       31.7700642244        4.4159423188  MEMB      90              0.0000000000
     10371        90  SAPE      C314           31.1848223956       31.7741905289        2.7105747183  MEMB      90              0.0000000000
     10372        90  SAPE      H14X           31.9778359552       32.5157368629        2.4847498435  MEMB      90              0.0000000000
     10373        90  SAPE      H14Y           30.3562000793       32.1399224500        3.2979634532  MEMB      90              0.0000000000
     10374        90  SAPE      C315           30.2312200494       31.4285237461        1.6250683284  MEMB      90              0.0000000000
     10375        90  SAPE      H15X           30.1997201468       32.2558192377        0.8927119619  MEMB      90              0.0000000000
     10376        90  SAPE      H15Y           29.1743521380       31.3893158917        1.9581671398  MEMB      90              0.0000000000
     10377        90  SAPE      C316           30.7373010386       30.1909120244        1.1252543842  MEMB      90              0.0000000000
     10378        90  SAPE      H16X           29.9310378337       29.5160799373        0.9028887385  MEMB      90              0.0000000000
     10379        90  SAPE      H16Y           31.3638483252       29.6137877576        1.8132739991  MEMB      90              0.0000000000
     10380        90  SAPE      C317           31.7056344903       30.4946712619        0.0895448372  MEMB      90              0.0000000000
     10381        90  SAPE      H17X           32.2942127620       29.6340381469        0.0527846398  MEMB      90              0.0000000000
     10382        90  SAPE      H17Y           32.4892545458       30.8718315467        0.7315981994  MEMB      90              0.0000000000
     10383        90  SAPE      C318           31.3835301578       31.3182743112       -1.1835280916  MEMB      90              0.0000000000
     10384        90  SAPE      H18X           30.6572409827       31.3435209993       -1.9509907064  MEMB      90              0.0000000000
     10385        90  SAPE      H18Y           31.9602980364       31.2330900824       -2.0439529779  MEMB      90              0.0000000000
     10386        90  SAPE      H18Z           31.1810370546       32.3265520598       -1.0204967305  MEMB      90              0.0000000000
     10387        91  SAPS      N              27.8308620911      -30.0975368608       21.2834734563  MEMB      91              0.0000000000
     10388        91  SAPS      HN1            28.0996435541      -29.1728513224       20.9029102041  MEMB      91              0.0000000000
     10389        91  SAPS      HN2            26.8581135547      -30.1032515990       21.6325398951  MEMB      91              0.0000000000
     10390        91  SAPS      HN3            28.5254718627      -30.3818755851       22.0115499203  MEMB      91              0.0000000000
     10391        91  SAPS      C12            27.9725335481      -31.0693659528       20.1429207351  MEMB      91              0.0000000000
     10392        91  SAPS      H12A           27.8318203573      -32.0495517147       20.5548747935  MEMB      91              0.0000000000
     10393        91  SAPS      C13            26.9866218385      -30.9892756249       18.9683349771  MEMB      91              0.0000000000
     10394        91  SAPS      O13A           26.1392999114      -30.1071719876       19.0234359025  MEMB      91              0.0000000000
     10395        91  SAPS      O13B           27.0967107478      -31.7229657130       17.9668356043  MEMB      91              0.0000000000
     10396        91  SAPS      C11            29.3750698890      -30.8391854461       19.5444830886  MEMB      91              0.0000000000
     10397        91  SAPS      H11A           29.4200377373      -29.8056190343       19.1338159935  MEMB      91              0.0000000000
     10398        91  SAPS      H11B           29.4922837253      -31.5566370119       18.6932112682  MEMB      91              0.0000000000
     10399        91  SAPS      P              31.4700879026      -32.1155981594       20.5628065442  MEMB      91              0.0000000000
     10400        91  SAPS      O13            32.5923955193      -31.6771762315       21.4089570519  MEMB      91              0.0000000000
     10401        91  SAPS      O14            30.8035158576      -33.3154752357       21.0765471347  MEMB      91              0.0000000000
     10402        91  SAPS      O12            30.3920214557      -30.9442894429       20.5330683888  MEMB      91              0.0000000000
     10403        91  SAPS      O11            31.9321280523      -32.3523053184       19.0918472976  MEMB      91              0.0000000000
     10404        91  SAPS      C1             32.8353819795      -31.4487202614       18.4723774874  MEMB      91              0.0000000000
     10405        91  SAPS      HA             32.6643985241      -30.3769099990       18.7339331999  MEMB      91              0.0000000000
     10406        91  SAPS      HB             33.8695047650      -31.6808284125       18.7968496236  MEMB      91              0.0000000000
     10407        91  SAPS      C2             32.7045261836      -31.6051983586       16.9417056178  MEMB      91              0.0000000000
     10408        91  SAPS      HS             33.3872430326      -30.8318538070       16.4771669164  MEMB      91              0.0000000000
     10409        91  SAPS      O21            31.3538174107      -31.5418708013       16.4169634590  MEMB      91              0.0000000000
     10410        91  SAPS      C21            30.9483595741      -30.3334065921       16.4252432387  MEMB      91              0.0000000000
     10411        91  SAPS      O22            31.6207763088      -29.4322945526       16.8972745216  MEMB      91              0.0000000000
     10412        91  SAPS      C22            29.5557551539      -30.2229362616       15.7816303269  MEMB      91              0.0000000000
     10413        91  SAPS      H2R            28.9605139866      -30.9916274505       16.3164707892  MEMB      91              0.0000000000
     10414        91  SAPS      H2S            29.0576760004      -29.2595718685       15.9887259499  MEMB      91              0.0000000000
     10415        91  SAPS      C3             33.1751630178      -32.9674984888       16.5122646984  MEMB      91              0.0000000000
     10416        91  SAPS      HX             32.5509581205      -33.7397988974       16.9832853684  MEMB      91              0.0000000000
     10417        91  SAPS      HY             34.1891344483      -33.1589305348       16.9077172981  MEMB      91              0.0000000000
     10418        91  SAPS      O31            33.1390985154      -32.9725242366       15.0786656415  MEMB      91              0.0000000000
     10419        91  SAPS      C31            32.0480206820      -33.4556239824       14.5485988361  MEMB      91              0.0000000000
     10420        91  SAPS      O32            31.1683689749      -34.0589816289       15.1373540986  MEMB      91              0.0000000000
     10421        91  SAPS      C32            32.1569588746      -33.2992651180       13.0609306972  MEMB      91              0.0000000000
     10422        91  SAPS      H2X            33.1696739789      -33.5495160944       12.6881134028  MEMB      91              0.0000000000
     10423        91  SAPS      H2Y            31.8077161474      -32.3203319164       12.6722751349  MEMB      91              0.0000000000
     10424        91  SAPS      C23            29.5065346138      -30.4722128393       14.2414075678  MEMB      91              0.0000000000
     10425        91  SAPS      H3R            29.5228400762      -31.5755757894       14.0863352264  MEMB      91              0.0000000000
     10426        91  SAPS      H3S            30.3766263996      -30.0512774501       13.7038933089  MEMB      91              0.0000000000
     10427        91  SAPS      C24            28.2886284082      -29.8477390785       13.5481112472  MEMB      91              0.0000000000
     10428        91  SAPS      H4R            28.3056392003      -30.0693217440       12.4578647369  MEMB      91              0.0000000000
     10429        91  SAPS      H4S            28.2356591583      -28.7657037366       13.7068757725  MEMB      91              0.0000000000
     10430        91  SAPS      C25            27.1466912268      -30.4919704727       14.2082804891  MEMB      91              0.0000000000
     10431        91  SAPS      H5R            26.8211903239      -30.0994160328       15.1904174164  MEMB      91              0.0000000000
     10432        91  SAPS      C26            26.3466073172      -31.3357760968       13.6053729590  MEMB      91              0.0000000000
     10433        91  SAPS      H6R            25.7273761169      -31.8579481629       14.3288405206  MEMB      91              0.0000000000
     10434        91  SAPS      C27            26.2471747208      -31.9024601634       12.2146166569  MEMB      91              0.0000000000
     10435        91  SAPS      H7R            27.2128325853      -31.7891180127       11.7091782203  MEMB      91              0.0000000000
     10436        91  SAPS      H7S            25.5425672701      -31.2590116281       11.6218400167  MEMB      91              0.0000000000
     10437        91  SAPS      C28            25.7314346963      -33.3389311969       12.2532935395  MEMB      91              0.0000000000
     10438        91  SAPS      H8R            24.9118630481      -33.6475487401       12.9144692920  MEMB      91              0.0000000000
     10439        91  SAPS      C29            26.1128365995      -34.3029875360       11.4759472909  MEMB      91              0.0000000000
     10440        91  SAPS      H9R            25.7315597313      -35.3254314648       11.6534161085  MEMB      91              0.0000000000
     10441        91  SAPS      C210           27.1298951786      -34.0565914835       10.4449458659  MEMB      91              0.0000000000
     10442        91  SAPS      H10R           27.2311049345      -35.0983926772       10.1396096325  MEMB      91              0.0000000000
     10443        91  SAPS      H10S           28.0628900255      -33.5907368683       10.8242856797  MEMB      91              0.0000000000
     10444        91  SAPS      C211           26.7635239673      -33.5697054042        9.1344590508  MEMB      91              0.0000000000
     10445        91  SAPS      H11R           26.1971068246      -34.3657516150        8.8031124615  MEMB      91              0.0000000000
     10446        91  SAPS      C212           26.9533532235      -32.5244498832        8.3542984718  MEMB      91              0.0000000000
     10447        91  SAPS      H12R           26.4697823461      -32.5162272860        7.3604865554  MEMB      91              0.0000000000
     10448        91  SAPS      C213           27.7677630416      -31.3556200721        8.7540602283  MEMB      91              0.0000000000
     10449        91  SAPS      H13R           27.7661936881      -31.2537000325        9.8507046798  MEMB      91              0.0000000000
     10450        91  SAPS      H13S           27.2182859559      -30.4571412710        8.3990547136  MEMB      91              0.0000000000
     10451        91  SAPS      C214           29.2108477729      -31.4899671581        8.3287718515  MEMB      91              0.0000000000
     10452        91  SAPS      H14R           29.7982984798      -32.3171350103        8.7202816055  MEMB      91              0.0000000000
     10453        91  SAPS      C215           29.8071943280      -30.6762941289        7.4868308743  MEMB      91              0.0000000000
     10454        91  SAPS      H15R           30.8989606925      -30.5968731057        7.3743910156  MEMB      91              0.0000000000
     10455        91  SAPS      C216           29.0650043170      -29.5714092610        6.9230612681  MEMB      91              0.0000000000
     10456        91  SAPS      H16R           29.9621869689      -28.9937844248        6.6676005139  MEMB      91              0.0000000000
     10457        91  SAPS      H16S           28.4546415064      -29.0922175844        7.7377178851  MEMB      91              0.0000000000
     10458        91  SAPS      C217           28.3779218780      -29.4469867768        5.5689801014  MEMB      91              0.0000000000
     10459        91  SAPS      H17R           27.9209169129      -28.4380388561        5.4331824133  MEMB      91              0.0000000000
     10460        91  SAPS      H17S           27.5757113237      -30.1861117776        5.5359199879  MEMB      91              0.0000000000
     10461        91  SAPS      C218           29.3950543905      -29.5720970174        4.4493268350  MEMB      91              0.0000000000
     10462        91  SAPS      H18R           30.1343356390      -30.3482260701        4.6860164819  MEMB      91              0.0000000000
     10463        91  SAPS      H18S           30.0247958891      -28.6714627460        4.5382715070  MEMB      91              0.0000000000
     10464        91  SAPS      C219           28.7431789006      -29.9155001540        3.0969311391  MEMB      91              0.0000000000
     10465        91  SAPS      H19R           28.1429034297      -30.8315493006        3.2158200188  MEMB      91              0.0000000000
     10466        91  SAPS      H19S           29.5621798000      -30.0909788324        2.3532755551  MEMB      91              0.0000000000
     10467        91  SAPS      C220           27.8048229814      -28.9066728636        2.4743356350  MEMB      91              0.0000000000
     10468        91  SAPS      H20R           27.2990577724      -29.1411588687        1.5235620264  MEMB      91              0.0000000000
     10469        91  SAPS      H20S           28.5755528002      -28.3170038641        2.0316974647  MEMB      91              0.0000000000
     10470        91  SAPS      H20T           27.1857720953      -28.2997392895        3.1748394668  MEMB      91              0.0000000000
     10471        91  SAPS      C33            31.2375252037      -34.3180060643       12.5172307201  MEMB      91              0.0000000000
     10472        91  SAPS      H3X            30.1924646038      -34.0858954306       12.8552275132  MEMB      91              0.0000000000
     10473        91  SAPS      H3Y            31.5407246331      -35.3548224602       12.8299567578  MEMB      91              0.0000000000
     10474        91  SAPS      C34            31.2692263488      -34.1712867164       11.0467515439  MEMB      91              0.0000000000
     10475        91  SAPS      H4X            31.1650478549      -33.1671974244       10.6415454909  MEMB      91              0.0000000000
     10476        91  SAPS      H4Y            30.2251094910      -34.4307696013       10.8041246732  MEMB      91              0.0000000000
     10477        91  SAPS      C35            32.4777063165      -34.9388811609       10.4485501840  MEMB      91              0.0000000000
     10478        91  SAPS      H5X            32.3190209966      -36.0449115582       10.5701536403  MEMB      91              0.0000000000
     10479        91  SAPS      H5Y            33.4180586790      -34.8989684731       11.0039695453  MEMB      91              0.0000000000
     10480        91  SAPS      C36            32.6709572388      -34.6313431144        8.9575425613  MEMB      91              0.0000000000
     10481        91  SAPS      H6X            31.7521936015      -35.0094511723        8.4494607638  MEMB      91              0.0000000000
     10482        91  SAPS      H6Y            33.6164441948      -35.1005506628        8.5840626527  MEMB      91              0.0000000000
     10483        91  SAPS      C37            32.6497270661      -33.3146634219        8.3008983573  MEMB      91              0.0000000000
     10484        91  SAPS      H7X            33.6231956771      -32.9052246959        8.6310166425  MEMB      91              0.0000000000
     10485        91  SAPS      H7Y            31.7600604841      -32.8191520851        8.7229711381  MEMB      91              0.0000000000
     10486        91  SAPS      C38            32.4325025687      -33.5082316214        6.7777009224  MEMB      91              0.0000000000
     10487        91  SAPS      H8X            31.3593301017      -33.7654373725        6.5988523232  MEMB      91              0.0000000000
     10488        91  SAPS      H8Y            33.0139694441      -34.3575105957        6.3396683073  MEMB      91              0.0000000000
     10489        91  SAPS      C39            32.8438122350      -32.2712521929        5.9944968171  MEMB      91              0.0000000000
     10490        91  SAPS      H9X            33.8925554539      -32.0588202156        6.3012179509  MEMB      91              0.0000000000
     10491        91  SAPS      H9Y            32.2425727223      -31.3907405219        6.2755643222  MEMB      91              0.0000000000
     10492        91  SAPS      C310           32.8059181759      -32.4882398927        4.4790576207  MEMB      91              0.0000000000
     10493        91  SAPS      H10X           33.5412115881      -33.2939376123        4.2555111026  MEMB      91              0.0000000000
     10494        91  SAPS      H10Y           33.1541753597      -31.5611482689        3.9708871060  MEMB      91              0.0000000000
     10495        91  SAPS      C311           31.4262897010      -32.8538415218        3.9082211391  MEMB      91              0.0000000000
     10496        91  SAPS      H11X           30.7474168206      -31.9861260771        3.9677099817  MEMB      91              0.0000000000
     10497        91  SAPS      H11Y           30.9271663467      -33.6446531495        4.5025885645  MEMB      91              0.0000000000
     10498        91  SAPS      C312           31.4956791648      -33.1664010895        2.4109171211  MEMB      91              0.0000000000
     10499        91  SAPS      H12X           32.0366277125      -34.1109872248        2.1995197199  MEMB      91              0.0000000000
     10500        91  SAPS      H12Y           32.0697724458      -32.3290514116        1.9468863309  MEMB      91              0.0000000000
     10501        91  SAPS      C313           30.1128740587      -33.1975080747        1.7677202222  MEMB      91              0.0000000000
     10502        91  SAPS      H13X           29.5105652683      -32.3466973694        2.1559854504  MEMB      91              0.0000000000
     10503        91  SAPS      H13Y           29.5672572494      -34.1388550961        1.9945043448  MEMB      91              0.0000000000
     10504        91  SAPS      C314           30.1627748225      -33.0459442434        0.2670353184  MEMB      91              0.0000000000
     10505        91  SAPS      H14X           30.6292311797      -33.9434830680       -0.2089263594  MEMB      91              0.0000000000
     10506        91  SAPS      H14Y           30.7412279658      -32.1385129185       -0.0312621274  MEMB      91              0.0000000000
     10507        91  SAPS      C315           28.7564877811      -32.8391672462       -0.2691387399  MEMB      91              0.0000000000
     10508        91  SAPS      H15X           29.0708890860      -32.6095931680       -1.3070587839  MEMB      91              0.0000000000
     10509        91  SAPS      H15Y           28.2701354589      -31.9069331206        0.0470364646  MEMB      91              0.0000000000
     10510        91  SAPS      C316           27.7830084425      -34.0328700927       -0.0012909415  MEMB      91              0.0000000000
     10511        91  SAPS      H16X           27.5069135500      -34.0883630497        1.0663705578  MEMB      91              0.0000000000
     10512        91  SAPS      H16Y           28.2900328058      -34.9932026893       -0.2711769298  MEMB      91              0.0000000000
     10513        91  SAPS      C317           26.3599035509      -34.0179009196       -0.5790530211  MEMB      91              0.0000000000
     10514        91  SAPS      H17X           26.0607495948      -35.0797714721       -0.5833507425  MEMB      91              0.0000000000
     10515        91  SAPS      H17Y           25.9958351895      -33.8348527721       -1.6154121882  MEMB      91              0.0000000000
     10516        91  SAPS      C318           25.5388147519      -32.8202485065       -0.2879120409  MEMB      91              0.0000000000
     10517        91  SAPS      H18X           24.6007062782      -32.8181691995       -0.8886343585  MEMB      91              0.0000000000
     10518        91  SAPS      H18Y           26.1207626137      -31.9230584322       -0.6208821132  MEMB      91              0.0000000000
     10519        91  SAPS      H18Z           25.3275043460      -33.0051309091        0.7582387502  MEMB      91              0.0000000000
     10520        92  CHL1      C3             26.7160288699       33.3617913642       17.6749539192  MEMB      92              0.0000000000
     10521        92  CHL1      H3             25.9511275543       32.7498484879       18.1285791846  MEMB      92              0.0000000000
     10522        92  CHL1      O3             27.8204315051       33.5963641576       18.5428051957  MEMB      92              0.0000000000
     10523        92  CHL1      H3'            27.5578335625       34.3067278677       19.1488228438  MEMB      92              0.0000000000
     10524        92  CHL1      C4             27.1211181511       32.4835274531       16.5624175006  MEMB      92              0.0000000000
     10525        92  CHL1      H4A            27.7980126132       33.3296235425       16.3573672974  MEMB      92              0.0000000000
     10526        92  CHL1      H4B            27.7062544306       31.5792817952       16.8402878988  MEMB      92              0.0000000000
     10527        92  CHL1      C5             26.3313793311       32.2776136127       15.3045946191  MEMB      92              0.0000000000
     10528        92  CHL1      C6             26.3251818852       31.0649908850       14.7381854509  MEMB      92              0.0000000000
     10529        92  CHL1      H6             26.9868099082       30.2845466323       15.1491844315  MEMB      92              0.0000000000
     10530        92  CHL1      C7             25.6216243244       30.7779797674       13.4660846043  MEMB      92              0.0000000000
     10531        92  CHL1      H7A            26.2099482334       30.1266990199       12.7702865024  MEMB      92              0.0000000000
     10532        92  CHL1      H7B            24.6991713904       30.2405518334       13.7440312534  MEMB      92              0.0000000000
     10533        92  CHL1      C8             25.2525635852       32.1076484231       12.7579130008  MEMB      92              0.0000000000
     10534        92  CHL1      H8             26.1018195204       32.4285683110       12.1646299935  MEMB      92              0.0000000000
     10535        92  CHL1      C14            24.2232138829       31.8505378947       11.7567455032  MEMB      92              0.0000000000
     10536        92  CHL1      H14            23.3093858795       31.6612728450       12.3773102555  MEMB      92              0.0000000000
     10537        92  CHL1      C15            24.4415693164       30.6109546306       10.8905315135  MEMB      92              0.0000000000
     10538        92  CHL1      H15A           25.4295782045       30.4294042464       10.4511008924  MEMB      92              0.0000000000
     10539        92  CHL1      H15B           24.0648971487       29.6855496403       11.4177271407  MEMB      92              0.0000000000
     10540        92  CHL1      C16            23.6571742060       31.0550707817        9.6816926956  MEMB      92              0.0000000000
     10541        92  CHL1      H16A           23.6054464319       30.4937974860        8.7563838260  MEMB      92              0.0000000000
     10542        92  CHL1      H16B           22.8540266962       30.5104759237       10.0049805298  MEMB      92              0.0000000000
     10543        92  CHL1      C17            23.0786319611       32.5139359067        9.8116755965  MEMB      92              0.0000000000
     10544        92  CHL1      H17            22.1904159152       32.5414985456       10.5199070769  MEMB      92              0.0000000000
     10545        92  CHL1      C13            23.9401371224       33.0774240041       10.8575326229  MEMB      92              0.0000000000
     10546        92  CHL1      C18            25.0652537119       33.5280711770        9.9614454540  MEMB      92              0.0000000000
     10547        92  CHL1      H18A           25.3384948859       32.7396517790        9.2185580268  MEMB      92              0.0000000000
     10548        92  CHL1      H18B           24.7249643928       34.4089072072        9.3976969045  MEMB      92              0.0000000000
     10549        92  CHL1      H18C           25.9150244598       33.8453800606       10.5608285569  MEMB      92              0.0000000000
     10550        92  CHL1      C12            23.2983624346       34.1607651203       11.7267653876  MEMB      92              0.0000000000
     10551        92  CHL1      H12A           23.0113625219       34.9999633930       11.0686852492  MEMB      92              0.0000000000
     10552        92  CHL1      H12B           22.3694648315       33.7951653736       12.2243092739  MEMB      92              0.0000000000
     10553        92  CHL1      C11            24.2783807545       34.5147547918       12.8319755990  MEMB      92              0.0000000000
     10554        92  CHL1      H11A           25.1350316873       34.9822991761       12.3037067111  MEMB      92              0.0000000000
     10555        92  CHL1      H11B           23.8002812552       35.2604545325       13.5005400983  MEMB      92              0.0000000000
     10556        92  CHL1      C9             24.7503990298       33.2605787020       13.6490474654  MEMB      92              0.0000000000
     10557        92  CHL1      H9             23.8581428321       32.8858002921       14.1975530417  MEMB      92              0.0000000000
     10558        92  CHL1      C10            25.7537069172       33.5813383916       14.7387557061  MEMB      92              0.0000000000
     10559        92  CHL1      C19            26.7418299416       34.5760167760       14.1269227187  MEMB      92              0.0000000000
     10560        92  CHL1      H19A           27.6403670413       34.6229163902       14.7480046709  MEMB      92              0.0000000000
     10561        92  CHL1      H19B           26.9688732898       34.2931317990       13.1154960265  MEMB      92              0.0000000000
     10562        92  CHL1      H19C           26.3690816766       35.6080002189       14.0261344008  MEMB      92              0.0000000000
     10563        92  CHL1      C1             25.1957015356       34.3528201895       15.9309053495  MEMB      92              0.0000000000
     10564        92  CHL1      H1A            24.7798187664       35.3120047097       15.5658815550  MEMB      92              0.0000000000
     10565        92  CHL1      H1B            24.4038586950       33.7164588252       16.3602569453  MEMB      92              0.0000000000
     10566        92  CHL1      C2             26.2068898094       34.6677942906       17.0588391456  MEMB      92              0.0000000000
     10567        92  CHL1      H2A            25.6859625014       35.1956624927       17.8715000961  MEMB      92              0.0000000000
     10568        92  CHL1      H2B            27.0303763881       35.3271085442       16.6816704470  MEMB      92              0.0000000000
     10569        92  CHL1      C20            22.7055628097       33.1063351128        8.3372276710  MEMB      92              0.0000000000
     10570        92  CHL1      H20            23.6570153222       33.1493276845        7.8036874311  MEMB      92              0.0000000000
     10571        92  CHL1      C21            22.2262716377       34.5951261932        8.5156588913  MEMB      92              0.0000000000
     10572        92  CHL1      H21A           23.0111439444       35.2315275846        8.9437418592  MEMB      92              0.0000000000
     10573        92  CHL1      H21B           21.3702379532       34.8520474397        9.1761052321  MEMB      92              0.0000000000
     10574        92  CHL1      H21C           21.8726796015       34.9496792393        7.5272635024  MEMB      92              0.0000000000
     10575        92  CHL1      C22            21.8696347282       32.1738229204        7.2133806215  MEMB      92              0.0000000000
     10576        92  CHL1      H22A           21.5894648501       31.1189908867        7.2652033873  MEMB      92              0.0000000000
     10577        92  CHL1      H22B           20.8137348977       32.2019263441        7.3062147394  MEMB      92              0.0000000000
     10578        92  CHL1      C23            21.4015030278       32.5532333478        5.8709334158  MEMB      92              0.0000000000
     10579        92  CHL1      H23A           21.0348620190       33.6080747062        5.9455260248  MEMB      92              0.0000000000
     10580        92  CHL1      H23B           22.4106822300       32.3667278325        5.4917932924  MEMB      92              0.0000000000
     10581        92  CHL1      C24            20.3446066137       31.4843406073        5.3965411834  MEMB      92              0.0000000000
     10582        92  CHL1      H24A           20.6904846952       30.4561119044        5.5884636423  MEMB      92              0.0000000000
     10583        92  CHL1      H24B           19.2905261043       31.5470764153        5.7764844797  MEMB      92              0.0000000000
     10584        92  CHL1      C25            20.2503466236       31.6031513846        3.9508907979  MEMB      92              0.0000000000
     10585        92  CHL1      H25            21.2352044092       31.5623278366        3.4630088244  MEMB      92              0.0000000000
     10586        92  CHL1      C26            19.2384283148       30.6403505424        3.3395045265  MEMB      92              0.0000000000
     10587        92  CHL1      H26A           19.7017108701       29.6397003964        3.3786380962  MEMB      92              0.0000000000
     10588        92  CHL1      H26B           18.3046836494       30.6615697387        3.9507921461  MEMB      92              0.0000000000
     10589        92  CHL1      H26C           18.9495502802       30.8750453712        2.2959647720  MEMB      92              0.0000000000
     10590        92  CHL1      C27            19.7899497571       32.9435355049        3.7872036495  MEMB      92              0.0000000000
     10591        92  CHL1      H27A           20.0263591455       33.8536379839        4.3720567777  MEMB      92              0.0000000000
     10592        92  CHL1      H27B           20.1065540008       33.1471152649        2.7539034298  MEMB      92              0.0000000000
     10593        92  CHL1      H27C           18.7043042056       32.7922822104        3.8270988563  MEMB      92              0.0000000000
     10594        93  SAPE      N             -31.8990311559       27.0165784801       20.5508283859  MEMB      93              0.0000000000
     10595        93  SAPE      HN1           -31.2549290938       27.4791431578       19.8754086585  MEMB      93              0.0000000000
     10596        93  SAPE      HN2           -31.5760360632       27.3305214873       21.4825706952  MEMB      93              0.0000000000
     10597        93  SAPE      HN3           -31.8345919261       25.9922030839       20.4110231536  MEMB      93              0.0000000000
     10598        93  SAPE      C12           -33.2773853407       27.5175989574       20.2103311491  MEMB      93              0.0000000000
     10599        93  SAPE      H12A          -34.0127780638       26.9711347044       20.8292303744  MEMB      93              0.0000000000
     10600        93  SAPE      H12B          -33.4267664719       27.2523684237       19.1403815406  MEMB      93              0.0000000000
     10601        93  SAPE      C11           -33.4250078154       29.0311479999       20.4289622708  MEMB      93              0.0000000000
     10602        93  SAPE      H11A          -33.5883852507       29.2590021316       21.5012673790  MEMB      93              0.0000000000
     10603        93  SAPE      H11B          -34.3545452794       29.3860533680       19.9024530660  MEMB      93              0.0000000000
     10604        93  SAPE      P             -32.4687642782       31.3099500856       19.8844000428  MEMB      93              0.0000000000
     10605        93  SAPE      O13           -33.6161317386       31.7034688625       20.7249082057  MEMB      93              0.0000000000
     10606        93  SAPE      O14           -31.2435797239       32.0748536393       20.1320586639  MEMB      93              0.0000000000
     10607        93  SAPE      O12           -32.2443268876       29.7213078141       20.0136441425  MEMB      93              0.0000000000
     10608        93  SAPE      O11           -32.9555456683       31.3946788144       18.4067996345  MEMB      93              0.0000000000
     10609        93  SAPE      C1            -32.7647777828       30.2984736852       17.4934716976  MEMB      93              0.0000000000
     10610        93  SAPE      HA            -31.7213044040       29.8743301939       17.5500044276  MEMB      93              0.0000000000
     10611        93  SAPE      HB            -33.5448567833       29.5301733384       17.5290902589  MEMB      93              0.0000000000
     10612        93  SAPE      C2            -32.7900627422       30.9682403112       16.1757596531  MEMB      93              0.0000000000
     10613        93  SAPE      HS            -31.9444583841       31.5684379382       16.4272999789  MEMB      93              0.0000000000
     10614        93  SAPE      O21           -33.9863236472       31.7164884320       15.9928456924  MEMB      93              0.0000000000
     10615        93  SAPE      C21           -34.1049535696       32.9457246933       16.3525649880  MEMB      93              0.0000000000
     10616        93  SAPE      O22           -33.2589464179       33.7407979142       16.7237035373  MEMB      93              0.0000000000
     10617        93  SAPE      C22           -35.5179937568       33.3111725983       16.0519795581  MEMB      93              0.0000000000
     10618        93  SAPE      H2R           -36.0893668905       32.4726951909       15.6262143302  MEMB      93              0.0000000000
     10619        93  SAPE      H2S           -35.9222983625       33.7406354634       16.9821042038  MEMB      93              0.0000000000
     10620        93  SAPE      C3            -32.6233637914       30.2429396291       14.8439236191  MEMB      93              0.0000000000
     10621        93  SAPE      HX            -31.7438815004       29.5785007947       14.8696720055  MEMB      93              0.0000000000
     10622        93  SAPE      HY            -32.4610249550       30.8354514565       13.9296723231  MEMB      93              0.0000000000
     10623        93  SAPE      O31           -33.9038698934       29.7456836098       14.6100831778  MEMB      93              0.0000000000
     10624        93  SAPE      C31           -33.9714038281       28.5665803180       14.3798247292  MEMB      93              0.0000000000
     10625        93  SAPE      O32           -33.1481077698       27.7532209422       14.1200232086  MEMB      93              0.0000000000
     10626        93  SAPE      C32           -35.2895353279       28.0882873770       14.4192910716  MEMB      93              0.0000000000
     10627        93  SAPE      H2X           -35.5131590905       27.7317897885       15.4320735516  MEMB      93              0.0000000000
     10628        93  SAPE      H2Y           -35.0874330576       27.2708352107       13.7285307914  MEMB      93              0.0000000000
     10629        93  SAPE      C23           -35.4403916401       34.3998161045       15.0580382624  MEMB      93              0.0000000000
     10630        93  SAPE      H3R           -34.8058884334       35.0565179121       15.6423274029  MEMB      93              0.0000000000
     10631        93  SAPE      H3S           -36.1926727459       35.1736747453       14.7205068500  MEMB      93              0.0000000000
     10632        93  SAPE      C24           -35.0246788807       33.8659192545       13.7998681238  MEMB      93              0.0000000000
     10633        93  SAPE      H4R           -34.0196160467       33.4385406795       13.6687044176  MEMB      93              0.0000000000
     10634        93  SAPE      H4S           -35.1089614811       34.8114608269       13.2910888065  MEMB      93              0.0000000000
     10635        93  SAPE      C25           -36.0535757633       33.2699018887       13.0475177022  MEMB      93              0.0000000000
     10636        93  SAPE      H5R           -36.7076145966       32.5872723430       13.6097548698  MEMB      93              0.0000000000
     10637        93  SAPE      C26           -36.4690985177       33.7410790681       11.9006467222  MEMB      93              0.0000000000
     10638        93  SAPE      H6R           -37.2954009707       33.1609912131       11.8894123018  MEMB      93              0.0000000000
     10639        93  SAPE      C27           -36.3408836256       34.8205150883       10.7987253123  MEMB      93              0.0000000000
     10640        93  SAPE      H7R           -35.8205864116       35.4952958246       11.1679412344  MEMB      93              0.0000000000
     10641        93  SAPE      H7S           -37.2188890008       35.4886106695       10.8598119646  MEMB      93              0.0000000000
     10642        93  SAPE      C28           -35.9503639036       34.9508328733        9.3440116372  MEMB      93              0.0000000000
     10643        93  SAPE      H8R           -36.9301859081       35.2373780017        9.0507714719  MEMB      93              0.0000000000
     10644        93  SAPE      C29           -35.0680627037       34.3212524028        8.4309929833  MEMB      93              0.0000000000
     10645        93  SAPE      H9R           -35.2687164140       33.9690728188        7.3779614510  MEMB      93              0.0000000000
     10646        93  SAPE      C210          -34.1092135516       33.2532179773        8.6473381990  MEMB      93              0.0000000000
     10647        93  SAPE      H10R          -33.8551688918       34.3003112216        8.4737805621  MEMB      93              0.0000000000
     10648        93  SAPE      H10S          -33.1742649491       33.7748575312        8.6120499696  MEMB      93              0.0000000000
     10649        93  SAPE      C211          -33.6568309106       32.3087195503        9.8311208399  MEMB      93              0.0000000000
     10650        93  SAPE      H11R          -33.1903869622       32.6370191974       10.7876838979  MEMB      93              0.0000000000
     10651        93  SAPE      C212          -33.1708206757       31.0940534531        9.5204895470  MEMB      93              0.0000000000
     10652        93  SAPE      H12R          -32.3462913180       30.7614532420       10.1758748440  MEMB      93              0.0000000000
     10653        93  SAPE      C213          -33.0934379036       30.6745714158        8.0803921628  MEMB      93              0.0000000000
     10654        93  SAPE      H13R          -33.2325522135       31.5261132177        7.3541743477  MEMB      93              0.0000000000
     10655        93  SAPE      H13S          -33.9501141439       30.0765746222        7.8532050079  MEMB      93              0.0000000000
     10656        93  SAPE      C214          -31.7946030918       30.1174596538        7.6311473709  MEMB      93              0.0000000000
     10657        93  SAPE      H14R          -30.8832193126       30.2099099491        8.2664191149  MEMB      93              0.0000000000
     10658        93  SAPE      C215          -31.5825928334       29.7196330508        6.3968125114  MEMB      93              0.0000000000
     10659        93  SAPE      H15R          -30.5282357288       29.6801337093        6.0880848522  MEMB      93              0.0000000000
     10660        93  SAPE      C216          -32.4569217118       29.6320558756        5.2708606830  MEMB      93              0.0000000000
     10661        93  SAPE      H16R          -33.4621184294       29.9855922321        5.5317185838  MEMB      93              0.0000000000
     10662        93  SAPE      H16S          -32.4169630242       28.5666153450        5.2303808306  MEMB      93              0.0000000000
     10663        93  SAPE      C217          -31.9731422900       29.7571649874        3.8596492014  MEMB      93              0.0000000000
     10664        93  SAPE      H17R          -32.6053911217       29.2761170469        3.1311669863  MEMB      93              0.0000000000
     10665        93  SAPE      H17S          -30.8786312740       29.5234606829        3.7031288467  MEMB      93              0.0000000000
     10666        93  SAPE      C218          -32.3698545384       31.0925690824        3.5402776491  MEMB      93              0.0000000000
     10667        93  SAPE      H18R          -31.5167733534       31.2729538051        4.2574697788  MEMB      93              0.0000000000
     10668        93  SAPE      H18S          -33.2615122728       31.5745104823        3.9499361540  MEMB      93              0.0000000000
     10669        93  SAPE      C219          -32.2249105019       31.5145041241        2.0863019489  MEMB      93              0.0000000000
     10670        93  SAPE      H19R          -32.5750847917       30.7069702455        1.5445907867  MEMB      93              0.0000000000
     10671        93  SAPE      H19S          -31.1519970122       31.2816117933        1.9385238406  MEMB      93              0.0000000000
     10672        93  SAPE      C220          -32.6795253723       32.9610881986        1.6549280700  MEMB      93              0.0000000000
     10673        93  SAPE      H20R          -33.6046801346       33.3165508237        2.0811009731  MEMB      93              0.0000000000
     10674        93  SAPE      H20S          -32.4851954478       33.1541244869        0.6071970634  MEMB      93              0.0000000000
     10675        93  SAPE      H20T          -32.1489189950       33.8709204416        1.9929928840  MEMB      93              0.0000000000
     10676        93  SAPE      C33           -36.2744981375       28.7394830411       13.6210853930  MEMB      93              0.0000000000
     10677        93  SAPE      H3X           -36.3443359937       29.6816585061       14.1912284404  MEMB      93              0.0000000000
     10678        93  SAPE      H3Y           -37.1291944409       28.0641785152       13.8016357098  MEMB      93              0.0000000000
     10679        93  SAPE      C34           -35.7133610679       28.8085637668       12.2066831402  MEMB      93              0.0000000000
     10680        93  SAPE      H4X           -35.9501518470       27.9671389937       11.5080557773  MEMB      93              0.0000000000
     10681        93  SAPE      H4Y           -34.6509523281       29.0862034316       12.0872368741  MEMB      93              0.0000000000
     10682        93  SAPE      C35           -36.4081394217       29.8545739657       11.5696397376  MEMB      93              0.0000000000
     10683        93  SAPE      H5X           -36.6733348002       30.6974275160       12.2620897660  MEMB      93              0.0000000000
     10684        93  SAPE      H5Y           -37.2186899745       29.2091622630       11.1972484415  MEMB      93              0.0000000000
     10685        93  SAPE      C36           -35.9989568228       30.2084213388       10.2354037761  MEMB      93              0.0000000000
     10686        93  SAPE      H6X           -35.4203615803       31.0712589915       10.3133548104  MEMB      93              0.0000000000
     10687        93  SAPE      H6Y           -36.8722850496       30.6320052962        9.8669481117  MEMB      93              0.0000000000
     10688        93  SAPE      C37           -36.2014770989       29.2872476367        9.0655893847  MEMB      93              0.0000000000
     10689        93  SAPE      H7X           -37.1005823005       28.6253438466        9.1952630858  MEMB      93              0.0000000000
     10690        93  SAPE      H7Y           -35.2489026882       28.7714075728        9.1475590870  MEMB      93              0.0000000000
     10691        93  SAPE      C38           -36.4170347719       29.9772909432        7.7240528201  MEMB      93              0.0000000000
     10692        93  SAPE      H8X           -35.7258916301       30.8252273544        7.5141511776  MEMB      93              0.0000000000
     10693        93  SAPE      H8Y           -37.4195511688       30.4485112695        7.6902039589  MEMB      93              0.0000000000
     10694        93  SAPE      C39           -36.3007801718       28.9605609279        6.6084707674  MEMB      93              0.0000000000
     10695        93  SAPE      H9X           -37.2324802365       28.3443012324        6.6266202349  MEMB      93              0.0000000000
     10696        93  SAPE      H9Y           -35.4004422030       28.3438951330        6.7050476918  MEMB      93              0.0000000000
     10697        93  SAPE      C310          -36.3409135996       29.6964570009        5.3058042903  MEMB      93              0.0000000000
     10698        93  SAPE      H10X          -35.6776982946       30.5576366603        5.1091585277  MEMB      93              0.0000000000
     10699        93  SAPE      H10Y          -37.1997841477       30.1782375504        5.7271884646  MEMB      93              0.0000000000
     10700        93  SAPE      C311          -36.8716959407       28.9754734456        4.0814686506  MEMB      93              0.0000000000
     10701        93  SAPE      H11X          -36.7105889710       29.3983024873        3.0654456088  MEMB      93              0.0000000000
     10702        93  SAPE      H11Y          -37.8765885884       28.5078434576        4.0939172466  MEMB      93              0.0000000000
     10703        93  SAPE      C312          -35.9264782446       28.0620911651        3.8505877860  MEMB      93              0.0000000000
     10704        93  SAPE      H12X          -36.3147066559       27.3369394126        4.6661984297  MEMB      93              0.0000000000
     10705        93  SAPE      H12Y          -34.8645484275       28.4498545194        3.9207148431  MEMB      93              0.0000000000
     10706        93  SAPE      C313          -36.1149905434       27.5905152719        2.4871907860  MEMB      93              0.0000000000
     10707        93  SAPE      H13X          -37.1034967893       27.1687185978        2.3172932211  MEMB      93              0.0000000000
     10708        93  SAPE      H13Y          -35.5512660037       26.9248806641        3.1274690100  MEMB      93              0.0000000000
     10709        93  SAPE      C314          -35.3700263696       28.1039743640        1.1906458886  MEMB      93              0.0000000000
     10710        93  SAPE      H14X          -35.8891359082       29.0224203249        0.9643510831  MEMB      93              0.0000000000
     10711        93  SAPE      H14Y          -35.7167639055       27.3693575884        0.4715451879  MEMB      93              0.0000000000
     10712        93  SAPE      C315          -33.8672230601       27.8894593339        0.7158569791  MEMB      93              0.0000000000
     10713        93  SAPE      H15X          -33.5209327519       26.8526056413        0.4897823299  MEMB      93              0.0000000000
     10714        93  SAPE      H15Y          -33.2212744018       28.3157090498        1.4715835622  MEMB      93              0.0000000000
     10715        93  SAPE      C316          -33.5092256257       28.3537599777       -0.6711351363  MEMB      93              0.0000000000
     10716        93  SAPE      H16X          -34.4296435696       28.1387681290       -1.2492055150  MEMB      93              0.0000000000
     10717        93  SAPE      H16Y          -32.6420134308       27.8534812777       -1.1516218574  MEMB      93              0.0000000000
     10718        93  SAPE      C317          -33.1116370089       29.7643248317       -0.5304102290  MEMB      93              0.0000000000
     10719        93  SAPE      H17X          -32.1778208960       30.0110451142       -0.0575980699  MEMB      93              0.0000000000
     10720        93  SAPE      H17Y          -33.8661389438       30.0956880847        0.2566752292  MEMB      93              0.0000000000
     10721        93  SAPE      C318          -32.9947055110       30.4404315501       -1.8847110774  MEMB      93              0.0000000000
     10722        93  SAPE      H18X          -33.9364051923       30.2206784473       -2.3414136560  MEMB      93              0.0000000000
     10723        93  SAPE      H18Y          -32.6652005469       29.9442098190       -2.7913585360  MEMB      93              0.0000000000
     10724        93  SAPE      H18Z          -32.9894360227       31.5499219075       -1.7989751468  MEMB      93              0.0000000000
     10725        94  SAPS      N             -36.2854500462      -28.8245649078       18.1108703016  MEMB      94              0.0000000000
     10726        94  SAPS      HN1           -36.5732417799      -29.7123269557       17.6425946635  MEMB      94              0.0000000000
     10727        94  SAPS      HN2           -36.8174144107      -28.0243303083       17.6898304916  MEMB      94              0.0000000000
     10728        94  SAPS      HN3           -35.2654085541      -28.6706576342       18.0555064388  MEMB      94              0.0000000000
     10729        94  SAPS      C12           -36.6063398018      -28.9627409874       19.5836054831  MEMB      94              0.0000000000
     10730        94  SAPS      H12A          -35.9170637909      -28.4044780967       20.1791022522  MEMB      94              0.0000000000
     10731        94  SAPS      C13           -38.0260883348      -28.6275518109       19.8958661860  MEMB      94              0.0000000000
     10732        94  SAPS      O13A          -38.7814031091      -28.2066144827       18.9738718059  MEMB      94              0.0000000000
     10733        94  SAPS      O13B          -38.2999587392      -28.6147697036       21.1323873949  MEMB      94              0.0000000000
     10734        94  SAPS      C11           -36.6963022698      -30.3614392087       20.1934859137  MEMB      94              0.0000000000
     10735        94  SAPS      H11A          -37.5118724855      -30.8284862519       19.5662608702  MEMB      94              0.0000000000
     10736        94  SAPS      H11B          -37.0993145425      -30.4499101519       21.2151155723  MEMB      94              0.0000000000
     10737        94  SAPS      P             -34.1315444202      -30.8730959338       20.7684043333  MEMB      94              0.0000000000
     10738        94  SAPS      O13           -34.4192049691      -29.9104798316       21.8256867059  MEMB      94              0.0000000000
     10739        94  SAPS      O14           -33.4253526899      -32.1434856381       21.0424493023  MEMB      94              0.0000000000
     10740        94  SAPS      O12           -35.4957080724      -31.1185776224       20.1692041341  MEMB      94              0.0000000000
     10741        94  SAPS      O11           -33.2676404255      -30.0812050648       19.6461627539  MEMB      94              0.0000000000
     10742        94  SAPS      C1            -32.8457385363      -30.6945879985       18.4421376044  MEMB      94              0.0000000000
     10743        94  SAPS      HA            -32.6917106662      -31.8086619443       18.5419969325  MEMB      94              0.0000000000
     10744        94  SAPS      HB            -33.6748650315      -30.3500571952       17.8007944993  MEMB      94              0.0000000000
     10745        94  SAPS      C2            -31.8076770495      -30.1347827640       17.4490694359  MEMB      94              0.0000000000
     10746        94  SAPS      HS            -30.9947989045      -29.9419689160       18.1570192502  MEMB      94              0.0000000000
     10747        94  SAPS      O21           -32.3789433039      -28.9433333840       16.8891734698  MEMB      94              0.0000000000
     10748        94  SAPS      C21           -31.4719797929      -28.1181274023       16.4117300076  MEMB      94              0.0000000000
     10749        94  SAPS      O22           -30.2724559607      -28.3123863922       16.4166123010  MEMB      94              0.0000000000
     10750        94  SAPS      C22           -32.1907290239      -26.8616048685       15.9679077139  MEMB      94              0.0000000000
     10751        94  SAPS      H2R           -32.2015774869      -26.1818216257       16.8415262877  MEMB      94              0.0000000000
     10752        94  SAPS      H2S           -31.5818282149      -26.4045026013       15.1675152600  MEMB      94              0.0000000000
     10753        94  SAPS      C3            -31.3120479790      -31.0946755495       16.2580963490  MEMB      94              0.0000000000
     10754        94  SAPS      HX            -31.0225391688      -32.0740251144       16.6823501864  MEMB      94              0.0000000000
     10755        94  SAPS      HY            -30.4205607251      -30.6094235143       15.8332395747  MEMB      94              0.0000000000
     10756        94  SAPS      O31           -32.1488302952      -31.2549752280       15.0992016428  MEMB      94              0.0000000000
     10757        94  SAPS      C31           -32.3604497966      -32.4868676587       14.6741420860  MEMB      94              0.0000000000
     10758        94  SAPS      O32           -31.6777342525      -33.4301382557       14.9950421514  MEMB      94              0.0000000000
     10759        94  SAPS      C32           -33.5834093947      -32.5634638121       13.7225452689  MEMB      94              0.0000000000
     10760        94  SAPS      H2X           -33.1932471989      -32.4183742558       12.7081800924  MEMB      94              0.0000000000
     10761        94  SAPS      H2Y           -33.9934043061      -31.6656156461       13.7537708001  MEMB      94              0.0000000000
     10762        94  SAPS      C23           -33.6344405124      -27.1159139076       15.4746845966  MEMB      94              0.0000000000
     10763        94  SAPS      H3R           -34.2249975432      -27.7079741067       16.2043662512  MEMB      94              0.0000000000
     10764        94  SAPS      H3S           -33.5211483235      -27.6669041624       14.5231571040  MEMB      94              0.0000000000
     10765        94  SAPS      C24           -34.3690229662      -25.8037588943       15.2187007665  MEMB      94              0.0000000000
     10766        94  SAPS      H4R           -33.6968661778      -25.2680743964       14.5167553144  MEMB      94              0.0000000000
     10767        94  SAPS      H4S           -34.3656530588      -25.2122609951       16.1577573637  MEMB      94              0.0000000000
     10768        94  SAPS      C25           -35.7511266671      -25.8087959976       14.6275508168  MEMB      94              0.0000000000
     10769        94  SAPS      H5R           -36.6018563462      -25.8579155547       15.3200811941  MEMB      94              0.0000000000
     10770        94  SAPS      C26           -36.0122421459      -25.8521874556       13.3202026312  MEMB      94              0.0000000000
     10771        94  SAPS      H6R           -37.0506563737      -25.7194912760       12.9784611850  MEMB      94              0.0000000000
     10772        94  SAPS      C27           -35.0155622520      -25.9115009301       12.2059371904  MEMB      94              0.0000000000
     10773        94  SAPS      H7R           -35.4598662630      -26.4844928622       11.3791470002  MEMB      94              0.0000000000
     10774        94  SAPS      H7S           -34.0485531175      -26.3612313886       12.5065694947  MEMB      94              0.0000000000
     10775        94  SAPS      C28           -34.8316865175      -24.6528841539       11.5079856039  MEMB      94              0.0000000000
     10776        94  SAPS      H8R           -34.7268351776      -23.7887118010       12.1988550084  MEMB      94              0.0000000000
     10777        94  SAPS      C29           -34.3142402559      -24.6377452082       10.2739602121  MEMB      94              0.0000000000
     10778        94  SAPS      H9R           -34.0300717122      -23.7172043414        9.7900290353  MEMB      94              0.0000000000
     10779        94  SAPS      C210          -33.8169110798      -25.6752746576        9.3862811536  MEMB      94              0.0000000000
     10780        94  SAPS      H10R          -34.2928618669      -26.5890000715        9.6146310696  MEMB      94              0.0000000000
     10781        94  SAPS      H10S          -32.7526611954      -25.8602034200        9.6896578250  MEMB      94              0.0000000000
     10782        94  SAPS      C211          -34.1743653458      -25.1485173076        8.0118281324  MEMB      94              0.0000000000
     10783        94  SAPS      H11R          -34.8010981914      -24.2205600288        8.0516449715  MEMB      94              0.0000000000
     10784        94  SAPS      C212          -33.6086626402      -25.4266203469        6.8314467592  MEMB      94              0.0000000000
     10785        94  SAPS      H12R          -33.6888473525      -24.5867876484        6.0979198903  MEMB      94              0.0000000000
     10786        94  SAPS      C213          -32.4155639969      -26.3899722913        6.6497055871  MEMB      94              0.0000000000
     10787        94  SAPS      H13R          -32.8465527006      -27.3709572089        6.7430532227  MEMB      94              0.0000000000
     10788        94  SAPS      H13S          -31.6849865685      -26.2025766933        7.4841527967  MEMB      94              0.0000000000
     10789        94  SAPS      C214          -31.5204818362      -26.6438600762        5.4459886992  MEMB      94              0.0000000000
     10790        94  SAPS      H14R          -30.5305870816      -26.1257103796        5.5063018097  MEMB      94              0.0000000000
     10791        94  SAPS      C215          -31.9042672954      -26.7191097219        4.1685038835  MEMB      94              0.0000000000
     10792        94  SAPS      H15R          -31.1140120945      -26.5446424295        3.4159578125  MEMB      94              0.0000000000
     10793        94  SAPS      C216          -33.2946923819      -26.5390501695        3.5825957885  MEMB      94              0.0000000000
     10794        94  SAPS      H16R          -33.5944358009      -25.5223145716        3.1610703688  MEMB      94              0.0000000000
     10795        94  SAPS      H16S          -34.0129879207      -26.6615969455        4.3934702137  MEMB      94              0.0000000000
     10796        94  SAPS      C217          -33.2889289483      -27.4780023176        2.3783272082  MEMB      94              0.0000000000
     10797        94  SAPS      H17R          -34.3296710409      -27.7792753532        2.2533162923  MEMB      94              0.0000000000
     10798        94  SAPS      H17S          -32.5884705750      -28.3188231306        2.5828718667  MEMB      94              0.0000000000
     10799        94  SAPS      C218          -32.9703147860      -26.9959122521        0.9587615918  MEMB      94              0.0000000000
     10800        94  SAPS      H18R          -31.8944962686      -26.7861117422        0.8109260446  MEMB      94              0.0000000000
     10801        94  SAPS      H18S          -33.5616935152      -26.1048053298        0.6441142010  MEMB      94              0.0000000000
     10802        94  SAPS      C219          -32.7121172349      -28.0741901721        0.0072622581  MEMB      94              0.0000000000
     10803        94  SAPS      H19R          -33.6716371037      -28.5941158561       -0.0043436047  MEMB      94              0.0000000000
     10804        94  SAPS      H19S          -31.8895399246      -28.6788881451        0.4772201460  MEMB      94              0.0000000000
     10805        94  SAPS      C220          -32.2511869795      -27.4432779771       -1.2898692043  MEMB      94              0.0000000000
     10806        94  SAPS      H20R          -33.0446109097      -26.8389271378       -1.7633126012  MEMB      94              0.0000000000
     10807        94  SAPS      H20S          -31.8655871537      -28.2454445543       -1.9482917934  MEMB      94              0.0000000000
     10808        94  SAPS      H20T          -31.4720042110      -26.6800477682       -1.0872386577  MEMB      94              0.0000000000
     10809        94  SAPS      C33           -34.9842919640      -33.3568431629       13.7484886984  MEMB      94              0.0000000000
     10810        94  SAPS      H3X           -34.8260227858      -34.3424204480       13.8097394125  MEMB      94              0.0000000000
     10811        94  SAPS      H3Y           -35.1876146127      -33.5103833267       12.7668604026  MEMB      94              0.0000000000
     10812        94  SAPS      C34           -36.3528361702      -33.3350997200       14.5849344843  MEMB      94              0.0000000000
     10813        94  SAPS      H4X           -35.6978816802      -33.0963250668       15.2662613418  MEMB      94              0.0000000000
     10814        94  SAPS      H4Y           -36.6281030186      -34.2931525566       15.0568484213  MEMB      94              0.0000000000
     10815        94  SAPS      C35           -37.3662863873      -32.1380076553       14.9123875082  MEMB      94              0.0000000000
     10816        94  SAPS      H5X           -37.2598364472      -31.0263142406       15.1300186848  MEMB      94              0.0000000000
     10817        94  SAPS      H5Y           -37.8244602724      -32.2427670018       15.8170342679  MEMB      94              0.0000000000
     10818        94  SAPS      C36           -37.8131544104      -31.4718363691       13.8082177498  MEMB      94              0.0000000000
     10819        94  SAPS      H6X           -38.3895117544      -32.2268903763       13.3149292793  MEMB      94              0.0000000000
     10820        94  SAPS      H6Y           -36.6697885670      -31.5921530566       13.7042244870  MEMB      94              0.0000000000
     10821        94  SAPS      C37           -38.1291042578      -29.9771385954       13.5428459926  MEMB      94              0.0000000000
     10822        94  SAPS      H7X           -37.2622428663      -29.3852295268       13.5028130305  MEMB      94              0.0000000000
     10823        94  SAPS      H7Y           -38.7127393356      -29.6508324794       14.4075725004  MEMB      94              0.0000000000
     10824        94  SAPS      C38           -38.4304395802      -29.3907448586       12.1192107565  MEMB      94              0.0000000000
     10825        94  SAPS      H8X           -38.7293020533      -28.3402267573       12.2736898248  MEMB      94              0.0000000000
     10826        94  SAPS      H8Y           -39.1873407562      -30.0985958331       11.7471777435  MEMB      94              0.0000000000
     10827        94  SAPS      C39           -37.3091132045      -29.1809737315       11.0363222500  MEMB      94              0.0000000000
     10828        94  SAPS      H9X           -37.1812800100      -30.0937243863       10.4855806108  MEMB      94              0.0000000000
     10829        94  SAPS      H9Y           -36.3503045982      -28.7787074177       11.3939111069  MEMB      94              0.0000000000
     10830        94  SAPS      C310          -37.5384314585      -28.4729398882        9.7409210285  MEMB      94              0.0000000000
     10831        94  SAPS      H10X          -37.4593549710      -27.4270676771       10.0739477382  MEMB      94              0.0000000000
     10832        94  SAPS      H10Y          -38.5443126251      -28.8062565584        9.4126813987  MEMB      94              0.0000000000
     10833        94  SAPS      C311          -36.4792477531      -28.7868039460        8.6522294093  MEMB      94              0.0000000000
     10834        94  SAPS      H11X          -36.2197096347      -29.8700574030        8.5942344013  MEMB      94              0.0000000000
     10835        94  SAPS      H11Y          -35.5354012026      -28.2391401714        8.8736062268  MEMB      94              0.0000000000
     10836        94  SAPS      C312          -37.0256182480      -28.4383819389        7.2666710183  MEMB      94              0.0000000000
     10837        94  SAPS      H12X          -37.6144276064      -27.5012251564        7.3264253642  MEMB      94              0.0000000000
     10838        94  SAPS      H12Y          -37.7242384171      -29.2516470176        6.9743095064  MEMB      94              0.0000000000
     10839        94  SAPS      C313          -35.9543731830      -28.1766901146        6.2064720176  MEMB      94              0.0000000000
     10840        94  SAPS      H13X          -35.3369310036      -27.3312714998        6.5715678819  MEMB      94              0.0000000000
     10841        94  SAPS      H13Y          -36.4561203166      -27.8354002615        5.2750511860  MEMB      94              0.0000000000
     10842        94  SAPS      C314          -34.9724625038      -29.3196067373        5.9273795951  MEMB      94              0.0000000000
     10843        94  SAPS      H14X          -34.4558541406      -29.5928136819        6.8707306900  MEMB      94              0.0000000000
     10844        94  SAPS      H14Y          -34.1940064435      -28.9381175803        5.2244503066  MEMB      94              0.0000000000
     10845        94  SAPS      C315          -35.5789312687      -30.6010079135        5.3566316645  MEMB      94              0.0000000000
     10846        94  SAPS      H15X          -36.1647071911      -31.1260995243        6.1393348967  MEMB      94              0.0000000000
     10847        94  SAPS      H15Y          -34.7213837731      -31.2367316944        5.0270320619  MEMB      94              0.0000000000
     10848        94  SAPS      C316          -36.5110279848      -30.4143065767        4.1820864115  MEMB      94              0.0000000000
     10849        94  SAPS      H16X          -37.3977360649      -29.8559998783        4.5503181152  MEMB      94              0.0000000000
     10850        94  SAPS      H16Y          -36.8710462986      -31.4023181369        3.8076111612  MEMB      94              0.0000000000
     10851        94  SAPS      C317          -35.7994171421      -29.6033249572        3.1212470387  MEMB      94              0.0000000000
     10852        94  SAPS      H17X          -34.7937316848      -30.0366188987        2.8917688463  MEMB      94              0.0000000000
     10853        94  SAPS      H17Y          -35.6521985170      -28.5709876671        3.4793153275  MEMB      94              0.0000000000
     10854        94  SAPS      C318          -36.5687133121      -29.5437611730        1.8602120210  MEMB      94              0.0000000000
     10855        94  SAPS      H18X          -36.0499260323      -28.9344629419        1.0998727064  MEMB      94              0.0000000000
     10856        94  SAPS      H18Y          -37.6125184927      -29.1715384086        1.9444214769  MEMB      94              0.0000000000
     10857        94  SAPS      H18Z          -36.5426327116      -30.5997373771        1.5557875471  MEMB      94              0.0000000000
     10858        95  OSM       N             -30.9374065372      -35.3588374056       21.2750553218  MEMB      95              0.0000000000
     10859        95  OSM       C15           -31.2442899231      -34.6474611332       19.9969057449  MEMB      95              0.0000000000
     10860        95  OSM       H15A          -32.3197309882      -34.4376746119       19.9709616813  MEMB      95              0.0000000000
     10861        95  OSM       H15B          -30.9534581487      -35.2216652944       19.1247094023  MEMB      95              0.0000000000
     10862        95  OSM       H15C          -30.7602413662      -33.6878513596       20.0179944426  MEMB      95              0.0000000000
     10863        95  OSM       C14           -31.1883639178      -36.8319826705       21.0813610431  MEMB      95              0.0000000000
     10864        95  OSM       H14A          -32.2308950174      -37.0523940552       20.8243054180  MEMB      95              0.0000000000
     10865        95  OSM       H14B          -30.9916211831      -37.3948747586       21.9898680027  MEMB      95              0.0000000000
     10866        95  OSM       H14C          -30.6001091028      -37.2689514698       20.2924698306  MEMB      95              0.0000000000
     10867        95  OSM       C13           -29.4931405942      -35.0229896288       21.4541602967  MEMB      95              0.0000000000
     10868        95  OSM       H13A          -28.9263824791      -35.5644417699       20.7074586424  MEMB      95              0.0000000000
     10869        95  OSM       H13B          -28.9899622010      -35.3027424564       22.3887550309  MEMB      95              0.0000000000
     10870        95  OSM       H13C          -29.3494574310      -33.9753939158       21.6049958374  MEMB      95              0.0000000000
     10871        95  OSM       C12           -31.9685680442      -34.8151249374       22.2742494015  MEMB      95              0.0000000000
     10872        95  OSM       H12A          -32.2719962231      -33.8091707678       21.9489329517  MEMB      95              0.0000000000
     10873        95  OSM       H12B          -31.5997501390      -34.7821494095       23.2787514725  MEMB      95              0.0000000000
     10874        95  OSM       C11           -33.3184954762      -35.5627466445       22.3332543499  MEMB      95              0.0000000000
     10875        95  OSM       H11A          -33.9789438060      -35.0987353025       23.1064532958  MEMB      95              0.0000000000
     10876        95  OSM       H11B          -33.2388869114      -36.6309842583       22.6109674908  MEMB      95              0.0000000000
     10877        95  OSM       P             -35.2422335198      -34.8446354551       20.7841244992  MEMB      95              0.0000000000
     10878        95  OSM       O13           -36.1638232316      -35.9069831770       20.4433130212  MEMB      95              0.0000000000
     10879        95  OSM       O14           -35.8065944326      -34.0306360259       21.8683994670  MEMB      95              0.0000000000
     10880        95  OSM       O11           -34.9408593051      -33.8821483150       19.6063486165  MEMB      95              0.0000000000
     10881        95  OSM       O12           -33.8528892204      -35.4902416922       21.0441496141  MEMB      95              0.0000000000
     10882        95  OSM       C1S           -34.2751281534      -34.2331314915       18.4529454126  MEMB      95              0.0000000000
     10883        95  OSM       H1S           -34.1882655194      -35.3277545877       18.2811336725  MEMB      95              0.0000000000
     10884        95  OSM       H1T           -33.2600424365      -33.7750950519       18.4094954614  MEMB      95              0.0000000000
     10885        95  OSM       NF            -34.0671790907      -34.1029036340       16.3288034241  MEMB      95              0.0000000000
     10886        95  OSM       HNF           -33.7270817047      -33.4390332883       15.7057645113  MEMB      95              0.0000000000
     10887        95  OSM       C2S           -35.0095844430      -33.6470580355       17.3042855450  MEMB      95              0.0000000000
     10888        95  OSM       H2S           -36.0553219528      -34.0190319038       17.1664635118  MEMB      95              0.0000000000
     10889        95  OSM       C3S           -35.0975925124      -32.0807068102       17.4160843131  MEMB      95              0.0000000000
     10890        95  OSM       H3S           -34.0572127807      -32.0791058525       17.4809636962  MEMB      95              0.0000000000
     10891        95  OSM       O3            -36.2379701700      -31.7969414680       18.0704801109  MEMB      95              0.0000000000
     10892        95  OSM       HO3           -36.1723701113      -32.2316208818       18.9431720879  MEMB      95              0.0000000000
     10893        95  OSM       C4S           -35.3111855753      -31.2282769129       16.1993415496  MEMB      95              0.0000000000
     10894        95  OSM       H4S           -36.2919638895      -30.7484901546       16.3977363304  MEMB      95              0.0000000000
     10895        95  OSM       C5S           -34.7244596859      -30.4228795358       15.3040172664  MEMB      95              0.0000000000
     10896        95  OSM       H5S           -33.7222125258      -30.1888946908       15.4818803203  MEMB      95              0.0000000000
     10897        95  OSM       C6S           -35.1570518443      -29.7487230988       13.9417248720  MEMB      95              0.0000000000
     10898        95  OSM       H6S           -34.2698990358      -29.1789349183       13.6050355497  MEMB      95              0.0000000000
     10899        95  OSM       H6T           -35.7663806261      -28.8948580819       14.2423351949  MEMB      95              0.0000000000
     10900        95  OSM       C7S           -35.3460581862      -30.6009386444       12.3392521336  MEMB      95              0.0000000000
     10901        95  OSM       H7S           -34.6514375674      -31.3649737611       12.1204755202  MEMB      95              0.0000000000
     10902        95  OSM       H7T           -34.9158708439      -29.9661432601       11.5762478417  MEMB      95              0.0000000000
     10903        95  OSM       C8S           -36.4225457876      -31.7743765242       11.6947144519  MEMB      95              0.0000000000
     10904        95  OSM       H8S           -37.4562515595      -31.4319230010       11.6808180101  MEMB      95              0.0000000000
     10905        95  OSM       H8T           -36.6737577226      -32.7121768316       12.2512734812  MEMB      95              0.0000000000
     10906        95  OSM       C9S           -36.5819324212      -32.4196639382       10.4349396647  MEMB      95              0.0000000000
     10907        95  OSM       H9S           -36.5798830311      -31.6226300385        9.7026718023  MEMB      95              0.0000000000
     10908        95  OSM       H9T           -37.6196338717      -32.9044617084       10.4799488704  MEMB      95              0.0000000000
     10909        95  OSM       C10S          -35.4442162197      -33.3330547810       10.3614032192  MEMB      95              0.0000000000
     10910        95  OSM       H10S          -35.4430342996      -34.1011712783       11.1484305066  MEMB      95              0.0000000000
     10911        95  OSM       H10T          -34.5265543567      -32.6993453099       10.4450005231  MEMB      95              0.0000000000
     10912        95  OSM       C11S          -35.6550115443      -34.0525959258        9.0971027537  MEMB      95              0.0000000000
     10913        95  OSM       H11S          -36.6125720571      -34.6217167311        9.1729973688  MEMB      95              0.0000000000
     10914        95  OSM       H11T          -34.8020069178      -34.7470877440        9.0502296560  MEMB      95              0.0000000000
     10915        95  OSM       C12S          -35.7201178077      -33.0295194854        7.9760809436  MEMB      95              0.0000000000
     10916        95  OSM       H12S          -34.8989864168      -32.2927102301        8.1512619304  MEMB      95              0.0000000000
     10917        95  OSM       H12T          -36.6727417415      -32.4455510384        8.0180364742  MEMB      95              0.0000000000
     10918        95  OSM       C13S          -35.6011746284      -33.6241670853        6.5926148624  MEMB      95              0.0000000000
     10919        95  OSM       H13S          -35.1427067346      -32.8489413742        5.9747546260  MEMB      95              0.0000000000
     10920        95  OSM       H13T          -36.6026279288      -33.8382603705        6.1541223880  MEMB      95              0.0000000000
     10921        95  OSM       C14S          -34.6599940079      -34.8197817192        6.4620120682  MEMB      95              0.0000000000
     10922        95  OSM       H14S          -34.9524247432      -35.5804042897        7.1921103230  MEMB      95              0.0000000000
     10923        95  OSM       H14T          -33.5922164150      -34.5127501671        6.5893376070  MEMB      95              0.0000000000
     10924        95  OSM       C15S          -34.8570678745      -35.5042106348        5.1356720948  MEMB      95              0.0000000000
     10925        95  OSM       H15S          -35.9323062770      -35.6449912332        5.0285432523  MEMB      95              0.0000000000
     10926        95  OSM       H15T          -34.2939918767      -36.4527658245        5.0257465860  MEMB      95              0.0000000000
     10927        95  OSM       C16S          -34.3774880842      -34.5267277855        4.1572790786  MEMB      95              0.0000000000
     10928        95  OSM       H16S          -33.3031870012      -34.5750165850        4.3235725965  MEMB      95              0.0000000000
     10929        95  OSM       H16T          -34.8482011276      -33.5350418136        4.2701615288  MEMB      95              0.0000000000
     10930        95  OSM       C17S          -34.7451832458      -34.6222822291        2.7860123865  MEMB      95              0.0000000000
     10931        95  OSM       H17S          -34.4415426517      -35.7131204360        2.8919428828  MEMB      95              0.0000000000
     10932        95  OSM       H17T          -34.3335084830      -35.0536838772        1.8494901955  MEMB      95              0.0000000000
     10933        95  OSM       C18S          -36.0731533538      -33.7739321762        2.5889585705  MEMB      95              0.0000000000
     10934        95  OSM       H18S          -37.0528610433      -34.1731729521        2.8855661103  MEMB      95              0.0000000000
     10935        95  OSM       H18T          -36.8847582455      -34.2246082768        1.9827328496  MEMB      95              0.0000000000
     10936        95  OSM       H18U          -35.8328110607      -33.0112320716        1.8079900113  MEMB      95              0.0000000000
     10937        95  OSM       C1F           -34.0943961990      -35.2644986523       15.7982674895  MEMB      95              0.0000000000
     10938        95  OSM       OF            -35.0364196824      -35.9391866163       16.0361886610  MEMB      95              0.0000000000
     10939        95  OSM       C2F           -33.2064182997      -35.5691175211       14.6918505425  MEMB      95              0.0000000000
     10940        95  OSM       H2F           -32.2532811819      -35.9752088338       15.0380017472  MEMB      95              0.0000000000
     10941        95  OSM       H2G           -32.9743859057      -34.8275854035       13.9044982232  MEMB      95              0.0000000000
     10942        95  OSM       C3F           -34.1039198913      -36.3927749555       13.8298870497  MEMB      95              0.0000000000
     10943        95  OSM       H3F           -35.1890875203      -36.2448195941       13.5894444492  MEMB      95              0.0000000000
     10944        95  OSM       H3G           -33.8335943347      -37.2925064587       14.4005790551  MEMB      95              0.0000000000
     10945        95  OSM       C4F           -33.5686054406      -36.4706226989       12.5001098753  MEMB      95              0.0000000000
     10946        95  OSM       H4F           -32.8334906178      -36.9210503811       13.0962888607  MEMB      95              0.0000000000
     10947        95  OSM       H4G           -33.2572877524      -35.5981053915       11.9286977332  MEMB      95              0.0000000000
     10948        95  OSM       C5F           -33.7138616030      -37.5673352844       11.6249606008  MEMB      95              0.0000000000
     10949        95  OSM       H5F           -34.3383641046      -36.8483083391       11.0938840526  MEMB      95              0.0000000000
     10950        95  OSM       H5G           -33.9521614993      -38.6454136130       11.9751480401  MEMB      95              0.0000000000
     10951        95  OSM       C6F           -33.0697525061      -37.7735508467       10.3356190238  MEMB      95              0.0000000000
     10952        95  OSM       H6F           -33.8856394749      -38.4262821524       10.2815069812  MEMB      95              0.0000000000
     10953        95  OSM       H6G           -32.5071670672      -38.6322103344       10.6692307985  MEMB      95              0.0000000000
     10954        95  OSM       C7F           -32.6645573844      -36.8805705664        8.9471351111  MEMB      95              0.0000000000
     10955        95  OSM       H7F           -32.3523159560      -35.8917472972        9.2876317626  MEMB      95              0.0000000000
     10956        95  OSM       H7G           -33.5646431890      -36.6080866967        8.3926568254  MEMB      95              0.0000000000
     10957        95  OSM       C8F           -31.4021805091      -37.3735725752        7.8820443548  MEMB      95              0.0000000000
     10958        95  OSM       H8F           -30.4917884400      -38.0437680131        8.0182594787  MEMB      95              0.0000000000
     10959        95  OSM       H8G           -30.5886132502      -36.6250114022        7.7892610822  MEMB      95              0.0000000000
     10960        95  OSM       C9F           -32.2605508259      -37.9126109072        6.9120718724  MEMB      95              0.0000000000
     10961        95  OSM       H9F           -32.4115071788      -39.0165647995        6.9111024000  MEMB      95              0.0000000000
     10962        95  OSM       C10F          -32.1242192247      -37.4318991792        5.7959014467  MEMB      95              0.0000000000
     10963        95  OSM       H10F          -32.7588824866      -38.0389808995        5.1573711286  MEMB      95              0.0000000000
     10964        95  OSM       C11F          -31.0595836974      -36.4077370742        5.4555371543  MEMB      95              0.0000000000
     10965        95  OSM       H11F          -31.1532722330      -35.5668842775        6.1546393655  MEMB      95              0.0000000000
     10966        95  OSM       H11G          -31.4402118355      -36.2688338188        4.4387162758  MEMB      95              0.0000000000
     10967        95  OSM       C12F          -29.4374755848      -36.6444510356        5.3939751902  MEMB      95              0.0000000000
     10968        95  OSM       H12F          -29.0085883206      -37.3654122079        4.6310299146  MEMB      95              0.0000000000
     10969        95  OSM       H12G          -28.9226240393      -36.9430823416        6.2961030875  MEMB      95              0.0000000000
     10970        95  OSM       C13F          -28.5693743704      -35.5665675973        5.0108176723  MEMB      95              0.0000000000
     10971        95  OSM       H13F          -27.5407250364      -35.9253420926        4.7003063220  MEMB      95              0.0000000000
     10972        95  OSM       H13G          -28.5800267138      -34.7550673920        5.7250217313  MEMB      95              0.0000000000
     10973        95  OSM       C14F          -29.1877601421      -34.9600111634        3.8980644994  MEMB      95              0.0000000000
     10974        95  OSM       H14F          -28.3332105093      -34.6021616919        3.3038736402  MEMB      95              0.0000000000
     10975        95  OSM       H14G          -30.2700843213      -34.7009804576        3.8004331026  MEMB      95              0.0000000000
     10976        95  OSM       C15F          -29.1871707425      -35.6679544107        2.7536169446  MEMB      95              0.0000000000
     10977        95  OSM       H15F          -29.8917387589      -36.4682735132        3.0592151006  MEMB      95              0.0000000000
     10978        95  OSM       H15G          -28.3258017565      -36.4320922813        2.9629956093  MEMB      95              0.0000000000
     10979        95  OSM       C16F          -29.3967153441      -34.8489800823        1.2119285835  MEMB      95              0.0000000000
     10980        95  OSM       H16F          -28.4759876987      -34.5420478113        0.7158139730  MEMB      95              0.0000000000
     10981        95  OSM       H16G          -30.0918135240      -34.1430834111        0.9625177665  MEMB      95              0.0000000000
     10982        95  OSM       C17F          -30.3164498773      -35.3690273227       -0.1168969468  MEMB      95              0.0000000000
     10983        95  OSM       H17F          -30.9706250024      -36.0122897537        0.5975472632  MEMB      95              0.0000000000
     10984        95  OSM       H17G          -30.5794948348      -36.2446952359        0.4880662498  MEMB      95              0.0000000000
     10985        95  OSM       C18F          -29.9878065815      -35.6696186764       -1.8791682712  MEMB      95              0.0000000000
     10986        95  OSM       H18F          -28.9400319884      -35.7909452711       -2.3025187804  MEMB      95              0.0000000000
     10987        95  OSM       H18G          -30.6754885825      -35.1072694003       -2.4325228812  MEMB      95              0.0000000000
     10988        95  OSM       H18H          -30.0086680355      -36.7803473863       -2.3516348648  MEMB      95              0.0000000000
     10989        96  SLPC      N              35.1555798085       36.3430985803       18.0380206237  MEMB      96              0.0000000000
     10990        96  SLPC      C13            34.7537187020       35.2506435888       18.9807255423  MEMB      96              0.0000000000
     10991        96  SLPC      H13A           35.1974849731       34.2812693690       18.7593401730  MEMB      96              0.0000000000
     10992        96  SLPC      H13B           35.0738156215       35.5027357677       19.9920309148  MEMB      96              0.0000000000
     10993        96  SLPC      H13C           33.6857817320       35.1092153873       18.9385521005  MEMB      96              0.0000000000
     10994        96  SLPC      C14            36.6171209687       36.3348780247       17.9985083904  MEMB      96              0.0000000000
     10995        96  SLPC      H14A           37.0503449074       36.1832040606       18.9739358947  MEMB      96              0.0000000000
     10996        96  SLPC      H14B           37.1199400795       35.6262398268       17.3544508964  MEMB      96              0.0000000000
     10997        96  SLPC      H14C           36.9586111391       37.3224685094       17.6686694453  MEMB      96              0.0000000000
     10998        96  SLPC      C15            34.6562623447       37.6208485012       18.6423204416  MEMB      96              0.0000000000
     10999        96  SLPC      H15A           35.0753697933       37.7650756253       19.6435610477  MEMB      96              0.0000000000
     11000        96  SLPC      H15B           34.9930160896       38.4853998790       18.0878483083  MEMB      96              0.0000000000
     11001        96  SLPC      H15C           33.5794641730       37.6414919032       18.7207976271  MEMB      96              0.0000000000
     11002        96  SLPC      C12            34.6039792194       36.3243210671       16.6501531418  MEMB      96              0.0000000000
     11003        96  SLPC      H12A           35.0747910351       37.0966533067       16.0594393936  MEMB      96              0.0000000000
     11004        96  SLPC      H12B           33.5290531122       36.4155544962       16.6890612861  MEMB      96              0.0000000000
     11005        96  SLPC      C11            34.7640400930       35.1019051099       15.8312764465  MEMB      96              0.0000000000
     11006        96  SLPC      H11A           35.7253745998       34.8149737564       16.0065763140  MEMB      96              0.0000000000
     11007        96  SLPC      H11B           34.4980914168       35.2631622486       14.7529317972  MEMB      96              0.0000000000
     11008        96  SLPC      P              32.7783185092       33.8857334685       16.2620577641  MEMB      96              0.0000000000
     11009        96  SLPC      O13            32.4546942007       33.0938861262       17.4109111624  MEMB      96              0.0000000000
     11010        96  SLPC      O14            32.1086106851       35.1849117313       16.0437705522  MEMB      96              0.0000000000
     11011        96  SLPC      O12            34.2499632177       34.0067265863       16.4494083469  MEMB      96              0.0000000000
     11012        96  SLPC      O11            33.0486802780       33.2135975135       14.9354562790  MEMB      96              0.0000000000
     11013        96  SLPC      C1             32.1609646739       32.6533715486       14.1162444279  MEMB      96              0.0000000000
     11014        96  SLPC      HA             32.1539830322       31.5195367977       14.1264706885  MEMB      96              0.0000000000
     11015        96  SLPC      HB             31.3151086312       32.3869312573       14.3613509724  MEMB      96              0.0000000000
     11016        96  SLPC      C2             31.3976282237       33.5032960143       13.0025223012  MEMB      96              0.0000000000
     11017        96  SLPC      HS             30.8019100890       32.7402003594       12.4668261323  MEMB      96              0.0000000000
     11018        96  SLPC      O21            32.3724460871       33.9959770846       12.1734103080  MEMB      96              0.0000000000
     11019        96  SLPC      C21            32.9636574960       32.8904803860       11.8317527945  MEMB      96              0.0000000000
     11020        96  SLPC      O22            32.4342762943       31.8150940651       11.9844304991  MEMB      96              0.0000000000
     11021        96  SLPC      C22            33.9117812312       33.4326865484       10.7822294101  MEMB      96              0.0000000000
     11022        96  SLPC      H2R            33.3886633529       33.9492894903       10.0035351069  MEMB      96              0.0000000000
     11023        96  SLPC      H2S            34.3211661032       34.1838583864       11.4652315182  MEMB      96              0.0000000000
     11024        96  SLPC      C3             30.3734042754       34.7131093778       13.2284628778  MEMB      96              0.0000000000
     11025        96  SLPC      HX             30.8126563284       35.4394193376       13.9114767150  MEMB      96              0.0000000000
     11026        96  SLPC      HY             29.3500363153       34.6274732433       13.6753876016  MEMB      96              0.0000000000
     11027        96  SLPC      O31            29.7828387970       35.0249327636       11.9727097666  MEMB      96              0.0000000000
     11028        96  SLPC      C31            29.3620659253       36.2008883013       11.9925790204  MEMB      96              0.0000000000
     11029        96  SLPC      O32            29.2672873715       36.9254826123       12.9748702418  MEMB      96              0.0000000000
     11030        96  SLPC      C32            28.9014851985       36.4629927591       10.6047108287  MEMB      96              0.0000000000
     11031        96  SLPC      H2X            28.6919333837       37.4664309130       10.9864239836  MEMB      96              0.0000000000
     11032        96  SLPC      H2Y            28.0350011207       35.8457533095       10.3292294964  MEMB      96              0.0000000000
     11033        96  SLPC      C23            34.8583971353       32.4498333309       10.0668856855  MEMB      96              0.0000000000
     11034        96  SLPC      H3R            34.5189194016       31.8442045547        9.2207481846  MEMB      96              0.0000000000
     11035        96  SLPC      H3S            35.2427249911       31.8287363846       10.9081855300  MEMB      96              0.0000000000
     11036        96  SLPC      C24            35.8421975771       32.6514987691        9.0213104002  MEMB      96              0.0000000000
     11037        96  SLPC      H4R            36.7172683770       32.0923301179        8.7208283713  MEMB      96              0.0000000000
     11038        96  SLPC      H4S            36.5616665380       32.7729306468        9.8153322368  MEMB      96              0.0000000000
     11039        96  SLPC      C25            35.2562648734       33.5484175603        7.9898972286  MEMB      96              0.0000000000
     11040        96  SLPC      H5R            35.9051742257       34.2897661410        7.5809158645  MEMB      96              0.0000000000
     11041        96  SLPC      H5S            34.5829101402       34.2765117364        8.4334935463  MEMB      96              0.0000000000
     11042        96  SLPC      C26            35.4681614070       33.2190257568        6.6000582141  MEMB      96              0.0000000000
     11043        96  SLPC      H6R            36.3532834145       32.5463507876        6.4961221062  MEMB      96              0.0000000000
     11044        96  SLPC      H6S            35.3882009851       34.1071672411        5.9045615481  MEMB      96              0.0000000000
     11045        96  SLPC      C27            34.2621713486       32.6080415393        6.4698788367  MEMB      96              0.0000000000
     11046        96  SLPC      H7R            33.4563128847       33.3059803363        6.8478727695  MEMB      96              0.0000000000
     11047        96  SLPC      H7S            34.3798915174       31.6825189672        7.0604030082  MEMB      96              0.0000000000
     11048        96  SLPC      C28            33.9376114700       32.4799059716        5.0890487453  MEMB      96              0.0000000000
     11049        96  SLPC      H8R            33.8347205815       33.4241049231        4.5687769810  MEMB      96              0.0000000000
     11050        96  SLPC      H8S            33.0318044343       32.1308108776        5.4458537549  MEMB      96              0.0000000000
     11051        96  SLPC      C29            34.5719870214       31.4165966001        4.3727424986  MEMB      96              0.0000000000
     11052        96  SLPC      H9R            34.3050055382       30.4066436587        4.7596277323  MEMB      96              0.0000000000
     11053        96  SLPC      C210           35.3989291305       31.5947839963        3.3635811716  MEMB      96              0.0000000000
     11054        96  SLPC      H10R           36.2862090293       31.0269656505        3.2841422341  MEMB      96              0.0000000000
     11055        96  SLPC      C211           35.9078069586       32.7258733435        2.6828124730  MEMB      96              0.0000000000
     11056        96  SLPC      H11R           35.0357991398       33.3693135819        2.6535829181  MEMB      96              0.0000000000
     11057        96  SLPC      H11S           36.0899196709       32.3413476807        1.6947567711  MEMB      96              0.0000000000
     11058        96  SLPC      C212           37.2065478530       33.2889304855        3.1572266854  MEMB      96              0.0000000000
     11059        96  SLPC      H12R           38.0772189654       32.6244359939        3.3188064081  MEMB      96              0.0000000000
     11060        96  SLPC      C213           37.2372866994       34.5444811066        3.5443254629  MEMB      96              0.0000000000
     11061        96  SLPC      H13R           38.2099970547       35.0468500655        3.6783122987  MEMB      96              0.0000000000
     11062        96  SLPC      C214           35.9797036025       35.3846921575        3.5178866104  MEMB      96              0.0000000000
     11063        96  SLPC      H14R           36.1045871895       35.9914805297        4.4205829477  MEMB      96              0.0000000000
     11064        96  SLPC      H14S           35.0451210250       34.8626446357        3.7998063320  MEMB      96              0.0000000000
     11065        96  SLPC      C215           35.6424195876       36.1960561363        2.1770959947  MEMB      96              0.0000000000
     11066        96  SLPC      H15R           34.9356732819       37.0185078298        2.4666493290  MEMB      96              0.0000000000
     11067        96  SLPC      H15S           35.3585408786       35.6361839243        1.2924876037  MEMB      96              0.0000000000
     11068        96  SLPC      C216           36.8703164568       36.7363728501        1.4075588937  MEMB      96              0.0000000000
     11069        96  SLPC      H16R           37.7956412966       36.1484300933        1.3933801366  MEMB      96              0.0000000000
     11070        96  SLPC      H16S           36.8675545335       36.9333590196        2.5310526275  MEMB      96              0.0000000000
     11071        96  SLPC      C217           37.0720964863       37.9956515756        0.2709185752  MEMB      96              0.0000000000
     11072        96  SLPC      H17R           37.9715362835       38.7088273125        0.3350858285  MEMB      96              0.0000000000
     11073        96  SLPC      H17S           36.3438636575       38.8468642897        0.1707439578  MEMB      96              0.0000000000
     11074        96  SLPC      C218           37.3034047131       37.5086735662       -1.0374950404  MEMB      96              0.0000000000
     11075        96  SLPC      H18R           38.1303578490       36.8460588934       -0.6957393204  MEMB      96              0.0000000000
     11076        96  SLPC      H18S           37.6276814984       38.3661413976       -1.6731987932  MEMB      96              0.0000000000
     11077        96  SLPC      H18T           36.2447527619       37.1747234633       -1.1192501227  MEMB      96              0.0000000000
     11078        96  SLPC      C33            29.8582212057       36.5955491984        9.4045011708  MEMB      96              0.0000000000
     11079        96  SLPC      H3X            30.5832887158       37.1708665751        9.8125851839  MEMB      96              0.0000000000
     11080        96  SLPC      H3Y            29.6099726308       37.3447299573        8.6333312983  MEMB      96              0.0000000000
     11081        96  SLPC      C34            30.9106999169       35.5119893718        9.2128140582  MEMB      96              0.0000000000
     11082        96  SLPC      H4X            30.3068762085       34.7637980552        8.8125705922  MEMB      96              0.0000000000
     11083        96  SLPC      H4Y            31.3024483961       35.2082186324       10.2129121895  MEMB      96              0.0000000000
     11084        96  SLPC      C35            32.0337197214       35.6886772742        8.1822539521  MEMB      96              0.0000000000
     11085        96  SLPC      H5X            32.8168165296       34.9486719818        8.2558216765  MEMB      96              0.0000000000
     11086        96  SLPC      H5Y            32.8055266705       36.3181195694        8.4819084004  MEMB      96              0.0000000000
     11087        96  SLPC      C36            31.5967580250       36.1868749329        6.8142085461  MEMB      96              0.0000000000
     11088        96  SLPC      H6X            32.4619044977       36.4482864738        6.1586907259  MEMB      96              0.0000000000
     11089        96  SLPC      H6Y            30.9365714484       37.0865478619        6.8345935248  MEMB      96              0.0000000000
     11090        96  SLPC      C37            30.8473967367       35.0685717709        6.2015867109  MEMB      96              0.0000000000
     11091        96  SLPC      H7X            29.7969242590       35.0732954224        6.5710602399  MEMB      96              0.0000000000
     11092        96  SLPC      H7Y            31.3353528262       34.1249406465        6.5485450852  MEMB      96              0.0000000000
     11093        96  SLPC      C38            30.9120869569       35.2518813425        4.7171088716  MEMB      96              0.0000000000
     11094        96  SLPC      H8X            31.9732881110       35.1620182596        4.3678102801  MEMB      96              0.0000000000
     11095        96  SLPC      H8Y            30.4746579146       36.2111650506        4.3888464778  MEMB      96              0.0000000000
     11096        96  SLPC      C39            30.0228219608       34.2542975085        4.1029221443  MEMB      96              0.0000000000
     11097        96  SLPC      H9X            28.9584709108       34.2839333362        4.3878211899  MEMB      96              0.0000000000
     11098        96  SLPC      H9Y            30.4006228669       33.3498859862        4.6277083784  MEMB      96              0.0000000000
     11099        96  SLPC      C310           30.1363930482       34.3004347853        2.5789451047  MEMB      96              0.0000000000
     11100        96  SLPC      H10X           29.4520845395       33.4897342925        2.2629920303  MEMB      96              0.0000000000
     11101        96  SLPC      H10Y           31.1987953745       34.2035022824        2.2549482950  MEMB      96              0.0000000000
     11102        96  SLPC      C311           29.5448005074       35.3920008641        1.7589662791  MEMB      96              0.0000000000
     11103        96  SLPC      H11X           30.1673715244       36.2608238454        2.0326988272  MEMB      96              0.0000000000
     11104        96  SLPC      H11Y           28.4860883045       35.4417584221        2.0787365528  MEMB      96              0.0000000000
     11105        96  SLPC      C312           29.6008474777       35.1499214522        0.2423076995  MEMB      96              0.0000000000
     11106        96  SLPC      H12X           29.3719546292       36.0687997102       -0.3058294731  MEMB      96              0.0000000000
     11107        96  SLPC      H12Y           28.8897215390       34.3349605310       -0.0609270985  MEMB      96              0.0000000000
     11108        96  SLPC      C313           30.9689380682       34.7888782955       -0.2596060246  MEMB      96              0.0000000000
     11109        96  SLPC      H13X           30.7766140309       33.7392698408       -0.1288031246  MEMB      96              0.0000000000
     11110        96  SLPC      H13Y           31.7926952063       35.0710443850        0.4239456296  MEMB      96              0.0000000000
     11111        96  SLPC      C314           31.3181420785       35.1238057230       -1.7181742636  MEMB      96              0.0000000000
     11112        96  SLPC      H14X           31.4227926431       36.2119566409       -1.7297311028  MEMB      96              0.0000000000
     11113        96  SLPC      H14Y           30.4989042310       34.7148586812       -2.3430335847  MEMB      96              0.0000000000
     11114        96  SLPC      C315           32.6539304380       34.7475462909       -2.3328803305  MEMB      96              0.0000000000
     11115        96  SLPC      H15X           33.4810193103       35.0463324366       -1.6215412730  MEMB      96              0.0000000000
     11116        96  SLPC      H15Y           32.9433272449       35.0460453637       -3.3460021501  MEMB      96              0.0000000000
     11117        96  SLPC      C316           32.5565546291       33.3741458318       -2.7005672438  MEMB      96              0.0000000000
     11118        96  SLPC      H16X           32.9878756104       32.9698558064       -3.6283413069  MEMB      96              0.0000000000
     11119        96  SLPC      H16Y           31.5188629107       33.0245100304       -2.8356048900  MEMB      96              0.0000000000
     11120        96  SLPC      C317           33.4100652738       33.0195268058       -1.5504297787  MEMB      96              0.0000000000
     11121        96  SLPC      H17X           34.4194463838       33.4237390675       -1.7310638762  MEMB      96              0.0000000000
     11122        96  SLPC      H17Y           33.5874750820       32.0131944240       -2.0525508365  MEMB      96              0.0000000000
     11123        96  SLPC      C318           33.0757134032       33.1452427037        0.1149278843  MEMB      96              0.0000000000
     11124        96  SLPC      H18X           33.4514559281       33.9785740031        0.6515705408  MEMB      96              0.0000000000
     11125        96  SLPC      H18Y           33.4592514861       32.4143863226        0.8718120249  MEMB      96              0.0000000000
     11126        96  SLPC      H18Z           32.1401508079       32.7692839236        0.5087823290  MEMB      96              0.0000000000
     11127        97  SAPS      N              -2.7498396433        0.3822936741      -22.3037462237  MEMB      97              0.0000000000
     11128        97  SAPS      HN1            -2.7165963007       -0.6449463347      -22.1714027120  MEMB      97              0.0000000000
     11129        97  SAPS      HN2            -3.2127483118        0.6050169240      -23.1985222270  MEMB      97              0.0000000000
     11130        97  SAPS      HN3            -1.8007297531        0.7967870967      -22.2843867803  MEMB      97              0.0000000000
     11131        97  SAPS      C12            -3.4858622531        0.9438421106      -21.1258917214  MEMB      97              0.0000000000
     11132        97  SAPS      H12A           -3.7005647003        1.9878593325      -21.3066230058  MEMB      97              0.0000000000
     11133        97  SAPS      C13            -4.8316724332        0.3130721675      -20.7857843559  MEMB      97              0.0000000000
     11134        97  SAPS      O13A           -5.2962968741       -0.4740342211      -21.6488237320  MEMB      97              0.0000000000
     11135        97  SAPS      O13B           -5.4642351535        0.7928036607      -19.8142404639  MEMB      97              0.0000000000
     11136        97  SAPS      C11            -2.5617108660        0.8071126071      -19.9145738485  MEMB      97              0.0000000000
     11137        97  SAPS      H11A           -2.1828924732       -0.2351830861      -19.7739904344  MEMB      97              0.0000000000
     11138        97  SAPS      H11B           -3.1548358706        1.0607764673      -19.0044944924  MEMB      97              0.0000000000
     11139        97  SAPS      P              -0.4548578258        1.8594066274      -18.9179007923  MEMB      97              0.0000000000
     11140        97  SAPS      O13             0.0004479450        0.5098176895      -18.5533401177  MEMB      97              0.0000000000
     11141        97  SAPS      O14             0.5429572150        2.8718149691      -19.3183775060  MEMB      97              0.0000000000
     11142        97  SAPS      O12            -1.4903528700        1.7282927722      -20.1071165036  MEMB      97              0.0000000000
     11143        97  SAPS      O11            -1.3539859930        2.3639671315      -17.7369804733  MEMB      97              0.0000000000
     11144        97  SAPS      C1             -2.1093583019        3.5387226722      -17.9106153364  MEMB      97              0.0000000000
     11145        97  SAPS      HA             -1.3730938748        4.3724546472      -17.8825238606  MEMB      97              0.0000000000
     11146        97  SAPS      HB             -2.6214089235        3.5956455514      -18.9083816151  MEMB      97              0.0000000000
     11147        97  SAPS      C2             -3.1862580404        3.7210531389      -16.7860932095  MEMB      97              0.0000000000
     11148        97  SAPS      HS             -3.6989732398        4.6359905425      -16.6644693725  MEMB      97              0.0000000000
     11149        97  SAPS      O21            -2.7804306796        3.2682639598      -15.4826881316  MEMB      97              0.0000000000
     11150        97  SAPS      C21            -1.9534513140        4.1220146863      -14.8805275178  MEMB      97              0.0000000000
     11151        97  SAPS      O22            -1.5977621148        5.2018658622      -15.2674778078  MEMB      97              0.0000000000
     11152        97  SAPS      C22            -1.4335401664        3.5879977057      -13.5956296322  MEMB      97              0.0000000000
     11153        97  SAPS      H2R            -2.2038769348        2.9005480756      -13.2162903887  MEMB      97              0.0000000000
     11154        97  SAPS      H2S            -0.5071641134        3.0543865495      -13.8781473635  MEMB      97              0.0000000000
     11155        97  SAPS      C3             -4.4953277591        3.1066647149      -17.1560667425  MEMB      97              0.0000000000
     11156        97  SAPS      HX             -4.8405895355        3.3496262632      -18.1800421891  MEMB      97              0.0000000000
     11157        97  SAPS      HY             -5.2201131775        3.4913847356      -16.3857029545  MEMB      97              0.0000000000
     11158        97  SAPS      O31            -4.3253467211        1.8149667463      -17.1557978681  MEMB      97              0.0000000000
     11159        97  SAPS      C31            -4.7764668494        1.2829044145      -16.1802464084  MEMB      97              0.0000000000
     11160        97  SAPS      O32            -5.4820148267        1.6037993333      -15.2366547354  MEMB      97              0.0000000000
     11161        97  SAPS      C32            -4.1509861596        0.1175246105      -16.4871237909  MEMB      97              0.0000000000
     11162        97  SAPS      H2X            -4.7295050247       -0.3134989273      -17.3633127612  MEMB      97              0.0000000000
     11163        97  SAPS      H2Y            -4.3408518578       -0.2447860239      -15.4920863381  MEMB      97              0.0000000000
     11164        97  SAPS      C23            -1.0788043006        4.6536097447      -12.5299476912  MEMB      97              0.0000000000
     11165        97  SAPS      H3R            -1.2844497303        4.2040390886      -11.5282915904  MEMB      97              0.0000000000
     11166        97  SAPS      H3S            -1.7129780050        5.5494081796      -12.5690835256  MEMB      97              0.0000000000
     11167        97  SAPS      C24             0.3819343256        5.1172577988      -12.5677282035  MEMB      97              0.0000000000
     11168        97  SAPS      H4R             0.4313214147        5.9108128595      -11.8068400721  MEMB      97              0.0000000000
     11169        97  SAPS      H4S             0.7324798589        5.5784012847      -13.5065343709  MEMB      97              0.0000000000
     11170        97  SAPS      C25             1.2827027786        4.0037320301      -12.1854094800  MEMB      97              0.0000000000
     11171        97  SAPS      H5R             1.6143328562        3.3565216825      -12.9976779090  MEMB      97              0.0000000000
     11172        97  SAPS      C26             1.6631977796        3.8770842912      -10.9176468625  MEMB      97              0.0000000000
     11173        97  SAPS      H6R             2.3341964639        3.1707255247      -10.4819070701  MEMB      97              0.0000000000
     11174        97  SAPS      C27             1.2965073939        4.7283519374       -9.8222348508  MEMB      97              0.0000000000
     11175        97  SAPS      H7R             0.2809160095        5.1257053254       -9.9378268309  MEMB      97              0.0000000000
     11176        97  SAPS      H7S             2.1376092249        5.4217486111       -9.8274161044  MEMB      97              0.0000000000
     11177        97  SAPS      C28             1.3190122780        4.0665301130       -8.5312962562  MEMB      97              0.0000000000
     11178        97  SAPS      H8R             2.1670626430        3.4099835591       -8.3924664647  MEMB      97              0.0000000000
     11179        97  SAPS      C29             1.0912488771        4.7346068702       -7.4370998433  MEMB      97              0.0000000000
     11180        97  SAPS      H9R             1.3309729921        4.1849907281       -6.5588850372  MEMB      97              0.0000000000
     11181        97  SAPS      C210            0.8038107739        6.1629509647       -7.2630705092  MEMB      97              0.0000000000
     11182        97  SAPS      H10R            0.2784440927        6.3039561423       -8.1969180719  MEMB      97              0.0000000000
     11183        97  SAPS      H10S            1.5684200437        6.9047992689       -7.4825778717  MEMB      97              0.0000000000
     11184        97  SAPS      C211            0.2067453708        6.7360245986       -6.0220530036  MEMB      97              0.0000000000
     11185        97  SAPS      H11R           -0.8550863677        6.7468816900       -6.1159505544  MEMB      97              0.0000000000
     11186        97  SAPS      C212            0.5879291366        7.0679105337       -4.7910933586  MEMB      97              0.0000000000
     11187        97  SAPS      H12R           -0.0522830903        7.2998758987       -4.0158110228  MEMB      97              0.0000000000
     11188        97  SAPS      C213            1.7406299657        7.0370379603       -4.0129836686  MEMB      97              0.0000000000
     11189        97  SAPS      H13R            1.9598105232        8.0495359037       -3.5504178895  MEMB      97              0.0000000000
     11190        97  SAPS      H13S            2.5851722027        7.4048490082       -4.7201513703  MEMB      97              0.0000000000
     11191        97  SAPS      C214            1.8770821528        5.4846992028       -3.3561726730  MEMB      97              0.0000000000
     11192        97  SAPS      H14R            2.5641408375        4.7115029668       -3.6448334824  MEMB      97              0.0000000000
     11193        97  SAPS      C215            1.8381379632        4.7578711816       -2.2820418902  MEMB      97              0.0000000000
     11194        97  SAPS      H15R            2.7085562016        4.0703157316       -2.0607319681  MEMB      97              0.0000000000
     11195        97  SAPS      C216            1.4274770086        5.7057929539       -1.2221046611  MEMB      97              0.0000000000
     11196        97  SAPS      H16R            1.0614933481        6.7152715960       -1.6126087880  MEMB      97              0.0000000000
     11197        97  SAPS      H16S            2.0421094897        5.8537620177       -0.3556280182  MEMB      97              0.0000000000
     11198        97  SAPS      C217            0.3186914846        4.8268775577       -1.0289193972  MEMB      97              0.0000000000
     11199        97  SAPS      H17R            0.4093158058        3.7204205382       -0.8711381584  MEMB      97              0.0000000000
     11200        97  SAPS      H17S           -0.1435582687        5.2211536104       -1.9702579268  MEMB      97              0.0000000000
     11201        97  SAPS      C218           -0.6556928304        5.2901100670       -0.0846090977  MEMB      97              0.0000000000
     11202        97  SAPS      H18R           -0.2391596843        5.2868053946        0.9209700014  MEMB      97              0.0000000000
     11203        97  SAPS      H18S           -1.5645182842        4.6884369573       -0.1623058016  MEMB      97              0.0000000000
     11204        97  SAPS      C219           -1.0493208632        6.6399041134       -0.4680684787  MEMB      97              0.0000000000
     11205        97  SAPS      H19R           -0.5113147242        7.4486833681        0.0020142167  MEMB      97              0.0000000000
     11206        97  SAPS      H19S           -1.7392312933        6.6495115004        0.3641607322  MEMB      97              0.0000000000
     11207        97  SAPS      C220           -1.5449758917        6.9018655354       -1.9470746392  MEMB      97              0.0000000000
     11208        97  SAPS      H20R           -2.0019380651        7.8593875097       -2.0308972808  MEMB      97              0.0000000000
     11209        97  SAPS      H20S           -2.4389465103        6.3725028280       -2.2577623927  MEMB      97              0.0000000000
     11210        97  SAPS      H20T           -0.9463780930        6.7157159127       -2.7690574852  MEMB      97              0.0000000000
     11211        97  SAPS      C33            -2.7422992998       -0.3601686365      -16.2150800867  MEMB      97              0.0000000000
     11212        97  SAPS      H3X            -2.1193115474        0.2989285601      -16.8147876142  MEMB      97              0.0000000000
     11213        97  SAPS      H3Y            -2.6710474554       -1.3917112486      -16.6407448848  MEMB      97              0.0000000000
     11214        97  SAPS      C34            -2.3746757421       -0.5290653133      -14.7178536062  MEMB      97              0.0000000000
     11215        97  SAPS      H4X            -3.0490597020       -1.1643099370      -14.0962215530  MEMB      97              0.0000000000
     11216        97  SAPS      H4Y            -2.3107785641        0.4725501734      -14.2428642793  MEMB      97              0.0000000000
     11217        97  SAPS      C35            -1.0394569316       -1.2176551049      -14.6522864374  MEMB      97              0.0000000000
     11218        97  SAPS      H5X            -0.4776834417       -0.5658927150      -15.3566036152  MEMB      97              0.0000000000
     11219        97  SAPS      H5Y            -1.0426830285       -2.2350634774      -15.1071886769  MEMB      97              0.0000000000
     11220        97  SAPS      C36            -0.5125125566       -1.3753646167      -13.2133997760  MEMB      97              0.0000000000
     11221        97  SAPS      H6X             0.3205008355       -2.1258682648      -13.2345407460  MEMB      97              0.0000000000
     11222        97  SAPS      H6Y            -1.2982260827       -1.7719617687      -12.5523907414  MEMB      97              0.0000000000
     11223        97  SAPS      C37            -0.0886376469       -0.0651698105      -12.5559943566  MEMB      97              0.0000000000
     11224        97  SAPS      H7X            -0.7282789392        0.8168437139      -12.6355987622  MEMB      97              0.0000000000
     11225        97  SAPS      H7Y             0.5569349300        0.3383681673      -13.2730399390  MEMB      97              0.0000000000
     11226        97  SAPS      C38             0.6047102070       -0.1874020788      -11.2015532764  MEMB      97              0.0000000000
     11227        97  SAPS      H8X             1.1981907168        0.7384690886      -11.0284718011  MEMB      97              0.0000000000
     11228        97  SAPS      H8Y             1.3223768460       -1.0393822219      -11.1645631043  MEMB      97              0.0000000000
     11229        97  SAPS      C39            -0.4015602794       -0.1463795018      -10.0751703866  MEMB      97              0.0000000000
     11230        97  SAPS      H9X             0.1805835093       -0.2940065382       -9.1398711369  MEMB      97              0.0000000000
     11231        97  SAPS      H9Y            -1.1422531565       -0.9665467969      -10.1688897103  MEMB      97              0.0000000000
     11232        97  SAPS      C310           -1.0507559589        1.2485771473      -10.0073804356  MEMB      97              0.0000000000
     11233        97  SAPS      H10X           -1.8411860235        1.3914261024      -10.7740251451  MEMB      97              0.0000000000
     11234        97  SAPS      H10Y           -0.2502678233        1.9809534795      -10.2665750097  MEMB      97              0.0000000000
     11235        97  SAPS      C311           -1.5363626928        1.5746353128       -8.5919755042  MEMB      97              0.0000000000
     11236        97  SAPS      H11X           -1.7588323651        2.6589312575       -8.4889056605  MEMB      97              0.0000000000
     11237        97  SAPS      H11Y           -0.6979567443        1.3550436141       -7.8901717569  MEMB      97              0.0000000000
     11238        97  SAPS      C312           -2.7781325075        0.7848341449       -8.1593392042  MEMB      97              0.0000000000
     11239        97  SAPS      H12X           -2.7379554349       -0.2684429561       -8.5081183403  MEMB      97              0.0000000000
     11240        97  SAPS      H12Y           -3.6930201543        1.2809216926       -8.5442284857  MEMB      97              0.0000000000
     11241        97  SAPS      C313           -2.8878261620        0.7193526309       -6.6607077164  MEMB      97              0.0000000000
     11242        97  SAPS      H13X           -1.8772037377        0.4274585510       -6.3053975474  MEMB      97              0.0000000000
     11243        97  SAPS      H13Y           -3.5511407215       -0.0925210676       -6.2857101297  MEMB      97              0.0000000000
     11244        97  SAPS      C314           -3.5038558224        1.9879070648       -6.0936278794  MEMB      97              0.0000000000
     11245        97  SAPS      H14X           -4.5128207114        2.2129231646       -6.4974102873  MEMB      97              0.0000000000
     11246        97  SAPS      H14Y           -2.8732909881        2.9039611296       -6.2539106757  MEMB      97              0.0000000000
     11247        97  SAPS      C315           -3.6952873055        1.6670613674       -4.6333670035  MEMB      97              0.0000000000
     11248        97  SAPS      H15X           -4.1576451943        0.7205406414       -4.3414634256  MEMB      97              0.0000000000
     11249        97  SAPS      H15Y           -4.4163050475        2.4629052205       -4.2989324372  MEMB      97              0.0000000000
     11250        97  SAPS      C316           -2.2691328461        1.3977290189       -4.0818717429  MEMB      97              0.0000000000
     11251        97  SAPS      H16X           -1.9135916420        2.3829471479       -4.5295546513  MEMB      97              0.0000000000
     11252        97  SAPS      H16Y           -1.4393359094        1.0043119674       -4.6265756275  MEMB      97              0.0000000000
     11253        97  SAPS      C317           -2.0657145172        0.9066016230       -2.5240350123  MEMB      97              0.0000000000
     11254        97  SAPS      H17X           -1.5558902254        1.6396361187       -1.8573447648  MEMB      97              0.0000000000
     11255        97  SAPS      H17Y           -1.1953874279        1.1518310530       -1.8606803814  MEMB      97              0.0000000000
     11256        97  SAPS      C318           -3.3390498229        0.3867356123       -1.8149927618  MEMB      97              0.0000000000
     11257        97  SAPS      H18X           -4.3308772160        0.8781666439       -2.0500098977  MEMB      97              0.0000000000
     11258        97  SAPS      H18Y           -3.4078922751        0.2733668493       -0.7117664132  MEMB      97              0.0000000000
     11259        97  SAPS      H18Z           -3.0528990771       -0.6048761177       -2.1103690221  MEMB      97              0.0000000000
     11260        98  SOPE      N               3.6563123960       -1.0470573236      -23.3025502350  MEMB      98              0.0000000000
     11261        98  SOPE      HN1             3.1096970140       -0.5197093437      -24.0159942385  MEMB      98              0.0000000000
     11262        98  SOPE      HN2             4.3162093087       -0.4439353927      -22.7754434474  MEMB      98              0.0000000000
     11263        98  SOPE      HN3             4.1950734159       -1.8244276323      -23.7357136242  MEMB      98              0.0000000000
     11264        98  SOPE      C12             2.7208423724       -1.6259743120      -22.2868049571  MEMB      98              0.0000000000
     11265        98  SOPE      H12A            2.2843405880       -2.5380376663      -22.7439686271  MEMB      98              0.0000000000
     11266        98  SOPE      H12B            1.9567438075       -0.8487777837      -22.0799255394  MEMB      98              0.0000000000
     11267        98  SOPE      C11             3.3845740801       -2.0655137710      -20.9801278619  MEMB      98              0.0000000000
     11268        98  SOPE      H11A            2.5799022144       -2.2101152948      -20.2228246117  MEMB      98              0.0000000000
     11269        98  SOPE      H11B            4.0822406847       -1.2813097380      -20.5914821813  MEMB      98              0.0000000000
     11270        98  SOPE      P               5.2454683356       -3.7717024065      -20.3074176970  MEMB      98              0.0000000000
     11271        98  SOPE      O13             6.4594106754       -3.3413720363      -21.0199213306  MEMB      98              0.0000000000
     11272        98  SOPE      O14             5.1018846672       -5.1788656494      -19.9064391791  MEMB      98              0.0000000000
     11273        98  SOPE      O12             3.9982599936       -3.3267688842      -21.1969346735  MEMB      98              0.0000000000
     11274        98  SOPE      O11             5.0849021795       -2.8447695466      -19.0129743779  MEMB      98              0.0000000000
     11275        98  SOPE      C1              5.0886924704       -3.5111833500      -17.7438598850  MEMB      98              0.0000000000
     11276        98  SOPE      HA              5.9607849266       -4.2084032980      -17.6797214785  MEMB      98              0.0000000000
     11277        98  SOPE      HB              4.1548563026       -4.1100701209      -17.6709999603  MEMB      98              0.0000000000
     11278        98  SOPE      C2              5.2675783952       -2.5646485273      -16.5037442193  MEMB      98              0.0000000000
     11279        98  SOPE      HS              5.0532206857       -3.1276860046      -15.5634895390  MEMB      98              0.0000000000
     11280        98  SOPE      O21             4.4681486305       -1.3733558761      -16.5509144854  MEMB      98              0.0000000000
     11281        98  SOPE      C21             3.1856535021       -1.5268118774      -16.3777246006  MEMB      98              0.0000000000
     11282        98  SOPE      O22             2.6117132413       -2.5846523972      -16.1543216961  MEMB      98              0.0000000000
     11283        98  SOPE      C22             2.5393578350       -0.1366566572      -16.3436866470  MEMB      98              0.0000000000
     11284        98  SOPE      H2R             1.7309999010       -0.1019844239      -17.1025152534  MEMB      98              0.0000000000
     11285        98  SOPE      H2S             3.2655308303        0.6703312403      -16.5245439989  MEMB      98              0.0000000000
     11286        98  SOPE      C3              6.7446430708       -2.0997438443      -16.4171934824  MEMB      98              0.0000000000
     11287        98  SOPE      HX              6.8583119457       -1.3874384122      -17.2674133598  MEMB      98              0.0000000000
     11288        98  SOPE      HY              7.4685841114       -2.9245765349      -16.5769259055  MEMB      98              0.0000000000
     11289        98  SOPE      O31             7.0216196212       -1.4266558100      -15.1846665871  MEMB      98              0.0000000000
     11290        98  SOPE      C31             7.1093864650       -2.1893109172      -14.0852649378  MEMB      98              0.0000000000
     11291        98  SOPE      O32             7.0844559664       -3.3990412088      -14.0401463867  MEMB      98              0.0000000000
     11292        98  SOPE      C32             7.3910774590       -1.3858083268      -12.8628695391  MEMB      98              0.0000000000
     11293        98  SOPE      H2X             6.5948755027       -0.9213431044      -12.2739901656  MEMB      98              0.0000000000
     11294        98  SOPE      H2Y             7.6821411327       -0.4684989210      -13.4185448582  MEMB      98              0.0000000000
     11295        98  SOPE      C23             1.9053094708        0.1240518638      -15.0010417274  MEMB      98              0.0000000000
     11296        98  SOPE      H3R             1.3040943210       -0.7882044021      -14.8426768306  MEMB      98              0.0000000000
     11297        98  SOPE      H3S             1.1789262209        0.9814070524      -15.0421755895  MEMB      98              0.0000000000
     11298        98  SOPE      C24             2.8370014323        0.1685234954      -13.7718848806  MEMB      98              0.0000000000
     11299        98  SOPE      H4R             2.3012181412        0.2975957973      -12.8316086544  MEMB      98              0.0000000000
     11300        98  SOPE      H4S             3.2615458156       -0.8292304135      -13.5806601617  MEMB      98              0.0000000000
     11301        98  SOPE      C25             3.6526841057        1.4384340208      -13.6411622075  MEMB      98              0.0000000000
     11302        98  SOPE      H5R             4.2906430716        1.5504665910      -14.5308207170  MEMB      98              0.0000000000
     11303        98  SOPE      H5S             2.9199354763        2.2692643034      -13.6994713220  MEMB      98              0.0000000000
     11304        98  SOPE      C26             4.4586918844        1.5211964098      -12.3188980532  MEMB      98              0.0000000000
     11305        98  SOPE      H6R             5.2150743979        0.7274128910      -12.2957700335  MEMB      98              0.0000000000
     11306        98  SOPE      H6S             4.9081036657        2.5401766545      -12.2613573653  MEMB      98              0.0000000000
     11307        98  SOPE      C27             3.6444993453        1.2880661329      -11.0518601365  MEMB      98              0.0000000000
     11308        98  SOPE      H7R             2.8479875591        1.8981583590      -11.4241288156  MEMB      98              0.0000000000
     11309        98  SOPE      H7S             3.1372854627        0.3213628837      -10.9869422611  MEMB      98              0.0000000000
     11310        98  SOPE      C28             4.3096046220        1.5575639763       -9.6841588597  MEMB      98              0.0000000000
     11311        98  SOPE      H8R             5.0690599957        0.7542718099       -9.6001625691  MEMB      98              0.0000000000
     11312        98  SOPE      H8S             4.8601441268        2.5281221386       -9.7168622733  MEMB      98              0.0000000000
     11313        98  SOPE      C29             3.3775866073        1.4723617228       -8.4845085048  MEMB      98              0.0000000000
     11314        98  SOPE      H91             2.3041541097        1.5419717457       -8.7033289088  MEMB      98              0.0000000000
     11315        98  SOPE      C210            3.6902223501        1.3052884419       -7.1926615470  MEMB      98              0.0000000000
     11316        98  SOPE      H101            2.9086570903        1.4258028929       -6.4131733022  MEMB      98              0.0000000000
     11317        98  SOPE      C211            5.0907562590        1.1607762252       -6.7015812207  MEMB      98              0.0000000000
     11318        98  SOPE      H11R            5.2283227396        1.8485355757       -5.8485977194  MEMB      98              0.0000000000
     11319        98  SOPE      H11S            5.8146580663        1.4813010810       -7.4807616383  MEMB      98              0.0000000000
     11320        98  SOPE      C212            5.3854635245       -0.2901761941       -6.2769483378  MEMB      98              0.0000000000
     11321        98  SOPE      H12R            6.4283879383       -0.3693445618       -5.9054895788  MEMB      98              0.0000000000
     11322        98  SOPE      H12S            5.3229666104       -0.9915667974       -7.1411817023  MEMB      98              0.0000000000
     11323        98  SOPE      C213            4.4461303350       -0.8286804375       -5.1876047007  MEMB      98              0.0000000000
     11324        98  SOPE      H13R            4.7047096666       -1.8985786671       -5.0462521087  MEMB      98              0.0000000000
     11325        98  SOPE      H13S            3.3898719284       -0.7956184606       -5.5189987317  MEMB      98              0.0000000000
     11326        98  SOPE      C214            4.4324023554       -0.0898073639       -3.8564526906  MEMB      98              0.0000000000
     11327        98  SOPE      H14R            3.6949667372       -0.5782747790       -3.1932109727  MEMB      98              0.0000000000
     11328        98  SOPE      H14S            4.1744809220        0.9983813885       -3.9634534417  MEMB      98              0.0000000000
     11329        98  SOPE      C215            5.6478092638       -0.2927165024       -3.0131558447  MEMB      98              0.0000000000
     11330        98  SOPE      H15R            6.5224550760       -0.2990603994       -3.6550347787  MEMB      98              0.0000000000
     11331        98  SOPE      H15S            5.9051585727       -1.2841598392       -2.6469009869  MEMB      98              0.0000000000
     11332        98  SOPE      C216            5.5755446289        0.7430952765       -1.9199884617  MEMB      98              0.0000000000
     11333        98  SOPE      H16R            5.4232256304        1.8037343114       -2.2305436182  MEMB      98              0.0000000000
     11334        98  SOPE      H16S            6.5087007586        0.7326196829       -1.3094413551  MEMB      98              0.0000000000
     11335        98  SOPE      C217            4.6441147954        0.5142197848       -0.9036743840  MEMB      98              0.0000000000
     11336        98  SOPE      H17R            4.9033755096       -0.5414952217       -0.5870372592  MEMB      98              0.0000000000
     11337        98  SOPE      H17S            3.6121286947        0.5030964578       -1.2172149285  MEMB      98              0.0000000000
     11338        98  SOPE      C218            4.8363455980        1.7369596406       -0.0059705405  MEMB      98              0.0000000000
     11339        98  SOPE      H18R            4.3231585069        1.4460250556        0.8779479582  MEMB      98              0.0000000000
     11340        98  SOPE      H18S            5.3233768179        2.7122022100        0.0809611723  MEMB      98              0.0000000000
     11341        98  SOPE      H18T            5.9464530030        1.7288779697        0.0656880285  MEMB      98              0.0000000000
     11342        98  SOPE      C33             8.4042956376       -2.2880374658      -12.0191206138  MEMB      98              0.0000000000
     11343        98  SOPE      H3X             9.2354876646       -1.7658818629      -11.5166998363  MEMB      98              0.0000000000
     11344        98  SOPE      H3Y             9.2342266359       -2.7842094312      -12.5511075926  MEMB      98              0.0000000000
     11345        98  SOPE      C34             7.8622749794       -2.9085587572      -10.7540112733  MEMB      98              0.0000000000
     11346        98  SOPE      H4X             7.3177327130       -3.8106059353      -10.9703582783  MEMB      98              0.0000000000
     11347        98  SOPE      H4Y             7.1779721574       -2.1626758076      -10.2311710666  MEMB      98              0.0000000000
     11348        98  SOPE      C35             9.0609181987       -3.2469517635       -9.8570819340  MEMB      98              0.0000000000
     11349        98  SOPE      H5X             8.9452550700       -2.3143607201       -9.4726700764  MEMB      98              0.0000000000
     11350        98  SOPE      H5Y            10.1070777855       -3.1072649599      -10.2138704269  MEMB      98              0.0000000000
     11351        98  SOPE      C36             8.8177745261       -3.8430691214       -8.4815327092  MEMB      98              0.0000000000
     11352        98  SOPE      H6X             9.7056263258       -3.6912873487       -7.8219801219  MEMB      98              0.0000000000
     11353        98  SOPE      H6Y             8.6895580585       -4.8817961222       -8.8162997400  MEMB      98              0.0000000000
     11354        98  SOPE      C37             7.5574211453       -3.3549284369       -7.7366447610  MEMB      98              0.0000000000
     11355        98  SOPE      H7X             6.6846533410       -3.6316150822       -8.3622617960  MEMB      98              0.0000000000
     11356        98  SOPE      H7Y             7.4980478247       -2.2547385139       -7.5654525541  MEMB      98              0.0000000000
     11357        98  SOPE      C38             7.3858114592       -4.0171549847       -6.3672410270  MEMB      98              0.0000000000
     11358        98  SOPE      H8X             7.2903630659       -5.1107562451       -6.4783539906  MEMB      98              0.0000000000
     11359        98  SOPE      H8Y             6.4540129666       -3.5910002686       -5.9283106104  MEMB      98              0.0000000000
     11360        98  SOPE      C39             8.5022676352       -3.7555268435       -5.3903997954  MEMB      98              0.0000000000
     11361        98  SOPE      H9X             9.5159014386       -4.0367599312       -5.7490158883  MEMB      98              0.0000000000
     11362        98  SOPE      H9Y             8.3647432363       -4.3566654367       -4.4552151323  MEMB      98              0.0000000000
     11363        98  SOPE      C310            8.5268759895       -2.2910987104       -5.0777457240  MEMB      98              0.0000000000
     11364        98  SOPE      H10X            7.6526612907       -2.1339643771       -4.3577547175  MEMB      98              0.0000000000
     11365        98  SOPE      H10Y            8.3552945855       -1.5061782420       -5.8114344015  MEMB      98              0.0000000000
     11366        98  SOPE      C311           10.0023873050       -2.0632236107       -4.6362289890  MEMB      98              0.0000000000
     11367        98  SOPE      H11X           10.7514972336       -1.5476938678       -5.2246024449  MEMB      98              0.0000000000
     11368        98  SOPE      H11Y           10.3834794411       -2.7258403139       -3.8778964416  MEMB      98              0.0000000000
     11369        98  SOPE      C312           10.1500448800       -0.8921254073       -3.9103282483  MEMB      98              0.0000000000
     11370        98  SOPE      H12X            9.0748183013       -1.1142649646       -3.5234519602  MEMB      98              0.0000000000
     11371        98  SOPE      H12Y            9.1444884257       -0.3696428332       -3.9777470668  MEMB      98              0.0000000000
     11372        98  SOPE      C313           11.6124327919       -0.6856039925       -2.7455870648  MEMB      98              0.0000000000
     11373        98  SOPE      H13X           11.8275912417        0.3090630613       -2.2454625305  MEMB      98              0.0000000000
     11374        98  SOPE      H13Y           12.3657773217       -0.5776555128       -3.4930447715  MEMB      98              0.0000000000
     11375        98  SOPE      C314           11.8343238273       -1.2018339979       -1.0390052466  MEMB      98              0.0000000000
     11376        98  SOPE      H14X           12.6735121514       -0.7818466219       -0.4575999533  MEMB      98              0.0000000000
     11377        98  SOPE      H14Y           11.4297924565       -2.2297967927       -0.8204603141  MEMB      98              0.0000000000
     11378        98  SOPE      C315           10.9958105459       -0.8564591710        0.3086009860  MEMB      98              0.0000000000
     11379        98  SOPE      H15X            9.9379349474       -0.9429353395        0.2944161905  MEMB      98              0.0000000000
     11380        98  SOPE      H15Y           10.7153171500        0.1749082316        0.5765628696  MEMB      98              0.0000000000
     11381        98  SOPE      C316           10.9241212600       -1.9219963146        1.2293230942  MEMB      98              0.0000000000
     11382        98  SOPE      H16X           10.1779143881       -1.5717047504        1.8351116391  MEMB      98              0.0000000000
     11383        98  SOPE      H16Y           11.8110787842       -1.6400200128        1.7220480116  MEMB      98              0.0000000000
     11384        98  SOPE      C317           10.1068306579       -3.1711576693        1.2093334010  MEMB      98              0.0000000000
     11385        98  SOPE      H17X            9.9744908385       -3.2305213851        2.2938756376  MEMB      98              0.0000000000
     11386        98  SOPE      H17Y           10.6668215539       -3.9662922118        0.7446290491  MEMB      98              0.0000000000
     11387        98  SOPE      C318            8.6484548255       -3.4747005585        1.2847378906  MEMB      98              0.0000000000
     11388        98  SOPE      H18X            8.8470176743       -4.5127483863        1.4107873494  MEMB      98              0.0000000000
     11389        98  SOPE      H18Y            7.9563943588       -3.3009250421        0.4441904740  MEMB      98              0.0000000000
     11390        98  SOPE      H18Z            8.0960005863       -3.0239883655        2.1704219009  MEMB      98              0.0000000000
     11391        99  SAPC      N               0.6703807749        6.7035133490      -20.5236056026  MEMB      99              0.0000000000
     11392        99  SAPC      C12             1.7923076642        5.7800774903      -20.7916696928  MEMB      99              0.0000000000
     11393        99  SAPC      H12A            2.3484161544        6.2344814833      -21.6001293344  MEMB      99              0.0000000000
     11394        99  SAPC      H12B            1.3681403549        4.8224936435      -21.0798190011  MEMB      99              0.0000000000
     11395        99  SAPC      C13             1.1632284693        8.0139887629      -20.0389801734  MEMB      99              0.0000000000
     11396        99  SAPC      H13A            1.5081592717        8.0244297433      -19.0067155748  MEMB      99              0.0000000000
     11397        99  SAPC      H13B            1.8574707158        8.4487439142      -20.7480591883  MEMB      99              0.0000000000
     11398        99  SAPC      H13C            0.3606637964        8.6689704180      -19.8833046277  MEMB      99              0.0000000000
     11399        99  SAPC      C14            -0.1965424514        6.8045719418      -21.7028213883  MEMB      99              0.0000000000
     11400        99  SAPC      H14A            0.2692962288        7.0774852403      -22.6204599717  MEMB      99              0.0000000000
     11401        99  SAPC      H14B           -0.7778020238        5.8864580411      -21.8230393225  MEMB      99              0.0000000000
     11402        99  SAPC      H14C           -1.0198059186        7.4699077795      -21.5005364140  MEMB      99              0.0000000000
     11403        99  SAPC      C15            -0.1949430201        6.1152876765      -19.5553778045  MEMB      99              0.0000000000
     11404        99  SAPC      H15A           -0.9798476506        6.8571755099      -19.3274897398  MEMB      99              0.0000000000
     11405        99  SAPC      H15B           -0.7362473335        5.2132360635      -19.8229078074  MEMB      99              0.0000000000
     11406        99  SAPC      H15C            0.3460108771        5.9604408401      -18.6218366459  MEMB      99              0.0000000000
     11407        99  SAPC      C11             2.7609915072        5.4945423853      -19.6318628563  MEMB      99              0.0000000000
     11408        99  SAPC      H11A            3.4703717940        4.7329906541      -20.0260419807  MEMB      99              0.0000000000
     11409        99  SAPC      H11B            2.1963392943        5.0177381919      -18.7979313620  MEMB      99              0.0000000000
     11410        99  SAPC      P               4.8397252898        7.1161473455      -19.6722375426  MEMB      99              0.0000000000
     11411        99  SAPC      O13             5.8631398283        6.1832726987      -19.1507673517  MEMB      99              0.0000000000
     11412        99  SAPC      O14             4.6659403081        7.2293408234      -21.1425023233  MEMB      99              0.0000000000
     11413        99  SAPC      O12             3.4207046792        6.6629160774      -19.1451531458  MEMB      99              0.0000000000
     11414        99  SAPC      O11             4.9437490394        8.5396358273      -18.9866619231  MEMB      99              0.0000000000
     11415        99  SAPC      C1              3.7993084164        9.0715818038      -18.3206219746  MEMB      99              0.0000000000
     11416        99  SAPC      HA              3.0570679749        9.3958102082      -19.0761937093  MEMB      99              0.0000000000
     11417        99  SAPC      HB              3.3272370055        8.3672368905      -17.5937256250  MEMB      99              0.0000000000
     11418        99  SAPC      C2              4.2451905827       10.2223841041      -17.4393090928  MEMB      99              0.0000000000
     11419        99  SAPC      HS              4.8280664325       10.8693417582      -18.1459706469  MEMB      99              0.0000000000
     11420        99  SAPC      O21             5.0668677014        9.7085164087      -16.3962341421  MEMB      99              0.0000000000
     11421        99  SAPC      C21             6.0588048583       10.4651192883      -15.9976284376  MEMB      99              0.0000000000
     11422        99  SAPC      O22             6.4727548787       11.4784514152      -16.4907908242  MEMB      99              0.0000000000
     11423        99  SAPC      C22             6.6739649704        9.8677978704      -14.8235466705  MEMB      99              0.0000000000
     11424        99  SAPC      H2R             5.9649242419        9.7428167811      -13.9853086493  MEMB      99              0.0000000000
     11425        99  SAPC      H2S             7.0073626884        8.8944673105      -15.2363553119  MEMB      99              0.0000000000
     11426        99  SAPC      C3              3.0180157506       10.9050923783      -16.7618104776  MEMB      99              0.0000000000
     11427        99  SAPC      HX              2.3718617044       11.3750010187      -17.5289490732  MEMB      99              0.0000000000
     11428        99  SAPC      HY              3.3030912898       11.7422263938      -16.1669792131  MEMB      99              0.0000000000
     11429        99  SAPC      O31             2.3283531266       10.0579543367      -15.8467096176  MEMB      99              0.0000000000
     11430        99  SAPC      C31             2.7366789468       10.1518938245      -14.5673851533  MEMB      99              0.0000000000
     11431        99  SAPC      O32             3.4136820164       11.0023641353      -14.0425536984  MEMB      99              0.0000000000
     11432        99  SAPC      C32             2.3121856018        8.9799077896      -13.8005475452  MEMB      99              0.0000000000
     11433        99  SAPC      H2X             2.3946437589        8.1145449699      -14.4784781207  MEMB      99              0.0000000000
     11434        99  SAPC      H2Y             1.2643017733        9.1892062251      -13.5089542149  MEMB      99              0.0000000000
     11435        99  SAPC      C23             7.8450940183       10.7873940406      -14.4313250445  MEMB      99              0.0000000000
     11436        99  SAPC      H3R             7.4119210216       11.6947013461      -14.0289317433  MEMB      99              0.0000000000
     11437        99  SAPC      H3S             8.4733543747       11.1346508128      -15.3096287013  MEMB      99              0.0000000000
     11438        99  SAPC      C24             8.6474143372       10.1895977622      -13.3274408202  MEMB      99              0.0000000000
     11439        99  SAPC      H4R             8.0621735865        9.7964845471      -12.4864433878  MEMB      99              0.0000000000
     11440        99  SAPC      H4S             9.5088260044       10.8060277383      -13.1176950515  MEMB      99              0.0000000000
     11441        99  SAPC      C25             9.1398984789        9.2053298130      -14.2133578525  MEMB      99              0.0000000000
     11442        99  SAPC      H5R             9.9921212213        9.6828748577      -14.6840018394  MEMB      99              0.0000000000
     11443        99  SAPC      C26             8.9490198601        7.9217345515      -14.1396268379  MEMB      99              0.0000000000
     11444        99  SAPC      H6R             9.7149905228        7.3777175369      -14.7498767563  MEMB      99              0.0000000000
     11445        99  SAPC      C27             8.1705932379        7.2212986948      -12.9960938370  MEMB      99              0.0000000000
     11446        99  SAPC      H7R             8.4823573634        6.1196533618      -13.0677755133  MEMB      99              0.0000000000
     11447        99  SAPC      H7S             7.1502849700        7.3360501768      -13.2311590267  MEMB      99              0.0000000000
     11448        99  SAPC      C28             8.1570876702        7.6503972028      -11.5090702662  MEMB      99              0.0000000000
     11449        99  SAPC      H8R             9.0663631426        8.2812387891      -11.2474406088  MEMB      99              0.0000000000
     11450        99  SAPC      C29             7.6204756554        7.1318457975      -10.3679082023  MEMB      99              0.0000000000
     11451        99  SAPC      H9R             8.2702665987        7.0679503843       -9.4385670584  MEMB      99              0.0000000000
     11452        99  SAPC      C210            6.6829392657        5.9930976658      -10.3916035977  MEMB      99              0.0000000000
     11453        99  SAPC      H10R            6.3996326055        5.7587537641      -11.4360326773  MEMB      99              0.0000000000
     11454        99  SAPC      H10S            5.8979445485        6.6687004790      -10.0221679684  MEMB      99              0.0000000000
     11455        99  SAPC      C211            6.5787345758        4.7443036861       -9.5420340620  MEMB      99              0.0000000000
     11456        99  SAPC      H11R            6.7665557548        3.7941013280      -10.0637023430  MEMB      99              0.0000000000
     11457        99  SAPC      C212            6.3432431643        4.7076568592       -8.2207125998  MEMB      99              0.0000000000
     11458        99  SAPC      H12R            6.1562385322        3.7408181082       -7.7126805836  MEMB      99              0.0000000000
     11459        99  SAPC      C213            6.1549203999        5.9270858435       -7.3481244809  MEMB      99              0.0000000000
     11460        99  SAPC      H13R            7.0445831755        6.5370873066       -7.3565477377  MEMB      99              0.0000000000
     11461        99  SAPC      H13S            6.0902480007        5.5949436875       -6.2801914609  MEMB      99              0.0000000000
     11462        99  SAPC      C214            5.0510357858        6.8834586449       -7.6236229155  MEMB      99              0.0000000000
     11463        99  SAPC      H14R            5.1029242510        7.8605448644       -8.0953680280  MEMB      99              0.0000000000
     11464        99  SAPC      C215            3.9009562831        6.5107210206       -7.2967077831  MEMB      99              0.0000000000
     11465        99  SAPC      H15R            3.2017911095        7.3627657750       -7.2198027427  MEMB      99              0.0000000000
     11466        99  SAPC      C216            3.8380026918        5.1372138311       -6.6700531540  MEMB      99              0.0000000000
     11467        99  SAPC      H16R            4.6117396947        4.5097640302       -6.2076496586  MEMB      99              0.0000000000
     11468        99  SAPC      H16S            3.3770426685        4.3390405280       -7.2248640210  MEMB      99              0.0000000000
     11469        99  SAPC      C217            3.3744862863        5.3857877030       -5.4098084059  MEMB      99              0.0000000000
     11470        99  SAPC      H17R            2.6905795840        4.4906594201       -5.3051749885  MEMB      99              0.0000000000
     11471        99  SAPC      H17S            2.4035874769        5.7724916563       -5.6238555435  MEMB      99              0.0000000000
     11472        99  SAPC      C218            4.3529264343        5.9900325587       -4.1204170349  MEMB      99              0.0000000000
     11473        99  SAPC      H18R            4.9110245717        6.7318159682       -4.6864724596  MEMB      99              0.0000000000
     11474        99  SAPC      H18S            4.8377342605        5.0438658148       -3.8279351587  MEMB      99              0.0000000000
     11475        99  SAPC      C219            4.0175740936        6.8287010495       -2.6586808961  MEMB      99              0.0000000000
     11476        99  SAPC      H19R            3.3534783323        6.3711041699       -2.0023807664  MEMB      99              0.0000000000
     11477        99  SAPC      H19S            3.2582515243        7.5818110453       -2.4646454216  MEMB      99              0.0000000000
     11478        99  SAPC      C220            4.7022495424        6.9179657263       -1.3642816457  MEMB      99              0.0000000000
     11479        99  SAPC      H20R            5.3229378009        7.6926412340       -1.8017130377  MEMB      99              0.0000000000
     11480        99  SAPC      H20S            5.0393144682        5.8822416500       -1.1434288255  MEMB      99              0.0000000000
     11481        99  SAPC      H20T            3.9937506611        7.3247111992       -0.5512416609  MEMB      99              0.0000000000
     11482        99  SAPC      C33             3.3026424616        8.8505342313      -12.6309506572  MEMB      99              0.0000000000
     11483        99  SAPC      H3X             3.2455547364        9.7684795619      -11.9918630006  MEMB      99              0.0000000000
     11484        99  SAPC      H3Y             4.3478427175        8.7299023555      -12.9590512881  MEMB      99              0.0000000000
     11485        99  SAPC      C34             3.1099855198        7.6182250966      -11.8051094905  MEMB      99              0.0000000000
     11486        99  SAPC      H4X             3.8694969891        7.5126157793      -11.0063785874  MEMB      99              0.0000000000
     11487        99  SAPC      H4Y             2.9178138300        6.6654910798      -12.3622831290  MEMB      99              0.0000000000
     11488        99  SAPC      C35             1.9275606981        7.8751434781      -11.0273531253  MEMB      99              0.0000000000
     11489        99  SAPC      H5X             1.8207934808        7.0724296605      -10.3087284045  MEMB      99              0.0000000000
     11490        99  SAPC      H5Y             1.0947315524        7.7356617029      -11.7386347089  MEMB      99              0.0000000000
     11491        99  SAPC      C36             1.9353822982        9.0795537171      -10.0811115419  MEMB      99              0.0000000000
     11492        99  SAPC      H6X             2.8875989183        9.5727202494       -9.9892931266  MEMB      99              0.0000000000
     11493        99  SAPC      H6Y             1.9071113713        8.6410555541       -9.0657629048  MEMB      99              0.0000000000
     11494        99  SAPC      C37             0.9480210168       10.1735153197      -10.5076355204  MEMB      99              0.0000000000
     11495        99  SAPC      H7X            -0.0895815459       10.1549509899      -10.1242987122  MEMB      99              0.0000000000
     11496        99  SAPC      H7Y             0.9344724717       10.1034340259      -11.6075773704  MEMB      99              0.0000000000
     11497        99  SAPC      C38             0.9098421522       11.5671611797       -9.9849425261  MEMB      99              0.0000000000
     11498        99  SAPC      H8X             0.0151482682       12.0557064968      -10.4656432071  MEMB      99              0.0000000000
     11499        99  SAPC      H8Y             1.8667863037       11.9367104742      -10.3468599653  MEMB      99              0.0000000000
     11500        99  SAPC      C39             0.6620539952       11.6866699746       -8.4905808675  MEMB      99              0.0000000000
     11501        99  SAPC      H9X            -0.1847525903       11.0622338859       -8.2056383420  MEMB      99              0.0000000000
     11502        99  SAPC      H9Y             0.2312857812       12.6693632327       -8.2679291185  MEMB      99              0.0000000000
     11503        99  SAPC      C310            1.9763884503       11.4831249386       -7.7580652235  MEMB      99              0.0000000000
     11504        99  SAPC      H10X            2.6437656756       12.2503627611       -8.2185961068  MEMB      99              0.0000000000
     11505        99  SAPC      H10Y            2.4072214994       10.4901717841       -8.0073257704  MEMB      99              0.0000000000
     11506        99  SAPC      C311            1.9283829296       11.7540267818       -6.2529701866  MEMB      99              0.0000000000
     11507        99  SAPC      H11X            1.4824717394       10.8984044162       -5.7014818731  MEMB      99              0.0000000000
     11508        99  SAPC      H11Y            1.2613725887       12.6260556829       -6.0770312122  MEMB      99              0.0000000000
     11509        99  SAPC      C312            3.3175509906       12.1318275567       -5.7259474677  MEMB      99              0.0000000000
     11510        99  SAPC      H12X            3.2593373327       12.6459236451       -4.7426742631  MEMB      99              0.0000000000
     11511        99  SAPC      H12Y            3.7748440289       12.8727061223       -6.4214914939  MEMB      99              0.0000000000
     11512        99  SAPC      C313            4.2669752689       10.9411150451       -5.6182717198  MEMB      99              0.0000000000
     11513        99  SAPC      H13X            5.2528514158       11.3479472324       -5.3029245592  MEMB      99              0.0000000000
     11514        99  SAPC      H13Y            4.3889961736       10.4610419923       -6.6152674832  MEMB      99              0.0000000000
     11515        99  SAPC      C314            3.8128711435        9.8228918093       -4.6692412703  MEMB      99              0.0000000000
     11516        99  SAPC      H14X            4.6092136525        9.0337598864       -4.7108650487  MEMB      99              0.0000000000
     11517        99  SAPC      H14Y            2.8868912589        9.3814712426       -5.0493210034  MEMB      99              0.0000000000
     11518        99  SAPC      C315            3.5993268117       10.2032192905       -3.2155845387  MEMB      99              0.0000000000
     11519        99  SAPC      H15X            3.0789868919        9.4918364339       -2.5573412231  MEMB      99              0.0000000000
     11520        99  SAPC      H15Y            3.1791728746       11.2191329652       -3.0316506241  MEMB      99              0.0000000000
     11521        99  SAPC      C316            4.9289793579       10.0399992456       -2.6427668576  MEMB      99              0.0000000000
     11522        99  SAPC      H16X            5.4394201769       10.7571028904       -3.3310571759  MEMB      99              0.0000000000
     11523        99  SAPC      H16Y            5.5360555203        9.1636012619       -2.9298402686  MEMB      99              0.0000000000
     11524        99  SAPC      C317            4.8634623584       10.2562912507       -1.1079466055  MEMB      99              0.0000000000
     11525        99  SAPC      H17X            5.8937249920        9.9018828241       -0.8328102689  MEMB      99              0.0000000000
     11526        99  SAPC      H17Y            4.8098464712        9.4335266618       -0.3846394783  MEMB      99              0.0000000000
     11527        99  SAPC      C318            4.3788329372       11.7705208712       -0.6970971925  MEMB      99              0.0000000000
     11528        99  SAPC      H18X            4.6803541103       12.6650204441       -1.2749858271  MEMB      99              0.0000000000
     11529        99  SAPC      H18Y            4.6640282965       12.1361951964        0.3437764377  MEMB      99              0.0000000000
     11530        99  SAPC      H18Z            3.3237992332       11.8082461161       -0.7969580037  MEMB      99              0.0000000000
     11531       100  SAPE      N              -1.1345966739       -7.6866114415      -22.0176258202  MEMB      100             0.0000000000
     11532       100  SAPE      HN1            -1.4796419786       -8.4892890152      -21.4486649348  MEMB      100             0.0000000000
     11533       100  SAPE      HN2            -1.9412916120       -7.2158622515      -22.4813753453  MEMB      100             0.0000000000
     11534       100  SAPE      HN3            -0.3982101360       -7.9610817721      -22.6863338123  MEMB      100             0.0000000000
     11535       100  SAPE      C12            -0.5725666692       -6.6467845441      -21.0890840364  MEMB      100             0.0000000000
     11536       100  SAPE      H12A           -0.5049566829       -5.7031765838      -21.6605152012  MEMB      100             0.0000000000
     11537       100  SAPE      H12B            0.4419434594       -6.9612123068      -20.8044271371  MEMB      100             0.0000000000
     11538       100  SAPE      C11            -1.5312700545       -6.4773528022      -19.9190308297  MEMB      100             0.0000000000
     11539       100  SAPE      H11A           -1.3079794405       -5.5535567244      -19.3260620556  MEMB      100             0.0000000000
     11540       100  SAPE      H11B           -1.4125186591       -7.3274089015      -19.1990810862  MEMB      100             0.0000000000
     11541       100  SAPE      P              -4.0335530854       -6.7060115471      -19.5214142275  MEMB      100             0.0000000000
     11542       100  SAPE      O13            -3.5160450442       -6.4637051339      -18.1717969967  MEMB      100             0.0000000000
     11543       100  SAPE      O14            -5.2088851814       -6.0504451834      -20.1474457441  MEMB      100             0.0000000000
     11544       100  SAPE      O12            -2.8456579393       -6.4377496413      -20.4883972801  MEMB      100             0.0000000000
     11545       100  SAPE      O11            -4.4054358161       -8.1863421856      -19.5560700395  MEMB      100             0.0000000000
     11546       100  SAPE      C1             -4.7646586723       -8.7555111557      -20.7863844113  MEMB      100             0.0000000000
     11547       100  SAPE      HA             -5.5527680951       -8.1665930007      -21.3148177465  MEMB      100             0.0000000000
     11548       100  SAPE      HB             -3.8537419461       -8.7580346420      -21.4135838367  MEMB      100             0.0000000000
     11549       100  SAPE      C2             -5.2386684947      -10.2046144773      -20.5233947847  MEMB      100             0.0000000000
     11550       100  SAPE      HS             -5.7724706190      -10.5644912493      -21.4197000577  MEMB      100             0.0000000000
     11551       100  SAPE      O21            -6.1102494273      -10.3273355172      -19.3843023688  MEMB      100             0.0000000000
     11552       100  SAPE      C21            -7.2782601693       -9.7277371925      -19.4598310172  MEMB      100             0.0000000000
     11553       100  SAPE      O22            -7.7665392096       -9.2537056933      -20.4710903377  MEMB      100             0.0000000000
     11554       100  SAPE      C22            -7.7747368495       -9.4771315128      -18.0455746558  MEMB      100             0.0000000000
     11555       100  SAPE      H2R            -8.8017994088       -9.0279906452      -18.0519355764  MEMB      100             0.0000000000
     11556       100  SAPE      H2S            -7.7344957998      -10.4046335993      -17.4591498542  MEMB      100             0.0000000000
     11557       100  SAPE      C3             -4.0072562373      -11.1267775503      -20.3008428272  MEMB      100             0.0000000000
     11558       100  SAPE      HX             -3.4427121391      -11.2344439120      -21.2496175234  MEMB      100             0.0000000000
     11559       100  SAPE      HY             -4.3782898311      -12.1340284754      -20.0244809671  MEMB      100             0.0000000000
     11560       100  SAPE      O31            -3.1024777747      -10.5979493685      -19.3218397718  MEMB      100             0.0000000000
     11561       100  SAPE      C31            -3.5044905340      -10.7326089982      -18.0703242855  MEMB      100             0.0000000000
     11562       100  SAPE      O32            -4.4163923825      -11.4079177547      -17.6383414497  MEMB      100             0.0000000000
     11563       100  SAPE      C32            -2.6468825714       -9.8212603213      -17.2327586256  MEMB      100             0.0000000000
     11564       100  SAPE      H2X            -3.0764326421       -8.7966309838      -17.2438111008  MEMB      100             0.0000000000
     11565       100  SAPE      H2Y            -1.6199040401       -9.8054853481      -17.6413549849  MEMB      100             0.0000000000
     11566       100  SAPE      C23            -6.6642298576       -8.6156890180      -17.4735250885  MEMB      100             0.0000000000
     11567       100  SAPE      H3R            -6.5411735107       -7.8746533857      -18.2993504775  MEMB      100             0.0000000000
     11568       100  SAPE      H3S            -5.6873443491       -9.0737633639      -17.4067567337  MEMB      100             0.0000000000
     11569       100  SAPE      C24            -6.8401910059       -8.0901264470      -16.0523575861  MEMB      100             0.0000000000
     11570       100  SAPE      H4R            -7.5568491720       -8.5595891019      -15.3592417369  MEMB      100             0.0000000000
     11571       100  SAPE      H4S            -7.5423566018       -7.4702909735      -16.5691387466  MEMB      100             0.0000000000
     11572       100  SAPE      C25            -5.7376658254       -7.3038136598      -15.3394096657  MEMB      100             0.0000000000
     11573       100  SAPE      H5R            -5.3816743684       -6.3880456562      -15.7877472671  MEMB      100             0.0000000000
     11574       100  SAPE      C26            -5.3802385861       -7.3595730366      -14.0648225284  MEMB      100             0.0000000000
     11575       100  SAPE      H6R            -4.5763038866       -6.6888876102      -13.7214508256  MEMB      100             0.0000000000
     11576       100  SAPE      C27            -5.9995352054       -8.2347851338      -13.0331983395  MEMB      100             0.0000000000
     11577       100  SAPE      H7R            -7.0476357787       -7.9122078665      -12.8541346226  MEMB      100             0.0000000000
     11578       100  SAPE      H7S            -5.4470919850       -8.0243688533      -12.0924246305  MEMB      100             0.0000000000
     11579       100  SAPE      C28            -6.0057358134       -9.6984592617      -13.4042318921  MEMB      100             0.0000000000
     11580       100  SAPE      H8R            -5.7585937593       -9.9582525142      -14.4481355225  MEMB      100             0.0000000000
     11581       100  SAPE      C29            -6.4271031165      -10.6664471397      -12.5925585533  MEMB      100             0.0000000000
     11582       100  SAPE      H9R            -6.2830738874      -11.7201816105      -12.8921262496  MEMB      100             0.0000000000
     11583       100  SAPE      C210           -6.9403798466      -10.4138394534      -11.2068378499  MEMB      100             0.0000000000
     11584       100  SAPE      H10R           -7.9658396173      -10.8084702852      -11.1805082608  MEMB      100             0.0000000000
     11585       100  SAPE      H10S           -6.9393960557       -9.3389522941      -10.9409841492  MEMB      100             0.0000000000
     11586       100  SAPE      C211           -6.0919010925      -11.0244315375      -10.1532236175  MEMB      100             0.0000000000
     11587       100  SAPE      H11R           -5.0846384099      -10.6612774682      -10.1459850596  MEMB      100             0.0000000000
     11588       100  SAPE      C212           -6.4020482892      -11.6368166102       -9.0338999540  MEMB      100             0.0000000000
     11589       100  SAPE      H12R           -5.7407654980      -12.2059886805       -8.3819095180  MEMB      100             0.0000000000
     11590       100  SAPE      C213           -7.7181440082      -11.7976333768       -8.6628047980  MEMB      100             0.0000000000
     11591       100  SAPE      H13R           -8.0551338399      -12.6875945140       -9.2277765991  MEMB      100             0.0000000000
     11592       100  SAPE      H13S           -8.2501992824      -10.8826757980       -9.0782397771  MEMB      100             0.0000000000
     11593       100  SAPE      C214           -7.9017786079      -11.9791347270       -7.1744777105  MEMB      100             0.0000000000
     11594       100  SAPE      H14R           -8.3211718522      -12.9558007437       -6.8898874311  MEMB      100             0.0000000000
     11595       100  SAPE      C215           -8.0501298802      -10.9336984165       -6.3533229873  MEMB      100             0.0000000000
     11596       100  SAPE      H15R           -8.2905963930      -11.1043070858       -5.2937328735  MEMB      100             0.0000000000
     11597       100  SAPE      C216           -8.0202000898       -9.5010162521       -6.8287823562  MEMB      100             0.0000000000
     11598       100  SAPE      H16R           -8.8793937044       -9.1963513845       -7.4749413978  MEMB      100             0.0000000000
     11599       100  SAPE      H16S           -7.1157679894       -9.3835113727       -7.4584430584  MEMB      100             0.0000000000
     11600       100  SAPE      C217           -7.9495795894       -8.5514598446       -5.6322820784  MEMB      100             0.0000000000
     11601       100  SAPE      H17R           -8.8323803503       -8.6943756542       -4.9643576014  MEMB      100             0.0000000000
     11602       100  SAPE      H17S           -8.0008330462       -7.5099819171       -6.0317708162  MEMB      100             0.0000000000
     11603       100  SAPE      C218           -6.6506970558       -8.7763152495       -4.8374542600  MEMB      100             0.0000000000
     11604       100  SAPE      H18R           -5.8669148598       -8.0955339636       -5.2538287603  MEMB      100             0.0000000000
     11605       100  SAPE      H18S           -6.3080327283       -9.8162906713       -4.8445083284  MEMB      100             0.0000000000
     11606       100  SAPE      C219           -6.7714558579       -8.5750440438       -3.3488445897  MEMB      100             0.0000000000
     11607       100  SAPE      H19R           -7.7898451616       -8.8090499522       -2.9269962413  MEMB      100             0.0000000000
     11608       100  SAPE      H19S           -6.5543533149       -7.5118836629       -3.5089033108  MEMB      100             0.0000000000
     11609       100  SAPE      C220           -5.6011990263       -8.6353740923       -2.3940924519  MEMB      100             0.0000000000
     11610       100  SAPE      H20R           -4.7296489515       -8.3048678180       -2.9821724644  MEMB      100             0.0000000000
     11611       100  SAPE      H20S           -5.5602436999       -9.6280522321       -1.9308105586  MEMB      100             0.0000000000
     11612       100  SAPE      H20T           -5.6143986086       -7.8484064062       -1.6020447986  MEMB      100             0.0000000000
     11613       100  SAPE      C33            -2.5818147272      -10.3288216071      -15.8158298784  MEMB      100             0.0000000000
     11614       100  SAPE      H3X            -2.2443047875      -11.3930680443      -15.7906123889  MEMB      100             0.0000000000
     11615       100  SAPE      H3Y            -3.5961237867      -10.3102877562      -15.3484261997  MEMB      100             0.0000000000
     11616       100  SAPE      C34            -1.5278766588       -9.5229901357      -15.0699025028  MEMB      100             0.0000000000
     11617       100  SAPE      H4X            -0.4872285728       -9.7619727241      -15.3463593777  MEMB      100             0.0000000000
     11618       100  SAPE      H4Y            -1.6813703221       -9.8612071949      -14.0858591025  MEMB      100             0.0000000000
     11619       100  SAPE      C35            -1.7255162128       -8.0522031846      -14.8251585245  MEMB      100             0.0000000000
     11620       100  SAPE      H5X            -2.7593345060       -7.9243018136      -14.4330726505  MEMB      100             0.0000000000
     11621       100  SAPE      H5Y            -1.6294843017       -7.5973934295      -15.8282461801  MEMB      100             0.0000000000
     11622       100  SAPE      C36            -0.7147921757       -7.4543291492      -13.8223678089  MEMB      100             0.0000000000
     11623       100  SAPE      H6X             0.3300906401       -7.7798931489      -14.0457465352  MEMB      100             0.0000000000
     11624       100  SAPE      H6Y            -0.9207012471       -7.7965997361      -12.7857599241  MEMB      100             0.0000000000
     11625       100  SAPE      C37            -0.7393013818       -5.9245011754      -13.9314061333  MEMB      100             0.0000000000
     11626       100  SAPE      H7X            -0.6935914242       -5.7010797292      -15.0246583859  MEMB      100             0.0000000000
     11627       100  SAPE      H7Y             0.1889012378       -5.5215068562      -13.4729162777  MEMB      100             0.0000000000
     11628       100  SAPE      C38            -1.9708934431       -5.2241355825      -13.3172839817  MEMB      100             0.0000000000
     11629       100  SAPE      H8X            -2.8843124729       -5.4462442124      -13.9085152618  MEMB      100             0.0000000000
     11630       100  SAPE      H8Y            -1.8271884200       -4.1212157010      -13.3839399729  MEMB      100             0.0000000000
     11631       100  SAPE      C39            -2.3011996061       -5.6662181971      -11.8842935261  MEMB      100             0.0000000000
     11632       100  SAPE      H9X            -1.4029210222       -5.5376937353      -11.2444652424  MEMB      100             0.0000000000
     11633       100  SAPE      H9Y            -2.5465734902       -6.7510274835      -11.9178841979  MEMB      100             0.0000000000
     11634       100  SAPE      C310           -3.5459805687       -4.9532001105      -11.3262814683  MEMB      100             0.0000000000
     11635       100  SAPE      H10X           -4.3817825157       -5.1587071755      -12.0350610314  MEMB      100             0.0000000000
     11636       100  SAPE      H10Y           -3.3760904039       -3.8553164090      -11.3310630818  MEMB      100             0.0000000000
     11637       100  SAPE      C311           -4.0183102004       -5.4297058964       -9.9346108825  MEMB      100             0.0000000000
     11638       100  SAPE      H11X           -4.2502136127       -6.5166017807       -9.9926353401  MEMB      100             0.0000000000
     11639       100  SAPE      H11Y           -4.9490402778       -4.8747413816       -9.6783400090  MEMB      100             0.0000000000
     11640       100  SAPE      C312           -3.0349103395       -5.1447130513       -8.7926833986  MEMB      100             0.0000000000
     11641       100  SAPE      H12X           -3.0111037650       -4.0364095365       -8.6679028969  MEMB      100             0.0000000000
     11642       100  SAPE      H12Y           -2.0292705835       -5.4791249763       -9.1216930126  MEMB      100             0.0000000000
     11643       100  SAPE      C313           -3.3619730122       -5.8565348149       -7.4587868663  MEMB      100             0.0000000000
     11644       100  SAPE      H13X           -3.2912716348       -6.9596738474       -7.5850922619  MEMB      100             0.0000000000
     11645       100  SAPE      H13Y           -4.3993491986       -5.6315451384       -7.1264331128  MEMB      100             0.0000000000
     11646       100  SAPE      C314           -2.3931596696       -5.5024018780       -6.3190976754  MEMB      100             0.0000000000
     11647       100  SAPE      H14X           -2.5220041770       -4.4234196141       -6.0851342034  MEMB      100             0.0000000000
     11648       100  SAPE      H14Y           -1.3464817982       -5.7016821768       -6.6561711497  MEMB      100             0.0000000000
     11649       100  SAPE      C315           -2.6575924951       -6.3399221112       -5.0559943907  MEMB      100             0.0000000000
     11650       100  SAPE      H15X           -2.6912209325       -7.4061685317       -5.3732372095  MEMB      100             0.0000000000
     11651       100  SAPE      H15Y           -3.6486345806       -6.0635548359       -4.6338914545  MEMB      100             0.0000000000
     11652       100  SAPE      C316           -1.5662543503       -6.2069972452       -3.9839204819  MEMB      100             0.0000000000
     11653       100  SAPE      H16X           -1.7923168540       -5.3443082340       -3.3220384625  MEMB      100             0.0000000000
     11654       100  SAPE      H16Y           -0.6137367021       -5.9491290157       -4.4954564479  MEMB      100             0.0000000000
     11655       100  SAPE      C317           -1.2619718371       -7.5171087215       -3.2260370842  MEMB      100             0.0000000000
     11656       100  SAPE      H17X           -1.0667304617       -8.3151261528       -3.9776181516  MEMB      100             0.0000000000
     11657       100  SAPE      H17Y           -2.1421932025       -7.8597051838       -2.6379316179  MEMB      100             0.0000000000
     11658       100  SAPE      C318            0.0201577725       -7.3816877043       -2.3967321955  MEMB      100             0.0000000000
     11659       100  SAPE      H18X            0.3593121267       -8.3041953298       -1.8838478174  MEMB      100             0.0000000000
     11660       100  SAPE      H18Y           -0.0788905936       -6.5864953144       -1.6536599405  MEMB      100             0.0000000000
     11661       100  SAPE      H18Z            0.8407362279       -7.0536934487       -3.0635744687  MEMB      100             0.0000000000
     11662       101  OSM       N              -1.9195401878       10.5640508675      -20.6521332402  MEMB      101             0.0000000000
     11663       101  OSM       C15            -1.1882638684        9.3624897350      -20.7454741222  MEMB      101             0.0000000000
     11664       101  OSM       H15A           -1.2636074668        8.8555235231      -21.7025332748  MEMB      101             0.0000000000
     11665       101  OSM       H15B           -1.4055750888        8.6272358427      -19.9633652958  MEMB      101             0.0000000000
     11666       101  OSM       H15C           -0.1336430527        9.6013601757      -20.6709233326  MEMB      101             0.0000000000
     11667       101  OSM       C14            -1.3112062386       11.2812565466      -19.5197812047  MEMB      101             0.0000000000
     11668       101  OSM       H14A           -1.3831378396       10.6888286463      -18.6093719537  MEMB      101             0.0000000000
     11669       101  OSM       H14B           -1.8503380228       12.1917546916      -19.3487210830  MEMB      101             0.0000000000
     11670       101  OSM       H14C           -0.2860082981       11.5553449380      -19.7184871404  MEMB      101             0.0000000000
     11671       101  OSM       C13            -1.7022406637       11.2214959614      -21.9804201818  MEMB      101             0.0000000000
     11672       101  OSM       H13A           -0.6568865546       11.1959246001      -22.2797353086  MEMB      101             0.0000000000
     11673       101  OSM       H13B           -2.0029323812       12.2534066623      -21.9990356015  MEMB      101             0.0000000000
     11674       101  OSM       H13C           -2.2579671232       10.6690318497      -22.7445988599  MEMB      101             0.0000000000
     11675       101  OSM       C12            -3.3504122144       10.2057865071      -20.3362871876  MEMB      101             0.0000000000
     11676       101  OSM       H12A           -3.8670419061       11.1238617005      -20.1117901604  MEMB      101             0.0000000000
     11677       101  OSM       H12B           -3.3599801832        9.5804556231      -19.4401672913  MEMB      101             0.0000000000
     11678       101  OSM       C11            -4.1785936762        9.4509561846      -21.3990911660  MEMB      101             0.0000000000
     11679       101  OSM       H11A           -4.3874933506       10.1611572382      -22.2235718544  MEMB      101             0.0000000000
     11680       101  OSM       H11B           -5.1456954750        9.1808895795      -20.9119956589  MEMB      101             0.0000000000
     11681       101  OSM       P              -3.8059443847        6.8938772642      -21.3485996296  MEMB      101             0.0000000000
     11682       101  OSM       O13            -5.2202528420        6.5401766021      -21.5063647803  MEMB      101             0.0000000000
     11683       101  OSM       O14            -2.7646698270        5.9459535499      -21.7859628818  MEMB      101             0.0000000000
     11684       101  OSM       O11            -3.4901529882        7.2913448227      -19.8504576640  MEMB      101             0.0000000000
     11685       101  OSM       O12            -3.5240494112        8.3143112184      -21.9599590451  MEMB      101             0.0000000000
     11686       101  OSM       C1S            -3.2625357245        6.1597777688      -19.0323956160  MEMB      101             0.0000000000
     11687       101  OSM       H1S            -2.4125300768        5.5715097303      -19.4016492067  MEMB      101             0.0000000000
     11688       101  OSM       H1T            -4.0410813097        5.3563090381      -19.1220835163  MEMB      101             0.0000000000
     11689       101  OSM       NF             -4.3630829105        6.8910992876      -16.9825796820  MEMB      101             0.0000000000
     11690       101  OSM       HNF            -4.3234393162        7.7159407591      -16.4542430886  MEMB      101             0.0000000000
     11691       101  OSM       C2S            -3.0579575221        6.5676796524      -17.5593396863  MEMB      101             0.0000000000
     11692       101  OSM       H2S            -2.4817105322        5.7992618621      -17.0901457073  MEMB      101             0.0000000000
     11693       101  OSM       C3S            -2.0701934478        7.6535232640      -17.1380258797  MEMB      101             0.0000000000
     11694       101  OSM       H3S            -2.2039630484        8.5142689520      -17.7940084393  MEMB      101             0.0000000000
     11695       101  OSM       O3             -0.7402236176        7.2393305571      -17.3052462169  MEMB      101             0.0000000000
     11696       101  OSM       HO3            -0.8590008750        6.4885040872      -17.9003644576  MEMB      101             0.0000000000
     11697       101  OSM       C4S            -2.0341714405        7.9466372232      -15.6682083187  MEMB      101             0.0000000000
     11698       101  OSM       H4S            -2.2089094311        7.1709855546      -14.9147634571  MEMB      101             0.0000000000
     11699       101  OSM       C5S            -1.7754055275        9.1290917177      -15.1758934124  MEMB      101             0.0000000000
     11700       101  OSM       H5S            -1.6013045790        9.9435916542      -15.8816687475  MEMB      101             0.0000000000
     11701       101  OSM       C6S            -1.7173421528        9.3837084434      -13.7106227992  MEMB      101             0.0000000000
     11702       101  OSM       H6S            -2.6927588567        9.7148777513      -13.2988491073  MEMB      101             0.0000000000
     11703       101  OSM       H6T            -0.9922767124       10.2193187376      -13.5986629202  MEMB      101             0.0000000000
     11704       101  OSM       C7S            -1.2641572025        8.2405786253      -12.7636621302  MEMB      101             0.0000000000
     11705       101  OSM       H7S            -0.2467864020        7.9068764363      -13.0750883202  MEMB      101             0.0000000000
     11706       101  OSM       H7T            -1.9480578289        7.3961228450      -12.7145327842  MEMB      101             0.0000000000
     11707       101  OSM       C8S            -1.3405944349        8.7770217669      -11.3476158238  MEMB      101             0.0000000000
     11708       101  OSM       H8S            -2.2459350334        9.2343330561      -10.9656224993  MEMB      101             0.0000000000
     11709       101  OSM       H8T            -0.9271758909        9.7488944295      -11.6640447331  MEMB      101             0.0000000000
     11710       101  OSM       C9S            -0.8864616424        7.8882589589      -10.1289930799  MEMB      101             0.0000000000
     11711       101  OSM       H9S            -0.0048196097        7.3535521680      -10.2492687868  MEMB      101             0.0000000000
     11712       101  OSM       H9T            -1.3539050991        6.9043724570      -10.1704287712  MEMB      101             0.0000000000
     11713       101  OSM       C10S           -0.5100114361        8.4887135882       -8.7336573272  MEMB      101             0.0000000000
     11714       101  OSM       H10S            0.1689446373        9.3027024475       -8.5253640362  MEMB      101             0.0000000000
     11715       101  OSM       H10T            0.3007166081        8.0561475443       -8.2437343604  MEMB      101             0.0000000000
     11716       101  OSM       C11S           -1.6275685084        8.8432886675       -7.9370352198  MEMB      101             0.0000000000
     11717       101  OSM       H11S           -2.0620034923        7.8189932407       -7.9260129753  MEMB      101             0.0000000000
     11718       101  OSM       H11T           -2.0990467957        9.5859277275       -8.6239057454  MEMB      101             0.0000000000
     11719       101  OSM       C12S           -1.2147975148        9.4593058914       -6.6062090677  MEMB      101             0.0000000000
     11720       101  OSM       H12S           -0.4652979494       10.2598416093       -6.5871123423  MEMB      101             0.0000000000
     11721       101  OSM       H12T           -0.7256895273        8.7854193417       -5.9518627535  MEMB      101             0.0000000000
     11722       101  OSM       C13S           -2.4613723832        9.8479267819       -5.9070227702  MEMB      101             0.0000000000
     11723       101  OSM       H13S           -3.0728387421        8.9185348021       -5.8622494094  MEMB      101             0.0000000000
     11724       101  OSM       H13T           -2.9169926800       10.5999364296       -6.5814933791  MEMB      101             0.0000000000
     11725       101  OSM       C14S           -2.2924556938       10.4462588777       -4.5254769550  MEMB      101             0.0000000000
     11726       101  OSM       H14S           -3.3280657717       10.6465811623       -4.1714554265  MEMB      101             0.0000000000
     11727       101  OSM       H14T           -1.6911909659       11.3761028012       -4.5567855273  MEMB      101             0.0000000000
     11728       101  OSM       C15S           -1.5655118625        9.5865120286       -3.5282797197  MEMB      101             0.0000000000
     11729       101  OSM       H15S           -0.4951106802        9.5366884698       -3.7843694688  MEMB      101             0.0000000000
     11730       101  OSM       H15T           -1.9060254265        8.5505331836       -3.7263732798  MEMB      101             0.0000000000
     11731       101  OSM       C16S           -1.7331554819       10.1549984417       -2.0936358466  MEMB      101             0.0000000000
     11732       101  OSM       H16S           -2.7240083263        9.8442602109       -1.6769384956  MEMB      101             0.0000000000
     11733       101  OSM       H16T           -1.6659655396       11.2567435468       -2.0879641344  MEMB      101             0.0000000000
     11734       101  OSM       C17S           -0.6090400241        9.7594627042       -1.1465929492  MEMB      101             0.0000000000
     11735       101  OSM       H17S           -0.4901910805        8.7208703580       -1.2634151679  MEMB      101             0.0000000000
     11736       101  OSM       H17T           -0.8204813099        9.9618661070       -0.0759141636  MEMB      101             0.0000000000
     11737       101  OSM       C18S            0.7966873028       10.0464982447       -1.5884128648  MEMB      101             0.0000000000
     11738       101  OSM       H18S            1.5088715961        9.4951757110       -0.9341297689  MEMB      101             0.0000000000
     11739       101  OSM       H18T            0.9646319770       11.1322309640       -1.5951817319  MEMB      101             0.0000000000
     11740       101  OSM       H18U            1.0041271828        9.6377484625       -2.5886483717  MEMB      101             0.0000000000
     11741       101  OSM       C1F            -5.5389266259        6.2352928199      -16.9827206638  MEMB      101             0.0000000000
     11742       101  OSM       OF             -5.8554340670        5.2634381504      -17.6135191629  MEMB      101             0.0000000000
     11743       101  OSM       C2F            -6.5975799655        6.7812813588      -16.1656706695  MEMB      101             0.0000000000
     11744       101  OSM       H2F            -7.5631247824        6.4291215692      -16.6164525868  MEMB      101             0.0000000000
     11745       101  OSM       H2G            -6.5141992321        7.8801865873      -16.1964449225  MEMB      101             0.0000000000
     11746       101  OSM       C3F            -6.4209125525        6.2654886756      -14.7452999420  MEMB      101             0.0000000000
     11747       101  OSM       H3F            -5.3981772792        6.3026794453      -14.3532752457  MEMB      101             0.0000000000
     11748       101  OSM       H3G            -6.5532833725        5.1971860243      -14.6669346494  MEMB      101             0.0000000000
     11749       101  OSM       C4F            -7.4091491514        6.9290648653      -13.8212219114  MEMB      101             0.0000000000
     11750       101  OSM       H4F            -7.4600160147        6.3166233775      -12.8960228760  MEMB      101             0.0000000000
     11751       101  OSM       H4G            -8.3819159719        6.9128958870      -14.3504715713  MEMB      101             0.0000000000
     11752       101  OSM       C5F            -6.9958178028        8.3016760460      -13.3767943939  MEMB      101             0.0000000000
     11753       101  OSM       H5F            -7.8000480062        8.7432560710      -12.7461395486  MEMB      101             0.0000000000
     11754       101  OSM       H5G            -6.8643359684        8.9083426922      -14.2945269860  MEMB      101             0.0000000000
     11755       101  OSM       C6F            -5.7166534489        8.2572168339      -12.5332212286  MEMB      101             0.0000000000
     11756       101  OSM       H6F            -5.4660206866        9.3121843940      -12.3008611933  MEMB      101             0.0000000000
     11757       101  OSM       H6G            -4.8661622178        7.8532120871      -13.1230086768  MEMB      101             0.0000000000
     11758       101  OSM       C7F            -5.8576694103        7.4051512955      -11.2498837252  MEMB      101             0.0000000000
     11759       101  OSM       H7F            -5.7445138783        6.3279896764      -11.5210946047  MEMB      101             0.0000000000
     11760       101  OSM       H7G            -6.8814589987        7.5150920496      -10.8266350716  MEMB      101             0.0000000000
     11761       101  OSM       C8F            -4.7997854077        7.7509599637      -10.1831920067  MEMB      101             0.0000000000
     11762       101  OSM       H8F            -3.8197333693        7.7073259253      -10.6998882721  MEMB      101             0.0000000000
     11763       101  OSM       H8G            -4.7881782435        6.9516402015       -9.4031296369  MEMB      101             0.0000000000
     11764       101  OSM       C9F            -4.9604038413        9.1454269861       -9.6150386742  MEMB      101             0.0000000000
     11765       101  OSM       H9F            -4.2817826541        9.8887859715      -10.0405243924  MEMB      101             0.0000000000
     11766       101  OSM       C10F           -5.8553474012        9.5730255313       -8.7156611449  MEMB      101             0.0000000000
     11767       101  OSM       H10F           -5.9575542024       10.6237586620       -8.4187575642  MEMB      101             0.0000000000
     11768       101  OSM       C11F           -6.8829242575        8.7408261920       -8.0873736146  MEMB      101             0.0000000000
     11769       101  OSM       H11F           -6.8473987384        7.6805603531       -8.4581653905  MEMB      101             0.0000000000
     11770       101  OSM       H11G           -7.8861594914        9.0993629477       -8.4204247083  MEMB      101             0.0000000000
     11771       101  OSM       C12F           -6.8872236868        8.9077954756       -6.5406050797  MEMB      101             0.0000000000
     11772       101  OSM       H12F           -7.5512437190        8.2905209461       -5.9598613996  MEMB      101             0.0000000000
     11773       101  OSM       H12G           -7.3712490023        9.8419179581       -6.2290446221  MEMB      101             0.0000000000
     11774       101  OSM       C13F           -5.6078731161        8.5315050158       -5.8303483866  MEMB      101             0.0000000000
     11775       101  OSM       H13F           -5.0011407482        9.4298860997       -6.0547145600  MEMB      101             0.0000000000
     11776       101  OSM       H13G           -5.1775509101        7.6031848937       -6.2789553845  MEMB      101             0.0000000000
     11777       101  OSM       C14F           -5.7681521802        8.3821940410       -4.3007412975  MEMB      101             0.0000000000
     11778       101  OSM       H14F           -6.4806940088        9.1498562253       -3.9265172785  MEMB      101             0.0000000000
     11779       101  OSM       H14G           -4.7636007681        8.5095455140       -3.8575847271  MEMB      101             0.0000000000
     11780       101  OSM       C15F           -6.2410857893        7.0399329023       -3.7750248960  MEMB      101             0.0000000000
     11781       101  OSM       H15F           -5.5458142398        6.1910005807       -3.9470165031  MEMB      101             0.0000000000
     11782       101  OSM       H15G           -7.1317461800        6.7891975351       -4.2968177434  MEMB      101             0.0000000000
     11783       101  OSM       C16F           -7.1076233502        7.0087147969       -2.5086847445  MEMB      101             0.0000000000
     11784       101  OSM       H16F           -7.4763000185        5.9308041166       -2.3811233276  MEMB      101             0.0000000000
     11785       101  OSM       H16G           -7.8460117075        7.8165254390       -2.5939259572  MEMB      101             0.0000000000
     11786       101  OSM       C17F           -6.8714477945        7.6065022396       -1.2453448766  MEMB      101             0.0000000000
     11787       101  OSM       H17F           -7.5488325560        7.4990316659       -0.3494694278  MEMB      101             0.0000000000
     11788       101  OSM       H17G           -6.4432373035        8.6610923000       -1.4235624248  MEMB      101             0.0000000000
     11789       101  OSM       C18F           -6.0768158622        6.4200731624       -1.0859659066  MEMB      101             0.0000000000
     11790       101  OSM       H18F           -5.2927535778        6.2883405477       -1.8866355338  MEMB      101             0.0000000000
     11791       101  OSM       H18G           -5.8042281419        5.8149548179       -0.2259719488  MEMB      101             0.0000000000
     11792       101  OSM       H18H           -5.7585129148        7.2774096776       -0.5313486567  MEMB      101             0.0000000000
     11793       102  SAPS      N              -9.4306633917       -4.6621588935      -21.3773442203  MEMB      102             0.0000000000
     11794       102  SAPS      HN1           -10.2257881184       -5.0775431764      -21.8942974193  MEMB      102             0.0000000000
     11795       102  SAPS      HN2            -8.5673200001       -4.7686983628      -21.9342420362  MEMB      102             0.0000000000
     11796       102  SAPS      HN3            -9.3255840930       -5.1312306404      -20.4554857802  MEMB      102             0.0000000000
     11797       102  SAPS      C12            -9.7138098128       -3.1989276794      -21.1198098919  MEMB      102             0.0000000000
     11798       102  SAPS      H12A           -8.8019089497       -2.7174627607      -20.7935589373  MEMB      102             0.0000000000
     11799       102  SAPS      C13           -10.2174729605       -2.3917227419      -22.3135634692  MEMB      102             0.0000000000
     11800       102  SAPS      O13A          -10.3137739753       -2.9721926837      -23.4212292859  MEMB      102             0.0000000000
     11801       102  SAPS      O13B          -10.3718296494       -1.1579231785      -22.1546178043  MEMB      102             0.0000000000
     11802       102  SAPS      C11           -10.7971832063       -3.0533902545      -20.0216267628  MEMB      102             0.0000000000
     11803       102  SAPS      H11A          -11.7864184269       -3.3990895566      -20.3701057908  MEMB      102             0.0000000000
     11804       102  SAPS      H11B          -10.9426641412       -1.9642203588      -19.8138313312  MEMB      102             0.0000000000
     11805       102  SAPS      P              -9.4662599845       -3.0981679985      -17.8136779105  MEMB      102             0.0000000000
     11806       102  SAPS      O13            -9.4849783778       -1.6464560640      -17.9483793648  MEMB      102             0.0000000000
     11807       102  SAPS      O14            -9.7088075402       -3.6993397121      -16.4996128494  MEMB      102             0.0000000000
     11808       102  SAPS      O12           -10.4537539009       -3.7875006715      -18.8520617856  MEMB      102             0.0000000000
     11809       102  SAPS      O11            -8.1380838288       -3.5842141421      -18.4592574721  MEMB      102             0.0000000000
     11810       102  SAPS      C1             -7.9423176843       -4.9627638744      -18.5611517674  MEMB      102             0.0000000000
     11811       102  SAPS      HA             -8.8533961503       -5.6104292103      -18.5320231628  MEMB      102             0.0000000000
     11812       102  SAPS      HB             -7.4381271644       -5.2018522967      -19.5309388441  MEMB      102             0.0000000000
     11813       102  SAPS      C2             -7.0248423089       -5.3564713085      -17.4366704526  MEMB      102             0.0000000000
     11814       102  SAPS      HS             -6.6765040687       -6.3108866508      -17.6664714903  MEMB      102             0.0000000000
     11815       102  SAPS      O21            -7.4296686787       -5.1174585422      -16.0415610894  MEMB      102             0.0000000000
     11816       102  SAPS      C21            -8.3854373459       -5.7782279501      -15.3361722038  MEMB      102             0.0000000000
     11817       102  SAPS      O22            -9.2033326912       -6.5924438128      -15.7255753478  MEMB      102             0.0000000000
     11818       102  SAPS      C22            -8.2605142885       -5.5683827353      -13.8521901527  MEMB      102             0.0000000000
     11819       102  SAPS      H2R            -7.3698542410       -5.9912645567      -13.3621832302  MEMB      102             0.0000000000
     11820       102  SAPS      H2S            -8.1711902571       -4.4788086442      -13.7839519699  MEMB      102             0.0000000000
     11821       102  SAPS      C3             -5.6322866218       -4.7454936009      -17.6234132898  MEMB      102             0.0000000000
     11822       102  SAPS      HX             -5.3964366386       -4.6414395897      -18.6560124817  MEMB      102             0.0000000000
     11823       102  SAPS      HY             -4.8821408223       -5.3581292766      -17.1199302478  MEMB      102             0.0000000000
     11824       102  SAPS      O31            -5.4548224958       -3.4781090737      -17.3401923852  MEMB      102             0.0000000000
     11825       102  SAPS      C31            -5.0997835659       -3.3447726905      -16.1337990759  MEMB      102             0.0000000000
     11826       102  SAPS      O32            -4.2724121283       -3.9313309202      -15.4588702104  MEMB      102             0.0000000000
     11827       102  SAPS      C32            -5.6038122659       -2.0376985363      -15.9800381393  MEMB      102             0.0000000000
     11828       102  SAPS      H2X            -6.2291443518       -1.5988854004      -16.8012256488  MEMB      102             0.0000000000
     11829       102  SAPS      H2Y            -4.5614754503       -1.9195031129      -16.3486148492  MEMB      102             0.0000000000
     11830       102  SAPS      C23            -9.5268878143       -6.1954233540      -13.2385767972  MEMB      102             0.0000000000
     11831       102  SAPS      H3R            -9.4808427256       -7.3024242033      -13.0858201852  MEMB      102             0.0000000000
     11832       102  SAPS      H3S           -10.4214733213       -6.0327827861      -13.8962026934  MEMB      102             0.0000000000
     11833       102  SAPS      C24            -9.9140358225       -5.4504719144      -11.9889786759  MEMB      102             0.0000000000
     11834       102  SAPS      H4R           -10.8467063274       -5.9657863018      -11.7217814092  MEMB      102             0.0000000000
     11835       102  SAPS      H4S           -10.1335024274       -4.4095713830      -12.3265182879  MEMB      102             0.0000000000
     11836       102  SAPS      C25            -8.8731795787       -5.4483357239      -10.9086327487  MEMB      102             0.0000000000
     11837       102  SAPS      H5R            -7.9288958532       -4.9743556284      -11.2094885756  MEMB      102             0.0000000000
     11838       102  SAPS      C26            -8.9696736288       -5.9938758570       -9.6884920953  MEMB      102             0.0000000000
     11839       102  SAPS      H6R            -8.1597776576       -5.8232575164       -8.9653293983  MEMB      102             0.0000000000
     11840       102  SAPS      C27           -10.1432642902       -6.7324799695       -9.1206909909  MEMB      102             0.0000000000
     11841       102  SAPS      H7R            -9.9499288570       -7.8179661277       -9.1454198508  MEMB      102             0.0000000000
     11842       102  SAPS      H7S           -10.9984179555       -6.7511967807       -9.7991141351  MEMB      102             0.0000000000
     11843       102  SAPS      C28           -10.4834569552       -6.2374728417       -7.7215908570  MEMB      102             0.0000000000
     11844       102  SAPS      H8R           -10.5973482265       -7.0880150764       -7.0092003859  MEMB      102             0.0000000000
     11845       102  SAPS      C29           -10.8431954654       -4.9697848740       -7.2935926878  MEMB      102             0.0000000000
     11846       102  SAPS      H9R           -11.4487956388       -5.0592057070       -6.4019979892  MEMB      102             0.0000000000
     11847       102  SAPS      C210          -11.0537510723       -3.5909254237       -8.0586857321  MEMB      102             0.0000000000
     11848       102  SAPS      H10R          -10.8992866788       -4.0859700561       -9.0492286533  MEMB      102             0.0000000000
     11849       102  SAPS      H10S          -10.1870825353       -3.0691151142       -8.2719536142  MEMB      102             0.0000000000
     11850       102  SAPS      C211          -12.3170248643       -2.5189600763       -8.0927830082  MEMB      102             0.0000000000
     11851       102  SAPS      H11R          -13.3452602389       -2.7186726569       -8.4734966518  MEMB      102             0.0000000000
     11852       102  SAPS      C212          -12.5965296126       -1.3059919921       -7.9662337191  MEMB      102             0.0000000000
     11853       102  SAPS      H12R          -13.6232277708       -1.0880591639       -7.5465178527  MEMB      102             0.0000000000
     11854       102  SAPS      C213          -11.2836027385       -0.7977855450       -7.6904302543  MEMB      102             0.0000000000
     11855       102  SAPS      H13R          -10.6363868545       -1.0102374194       -8.5853443608  MEMB      102             0.0000000000
     11856       102  SAPS      H13S          -10.8281115046       -1.2785001379       -6.7811212747  MEMB      102             0.0000000000
     11857       102  SAPS      C214          -11.5243891997        0.6225736369       -7.5428032790  MEMB      102             0.0000000000
     11858       102  SAPS      H14R          -11.4983040150        1.1560956339       -8.4989991431  MEMB      102             0.0000000000
     11859       102  SAPS      C215          -12.0585716376        1.1638661274       -6.4601368213  MEMB      102             0.0000000000
     11860       102  SAPS      H15R          -11.8905127995        2.2291227196       -6.3850403540  MEMB      102             0.0000000000
     11861       102  SAPS      C216          -12.5234989623        0.4524976410       -5.2120859346  MEMB      102             0.0000000000
     11862       102  SAPS      H16R          -12.7998557915       -0.6093260857       -5.3754201329  MEMB      102             0.0000000000
     11863       102  SAPS      H16S          -13.3388017094        1.0558465210       -4.7621510109  MEMB      102             0.0000000000
     11864       102  SAPS      C217          -11.5458509491        0.3430981994       -4.1072001634  MEMB      102             0.0000000000
     11865       102  SAPS      H17R          -11.2136053185        1.3810040527       -4.1096828313  MEMB      102             0.0000000000
     11866       102  SAPS      H17S          -10.7879826562       -0.4697146254       -4.2886248424  MEMB      102             0.0000000000
     11867       102  SAPS      C218          -12.0401846547        0.1966329451       -2.7255247274  MEMB      102             0.0000000000
     11868       102  SAPS      H18R          -12.6271677628        1.0784528284       -2.4114181798  MEMB      102             0.0000000000
     11869       102  SAPS      H18S          -11.1300773642        0.1871365036       -2.1106048405  MEMB      102             0.0000000000
     11870       102  SAPS      C219          -12.7689971043       -1.1006775820       -2.7938769239  MEMB      102             0.0000000000
     11871       102  SAPS      H19R          -12.0218466473       -1.9039239581       -2.8024662123  MEMB      102             0.0000000000
     11872       102  SAPS      H19S          -13.4144496860       -1.2716864124       -3.6389299196  MEMB      102             0.0000000000
     11873       102  SAPS      C220          -13.6722363746       -1.3005513062       -1.7135961280  MEMB      102             0.0000000000
     11874       102  SAPS      H20R          -14.2242711452       -2.2376891697       -1.5425206737  MEMB      102             0.0000000000
     11875       102  SAPS      H20S          -14.1605481727       -0.4001593983       -1.2609826027  MEMB      102             0.0000000000
     11876       102  SAPS      H20T          -12.8069042221       -1.6363315641       -1.1337483060  MEMB      102             0.0000000000
     11877       102  SAPS      C33            -5.8529358311       -1.5232273134      -14.5691404024  MEMB      102             0.0000000000
     11878       102  SAPS      H3X            -5.7248649275       -0.4414736904      -14.3425474571  MEMB      102             0.0000000000
     11879       102  SAPS      H3Y            -5.1153539801       -1.9597035654      -13.8795193416  MEMB      102             0.0000000000
     11880       102  SAPS      C34            -7.3167123085       -1.5934226304      -14.4020120903  MEMB      102             0.0000000000
     11881       102  SAPS      H4X            -7.5242296559       -2.6699786271      -14.5456734382  MEMB      102             0.0000000000
     11882       102  SAPS      H4Y            -7.8092591487       -1.0081802528      -15.2244346259  MEMB      102             0.0000000000
     11883       102  SAPS      C35            -7.7641903174       -1.0537694384      -13.0644426624  MEMB      102             0.0000000000
     11884       102  SAPS      H5X            -8.7949407588       -1.4544269945      -12.9819123037  MEMB      102             0.0000000000
     11885       102  SAPS      H5Y            -7.8040104451        0.0622249226      -13.0371303252  MEMB      102             0.0000000000
     11886       102  SAPS      C36            -6.8927876624       -1.5542050823      -11.9139368654  MEMB      102             0.0000000000
     11887       102  SAPS      H6X            -5.9771863886       -0.9197664318      -11.8360781319  MEMB      102             0.0000000000
     11888       102  SAPS      H6Y            -6.5906184902       -2.5993285650      -12.1507062669  MEMB      102             0.0000000000
     11889       102  SAPS      C37            -7.7112588106       -1.5916407754      -10.6289199953  MEMB      102             0.0000000000
     11890       102  SAPS      H7X            -8.5819829217       -2.2633035494      -10.8170575050  MEMB      102             0.0000000000
     11891       102  SAPS      H7Y            -8.1170643995       -0.5712004099      -10.4397326910  MEMB      102             0.0000000000
     11892       102  SAPS      C38            -6.9272444015       -2.0738996405       -9.4035697204  MEMB      102             0.0000000000
     11893       102  SAPS      H8X            -6.1822019232       -1.2944830483       -9.1639394273  MEMB      102             0.0000000000
     11894       102  SAPS      H8Y            -6.4227801680       -3.0496288733       -9.5974740971  MEMB      102             0.0000000000
     11895       102  SAPS      C39            -7.8515508723       -2.2698642116       -8.2109748567  MEMB      102             0.0000000000
     11896       102  SAPS      H9X            -8.4938135892       -3.0602281947       -8.6077597480  MEMB      102             0.0000000000
     11897       102  SAPS      H9Y            -8.4329784391       -1.3422909239       -8.0183364797  MEMB      102             0.0000000000
     11898       102  SAPS      C310           -7.2243972637       -2.8287496495       -6.9427941752  MEMB      102             0.0000000000
     11899       102  SAPS      H10X           -6.2796320104       -2.2989427974       -6.7075048927  MEMB      102             0.0000000000
     11900       102  SAPS      H10Y           -7.0015144106       -3.9171648636       -7.0404631203  MEMB      102             0.0000000000
     11901       102  SAPS      C311           -8.0600452966       -2.6564260756       -5.7015694585  MEMB      102             0.0000000000
     11902       102  SAPS      H11X           -9.0451081209       -3.1824892873       -5.7603203066  MEMB      102             0.0000000000
     11903       102  SAPS      H11Y           -8.3320389823       -1.6169754182       -5.4859741040  MEMB      102             0.0000000000
     11904       102  SAPS      C312           -7.1699175524       -3.0734453150       -4.5257035231  MEMB      102             0.0000000000
     11905       102  SAPS      H12X           -6.0969507532       -2.9332357089       -4.6675343873  MEMB      102             0.0000000000
     11906       102  SAPS      H12Y           -7.3852537371       -4.1716025645       -4.4296219967  MEMB      102             0.0000000000
     11907       102  SAPS      C313           -7.2347674643       -2.1200713496       -3.2779081049  MEMB      102             0.0000000000
     11908       102  SAPS      H13X           -7.8320274851       -1.1933285050       -3.3073298448  MEMB      102             0.0000000000
     11909       102  SAPS      H13Y           -6.6245904788       -2.4542794743       -2.3922800269  MEMB      102             0.0000000000
     11910       102  SAPS      C314           -8.5364653922       -2.4257089692       -2.7712749383  MEMB      102             0.0000000000
     11911       102  SAPS      H14X           -8.0994587542       -3.5400851891       -2.7449597082  MEMB      102             0.0000000000
     11912       102  SAPS      H14Y           -9.1353078553       -2.5893248473       -3.6792529511  MEMB      102             0.0000000000
     11913       102  SAPS      C315           -9.6700323485       -1.9284907843       -1.3357952756  MEMB      102             0.0000000000
     11914       102  SAPS      H15X          -10.2553860273       -1.2359447618       -1.1506581387  MEMB      102             0.0000000000
     11915       102  SAPS      H15Y           -8.5287236885       -1.7703311252       -0.8622680570  MEMB      102             0.0000000000
     11916       102  SAPS      C316          -11.0824048160       -3.5614779776       -0.1325812620  MEMB      102             0.0000000000
     11917       102  SAPS      H16X          -11.9120950282       -3.9871558009       -0.6106919118  MEMB      102             0.0000000000
     11918       102  SAPS      H16Y          -11.2964630897       -3.6185168865        0.9308451615  MEMB      102             0.0000000000
     11919       102  SAPS      C317          -10.3188667550       -5.1025157149        0.5436152050  MEMB      102             0.0000000000
     11920       102  SAPS      H17X           -9.4291985030       -4.8758503643        1.1133866051  MEMB      102             0.0000000000
     11921       102  SAPS      H17Y           -9.7203818959       -5.8432453306       -0.0453305329  MEMB      102             0.0000000000
     11922       102  SAPS      C318          -10.7489758840       -6.1910977822        0.9475684379  MEMB      102             0.0000000000
     11923       102  SAPS      H18X          -11.6226358602       -6.3758705249        0.3326383583  MEMB      102             0.0000000000
     11924       102  SAPS      H18Y          -10.9853636773       -5.5794738437        1.8293548871  MEMB      102             0.0000000000
     11925       102  SAPS      H18Z          -10.0817845835       -7.0326112685        1.3634479470  MEMB      102             0.0000000000
     11926       103  POPC      N              11.8753491047        2.4961454549      -20.4995466881  MEMB      103             0.0000000000
     11927       103  POPC      C12            10.6477796990        1.6754421410      -20.1188842412  MEMB      103             0.0000000000
     11928       103  POPC      H12A           10.8403755275        1.0843048617      -19.2200050230  MEMB      103             0.0000000000
     11929       103  POPC      H12B           10.4544885294        0.9966592503      -20.9425739224  MEMB      103             0.0000000000
     11930       103  POPC      C13            12.1101676364        3.4527532088      -19.3832234650  MEMB      103             0.0000000000
     11931       103  POPC      H13A           11.2356407280        4.0918749476      -19.2397982090  MEMB      103             0.0000000000
     11932       103  POPC      H13B           12.1937573198        2.8944632317      -18.4518852143  MEMB      103             0.0000000000
     11933       103  POPC      H13C           13.0049830988        4.0241825388      -19.5556801864  MEMB      103             0.0000000000
     11934       103  POPC      C14            13.0837756035        1.6371896932      -20.6955901150  MEMB      103             0.0000000000
     11935       103  POPC      H14A           13.9322266875        2.2608910446      -20.9586462071  MEMB      103             0.0000000000
     11936       103  POPC      H14B           13.3374746960        1.1250088147      -19.7754344813  MEMB      103             0.0000000000
     11937       103  POPC      H14C           12.9319837516        0.8912408283      -21.4670281478  MEMB      103             0.0000000000
     11938       103  POPC      C15            11.6161404323        3.2315572890      -21.7690944378  MEMB      103             0.0000000000
     11939       103  POPC      H15A           11.8335838898        2.6036611212      -22.6337854219  MEMB      103             0.0000000000
     11940       103  POPC      H15B           12.2191384165        4.1170052099      -21.7970738079  MEMB      103             0.0000000000
     11941       103  POPC      H15C           10.5607592702        3.5043619656      -21.8709556325  MEMB      103             0.0000000000
     11942       103  POPC      C11             9.3204002143        2.4574307041      -19.8432369228  MEMB      103             0.0000000000
     11943       103  POPC      H11A            8.4947725981        1.7982303024      -20.1974670782  MEMB      103             0.0000000000
     11944       103  POPC      H11B            9.2781950685        3.3773688164      -20.4610229658  MEMB      103             0.0000000000
     11945       103  POPC      P               8.5607865791        1.9033629043      -17.3659581410  MEMB      103             0.0000000000
     11946       103  POPC      O13             9.4084486365        0.6983450490      -17.4655711457  MEMB      103             0.0000000000
     11947       103  POPC      O14             7.1077132621        1.6883139088      -17.5074520342  MEMB      103             0.0000000000
     11948       103  POPC      O12             9.1337732713        2.8706511523      -18.4871086023  MEMB      103             0.0000000000
     11949       103  POPC      O11             8.8460285280        2.6935482990      -16.0259742832  MEMB      103             0.0000000000
     11950       103  POPC      C1             10.1849114614        3.0470018943      -15.6972290654  MEMB      103             0.0000000000
     11951       103  POPC      HA             10.1262714920        3.8625433853      -14.9407823780  MEMB      103             0.0000000000
     11952       103  POPC      HB             10.7590829694        3.4093452953      -16.5699662583  MEMB      103             0.0000000000
     11953       103  POPC      C2             10.9315955928        1.8505073395      -15.0924990276  MEMB      103             0.0000000000
     11954       103  POPC      HS             11.0095092662        1.0310392013      -15.8396169886  MEMB      103             0.0000000000
     11955       103  POPC      O21            10.1410327589        1.4549626213      -14.0496415351  MEMB      103             0.0000000000
     11956       103  POPC      C21            10.4765626982        0.3662690986      -13.5730349832  MEMB      103             0.0000000000
     11957       103  POPC      O22            11.1959281438       -0.5336463498      -13.9996175225  MEMB      103             0.0000000000
     11958       103  POPC      C22             9.5301053599        0.3649449951      -12.4416524808  MEMB      103             0.0000000000
     11959       103  POPC      H2R             9.4926136234       -0.6289703585      -12.8816917995  MEMB      103             0.0000000000
     11960       103  POPC      H2S             8.5800257348        0.9196182339      -12.5765086781  MEMB      103             0.0000000000
     11961       103  POPC      C3             12.2885381525        2.1699449025      -14.5145000060  MEMB      103             0.0000000000
     11962       103  POPC      HX             12.8221391450        2.5345216532      -15.3684153479  MEMB      103             0.0000000000
     11963       103  POPC      HY             12.9240053284        1.3401093590      -14.1448635112  MEMB      103             0.0000000000
     11964       103  POPC      O31            12.0819729070        3.1610842359      -13.5032485738  MEMB      103             0.0000000000
     11965       103  POPC      C31            12.0302881813        2.5596332299      -12.2642273151  MEMB      103             0.0000000000
     11966       103  POPC      O32            12.3651500672        1.4496404502      -11.9862778028  MEMB      103             0.0000000000
     11967       103  POPC      C32            11.6489217564        3.5280620753      -11.2504394735  MEMB      103             0.0000000000
     11968       103  POPC      H2X            10.7315274299        3.9039876181      -11.7462099944  MEMB      103             0.0000000000
     11969       103  POPC      H2Y            12.3458552388        4.3125677153      -11.4774485771  MEMB      103             0.0000000000
     11970       103  POPC      C23             9.9322077360        0.4561149915      -10.9890133886  MEMB      103             0.0000000000
     11971       103  POPC      H3R            10.0977597947        1.5232058476      -10.8198705779  MEMB      103             0.0000000000
     11972       103  POPC      H3S            10.8393030600       -0.1951772364      -10.9299510660  MEMB      103             0.0000000000
     11973       103  POPC      C24             8.9216285899        0.0595221251       -9.9117343988  MEMB      103             0.0000000000
     11974       103  POPC      H4R             8.3120513171       -0.6547415224      -10.3866765309  MEMB      103             0.0000000000
     11975       103  POPC      H4S             8.0001527812        0.6156162243       -9.7041822690  MEMB      103             0.0000000000
     11976       103  POPC      C25             9.6802073365       -0.5186833847       -8.7150436685  MEMB      103             0.0000000000
     11977       103  POPC      H5R            10.5335673429       -1.1607617407       -9.0622824949  MEMB      103             0.0000000000
     11978       103  POPC      H5S             9.0625189087       -1.1596431505       -8.0371327627  MEMB      103             0.0000000000
     11979       103  POPC      C26            10.1354980239        0.4990332446       -7.8489444244  MEMB      103             0.0000000000
     11980       103  POPC      H6R            10.7580024871        1.1138027570       -8.5326542197  MEMB      103             0.0000000000
     11981       103  POPC      H6S            10.7091297602       -0.0660486966       -7.0741755326  MEMB      103             0.0000000000
     11982       103  POPC      C27             8.8863353095        1.1349947114       -7.2785896603  MEMB      103             0.0000000000
     11983       103  POPC      H7R             8.2919662517        0.3635522436       -6.7495478375  MEMB      103             0.0000000000
     11984       103  POPC      H7S             8.2375889691        1.6021752076       -8.0485520138  MEMB      103             0.0000000000
     11985       103  POPC      C28             9.4081560278        2.1291123204       -6.3020540681  MEMB      103             0.0000000000
     11986       103  POPC      H8R            10.2047107733        2.5254827550       -6.8942890829  MEMB      103             0.0000000000
     11987       103  POPC      H8S             9.9137608059        1.5531261200       -5.4998228626  MEMB      103             0.0000000000
     11988       103  POPC      C29             8.4425040050        3.1614890701       -5.8046394206  MEMB      103             0.0000000000
     11989       103  POPC      H91             8.4191861953        4.1402500120       -6.2515893427  MEMB      103             0.0000000000
     11990       103  POPC      C210            7.5829642277        2.9086528598       -4.8533176457  MEMB      103             0.0000000000
     11991       103  POPC      H101            6.7730801504        3.5436221192       -4.4843060347  MEMB      103             0.0000000000
     11992       103  POPC      C211            7.5789105097        1.6086052834       -4.2944172709  MEMB      103             0.0000000000
     11993       103  POPC      H11R            8.1102895898        0.8215141430       -4.8316996881  MEMB      103             0.0000000000
     11994       103  POPC      H11S            6.5709803363        1.3008053527       -4.5599755794  MEMB      103             0.0000000000
     11995       103  POPC      C212            7.8138665053        1.7120494537       -2.8037599291  MEMB      103             0.0000000000
     11996       103  POPC      H12R            7.7367671275        0.6193402520       -2.5569538095  MEMB      103             0.0000000000
     11997       103  POPC      H12S            7.1598062274        2.4179324904       -2.2982728880  MEMB      103             0.0000000000
     11998       103  POPC      C213            8.9354299128        2.1157841832       -1.9668433907  MEMB      103             0.0000000000
     11999       103  POPC      H13R            8.8624918085        1.9851207489       -0.8478934945  MEMB      103             0.0000000000
     12000       103  POPC      H13S            9.4012532291        3.0181919288       -2.3838895330  MEMB      103             0.0000000000
     12001       103  POPC      C214            9.6914295659        1.0750221862       -2.3966065729  MEMB      103             0.0000000000
     12002       103  POPC      H14R           10.6549810566        1.5198237671       -2.6577219744  MEMB      103             0.0000000000
     12003       103  POPC      H14S            9.7169522391        1.1938369111       -3.4738902666  MEMB      103             0.0000000000
     12004       103  POPC      C215            9.3789098712       -0.3563068321       -1.6068035814  MEMB      103             0.0000000000
     12005       103  POPC      H15R            9.9270264819        0.2972132895       -1.0253766267  MEMB      103             0.0000000000
     12006       103  POPC      H15S            9.8935956017       -1.3878533660       -1.8712001043  MEMB      103             0.0000000000
     12007       103  POPC      C216            8.6215874986       -1.7088154502       -1.3883255347  MEMB      103             0.0000000000
     12008       103  POPC      H16R            7.7766717174       -1.3005457682       -1.1024824594  MEMB      103             0.0000000000
     12009       103  POPC      H16S            9.1017700273       -2.2515991830       -0.5748327512  MEMB      103             0.0000000000
     12010       103  POPC      C217            8.7074791677       -3.1330895194       -2.0079827312  MEMB      103             0.0000000000
     12011       103  POPC      H17R            8.5202592225       -2.9871175227       -2.9921671409  MEMB      103             0.0000000000
     12012       103  POPC      H17S            7.7237327947       -3.5587287930       -1.7937273257  MEMB      103             0.0000000000
     12013       103  POPC      C218            9.9804840824       -4.0554902640       -1.9939654381  MEMB      103             0.0000000000
     12014       103  POPC      H18R           10.9358429121       -3.5730775027       -2.3189777343  MEMB      103             0.0000000000
     12015       103  POPC      H18S            9.8486199008       -4.8882625022       -2.7187302797  MEMB      103             0.0000000000
     12016       103  POPC      H18T           10.2087061170       -4.4476598264       -1.0079762044  MEMB      103             0.0000000000
     12017       103  POPC      C33            11.5669906912        3.4139052378       -9.6197489059  MEMB      103             0.0000000000
     12018       103  POPC      H3X            12.4340553604        3.0546992161       -9.1177639868  MEMB      103             0.0000000000
     12019       103  POPC      H3Y            10.5955780284        3.0340261732       -9.5050401325  MEMB      103             0.0000000000
     12020       103  POPC      C34            11.9006939791        4.5606117765       -8.9021217743  MEMB      103             0.0000000000
     12021       103  POPC      H4X            10.6647388727        5.3718644159       -8.3848456349  MEMB      103             0.0000000000
     12022       103  POPC      H4Y            13.4641316530        5.7539875940      -10.2281928419  MEMB      103             0.0000000000
     12023       103  POPC      C35            11.7931094279        4.6474158663       -7.2242944659  MEMB      103             0.0000000000
     12024       103  POPC      H5X            12.7724747872        4.2973859865       -6.9117670298  MEMB      103             0.0000000000
     12025       103  POPC      H5Y            10.9637201015        4.0534613081       -6.7999722286  MEMB      103             0.0000000000
     12026       103  POPC      C36            11.6277572668        5.9395677399       -6.3970355288  MEMB      103             0.0000000000
     12027       103  POPC      H6X            10.9272135808        6.6630405079       -6.6827358363  MEMB      103             0.0000000000
     12028       103  POPC      H6Y            11.9500647554        6.9106522095       -6.6543426016  MEMB      103             0.0000000000
     12029       103  POPC      C37            12.6332296211        5.7823445225       -5.3538312887  MEMB      103             0.0000000000
     12030       103  POPC      H7X            12.5372717450        6.7394773742       -5.1169084566  MEMB      103             0.0000000000
     12031       103  POPC      H7Y            13.6993243759        6.0308528502       -5.3657642195  MEMB      103             0.0000000000
     12032       103  POPC      C38            12.0041474720        4.8192260086       -4.4348679481  MEMB      103             0.0000000000
     12033       103  POPC      H8X            12.7285547150        4.0520325080       -4.7268612906  MEMB      103             0.0000000000
     12034       103  POPC      H8Y            10.9442136637        4.6702165128       -4.7843205675  MEMB      103             0.0000000000
     12035       103  POPC      C39            11.9170044366        5.0229527408       -2.9473461318  MEMB      103             0.0000000000
     12036       103  POPC      H9X            11.0468251500        5.6609634309       -2.6398116700  MEMB      103             0.0000000000
     12037       103  POPC      H9Y            12.8314614623        5.4976323165       -2.4973371535  MEMB      103             0.0000000000
     12038       103  POPC      C310           12.2032243126        3.8163904670       -2.2744794476  MEMB      103             0.0000000000
     12039       103  POPC      H10X           13.3117846263        3.6549462724       -2.3593550994  MEMB      103             0.0000000000
     12040       103  POPC      H10Y           11.6396752535        3.0928305887       -2.8634062174  MEMB      103             0.0000000000
     12041       103  POPC      C311           11.8397264341        3.9732041366       -0.8510075151  MEMB      103             0.0000000000
     12042       103  POPC      H11X           10.8246242907        4.4006849294       -0.6769200668  MEMB      103             0.0000000000
     12043       103  POPC      H11Y           12.6093006023        4.5834111745       -0.3244528125  MEMB      103             0.0000000000
     12044       103  POPC      C312           12.0132546134        2.6466189809       -0.2843007866  MEMB      103             0.0000000000
     12045       103  POPC      H12X           12.8699391587        2.1432024972       -0.8004953345  MEMB      103             0.0000000000
     12046       103  POPC      H12Y           11.0847458724        2.0724371788       -0.4512716740  MEMB      103             0.0000000000
     12047       103  POPC      C313           12.3408865985        2.8171987116        1.1620091029  MEMB      103             0.0000000000
     12048       103  POPC      H13X           13.3963071858        3.0413984876        1.3678358828  MEMB      103             0.0000000000
     12049       103  POPC      H13Y           12.3648697999        1.7548134359        1.3958651841  MEMB      103             0.0000000000
     12050       103  POPC      C314           11.5084228540        3.8726968432        1.9701845349  MEMB      103             0.0000000000
     12051       103  POPC      H14X           11.7082888250        4.9032328694        1.7014147058  MEMB      103             0.0000000000
     12052       103  POPC      H14Y           11.7596531112        3.8798668227        3.0514123074  MEMB      103             0.0000000000
     12053       103  POPC      C315           10.0309143643        3.8236252306        1.8754976140  MEMB      103             0.0000000000
     12054       103  POPC      H15X            9.5425225567        4.0176149364        0.8796086181  MEMB      103             0.0000000000
     12055       103  POPC      H15Y            9.5099356026        4.3322857074        2.7548207409  MEMB      103             0.0000000000
     12056       103  POPC      C316            9.6225126977        2.4913387737        2.0597521399  MEMB      103             0.0000000000
     12057       103  POPC      H16X            8.6346387924        2.8366706668        1.9694935890  MEMB      103             0.0000000000
     12058       103  POPC      H16Y            9.4419552148        2.1485374547        3.0900862237  MEMB      103             0.0000000000
     12059       103  POPC      H16Z            9.9003507465        1.6293960573        1.4624243424  MEMB      103             0.0000000000
     12060       104  SAPE      N              -8.9835117595        7.9140634150      -18.6130899382  MEMB      104             0.0000000000
     12061       104  SAPE      HN1            -9.3333366092        8.8857992649      -18.6744414430  MEMB      104             0.0000000000
     12062       104  SAPE      HN2            -8.2256661247        7.8279462163      -17.9133263511  MEMB      104             0.0000000000
     12063       104  SAPE      HN3            -8.6299323626        7.5790534247      -19.5395539608  MEMB      104             0.0000000000
     12064       104  SAPE      C12           -10.1027180292        6.9729235747      -18.2600045603  MEMB      104             0.0000000000
     12065       104  SAPE      H12A          -10.7848998386        7.4923647813      -17.5551093323  MEMB      104             0.0000000000
     12066       104  SAPE      H12B           -9.6374254228        6.0951407643      -17.7710763500  MEMB      104             0.0000000000
     12067       104  SAPE      C11           -10.8770200990        6.5419870053      -19.5160884962  MEMB      104             0.0000000000
     12068       104  SAPE      H11A          -11.4203148436        7.4412722935      -19.8611581794  MEMB      104             0.0000000000
     12069       104  SAPE      H11B          -11.6702509678        5.7849290823      -19.3035422092  MEMB      104             0.0000000000
     12070       104  SAPE      P              -9.6163150829        4.6005702733      -20.8028636175  MEMB      104             0.0000000000
     12071       104  SAPE      O13           -10.5451774081        4.0452034108      -21.8004014017  MEMB      104             0.0000000000
     12072       104  SAPE      O14            -8.1903103438        4.6397208009      -21.0989233672  MEMB      104             0.0000000000
     12073       104  SAPE      O12            -9.9964743645        6.1216899189      -20.5523025790  MEMB      104             0.0000000000
     12074       104  SAPE      O11            -9.8814198322        3.9910578806      -19.3756228529  MEMB      104             0.0000000000
     12075       104  SAPE      C1             -9.1802584785        2.7631724766      -19.0813397514  MEMB      104             0.0000000000
     12076       104  SAPE      HA             -8.8850391557        2.1620415044      -19.9768890611  MEMB      104             0.0000000000
     12077       104  SAPE      HB             -8.2297269437        3.0311994633      -18.5735047011  MEMB      104             0.0000000000
     12078       104  SAPE      C2             -9.9858494617        1.8010774656      -18.1721739201  MEMB      104             0.0000000000
     12079       104  SAPE      HS            -10.5394222087        1.0596333255      -18.7892022941  MEMB      104             0.0000000000
     12080       104  SAPE      O21           -10.8706673015        2.5789553213      -17.4119454642  MEMB      104             0.0000000000
     12081       104  SAPE      C21           -12.0410863568        2.1445261622      -17.2896417392  MEMB      104             0.0000000000
     12082       104  SAPE      O22           -12.4898174559        1.0192093432      -17.4561419434  MEMB      104             0.0000000000
     12083       104  SAPE      C22           -12.7636065257        3.2815191405      -16.7321390905  MEMB      104             0.0000000000
     12084       104  SAPE      H2R           -13.6418341504        3.6225925151      -17.3313443774  MEMB      104             0.0000000000
     12085       104  SAPE      H2S           -12.9125498598        2.7527792305      -15.7680733654  MEMB      104             0.0000000000
     12086       104  SAPE      C3             -9.0562153520        1.0310096869      -17.2342560230  MEMB      104             0.0000000000
     12087       104  SAPE      HX             -8.3997094786        0.4481053564      -17.9139438157  MEMB      104             0.0000000000
     12088       104  SAPE      HY             -9.6599047276        0.3276631843      -16.6086723936  MEMB      104             0.0000000000
     12089       104  SAPE      O31            -8.2350512608        1.9316335456      -16.4796306599  MEMB      104             0.0000000000
     12090       104  SAPE      C31            -8.7027029800        2.2654124697      -15.3030130340  MEMB      104             0.0000000000
     12091       104  SAPE      O32            -9.6842413028        1.8132295045      -14.7399704117  MEMB      104             0.0000000000
     12092       104  SAPE      C32            -7.8816843166        3.3926962970      -14.7782975056  MEMB      104             0.0000000000
     12093       104  SAPE      H2X            -7.8949008019        4.1663080351      -15.5779635544  MEMB      104             0.0000000000
     12094       104  SAPE      H2Y            -6.8286421077        3.1295625741      -14.6195089115  MEMB      104             0.0000000000
     12095       104  SAPE      C23           -12.0084495521        4.4524054905      -16.2100834378  MEMB      104             0.0000000000
     12096       104  SAPE      H3R           -11.5285633141        4.9055264885      -17.0826566110  MEMB      104             0.0000000000
     12097       104  SAPE      H3S           -11.3779759451        4.0867142571      -15.3569850516  MEMB      104             0.0000000000
     12098       104  SAPE      C24           -12.9305171850        5.4850297506      -15.8034588555  MEMB      104             0.0000000000
     12099       104  SAPE      H4R           -13.9096291240        5.2584327318      -16.3110886230  MEMB      104             0.0000000000
     12100       104  SAPE      H4S           -12.6610870978        6.5162851546      -16.0838137230  MEMB      104             0.0000000000
     12101       104  SAPE      C25           -13.0813324217        5.3315584011      -14.3574999983  MEMB      104             0.0000000000
     12102       104  SAPE      H5R           -14.0786802640        4.9129427397      -14.2738240465  MEMB      104             0.0000000000
     12103       104  SAPE      C26           -12.7162022668        6.1245256159      -13.3722728785  MEMB      104             0.0000000000
     12104       104  SAPE      H6R           -13.5864194225        6.1217654530      -12.6865919008  MEMB      104             0.0000000000
     12105       104  SAPE      C27           -11.9860383679        7.4812971016      -13.4351773059  MEMB      104             0.0000000000
     12106       104  SAPE      H7R           -12.1978404534        8.3268935648      -12.7389836452  MEMB      104             0.0000000000
     12107       104  SAPE      H7S           -12.1859593503        8.0364512553      -14.3821110585  MEMB      104             0.0000000000
     12108       104  SAPE      C28           -10.6513898124        7.2306932808      -12.9213966318  MEMB      104             0.0000000000
     12109       104  SAPE      H8R           -10.0451669219        7.1554388691      -13.7867469694  MEMB      104             0.0000000000
     12110       104  SAPE      C29           -10.1227160328        7.2133780620      -11.6693482161  MEMB      104             0.0000000000
     12111       104  SAPE      H9R            -9.1195606768        6.8637079280      -11.5515601875  MEMB      104             0.0000000000
     12112       104  SAPE      C210          -10.6638837977        7.4358405980      -10.3032185863  MEMB      104             0.0000000000
     12113       104  SAPE      H10R          -11.5564512958        7.9133385718      -10.6091935249  MEMB      104             0.0000000000
     12114       104  SAPE      H10S          -10.4524468754        8.3463565994       -9.7182730205  MEMB      104             0.0000000000
     12115       104  SAPE      C211          -10.6951207126        6.1367325632       -9.4911233256  MEMB      104             0.0000000000
     12116       104  SAPE      H11R          -11.1615545262        5.2784622538      -10.0114866044  MEMB      104             0.0000000000
     12117       104  SAPE      C212          -10.5603366965        6.0330526461       -8.1434965697  MEMB      104             0.0000000000
     12118       104  SAPE      H12R          -10.5598022734        5.0235268023       -7.6907655012  MEMB      104             0.0000000000
     12119       104  SAPE      C213          -10.3475847870        7.2358128911       -7.2315573716  MEMB      104             0.0000000000
     12120       104  SAPE      H13R          -10.1700689967        7.5409854545       -6.1793129965  MEMB      104             0.0000000000
     12121       104  SAPE      H13S          -10.4474286479        8.2031010633       -7.7441775857  MEMB      104             0.0000000000
     12122       104  SAPE      C214           -8.9847683877        6.7820184165       -7.0137013997  MEMB      104             0.0000000000
     12123       104  SAPE      H14R           -8.4943160622        7.4953454883       -7.5611949741  MEMB      104             0.0000000000
     12124       104  SAPE      C215           -8.3007049736        6.0423872377       -6.1321570326  MEMB      104             0.0000000000
     12125       104  SAPE      H15R           -7.2235554815        6.2943451812       -6.0415260567  MEMB      104             0.0000000000
     12126       104  SAPE      C216           -8.9401082056        5.3995912423       -4.9614010389  MEMB      104             0.0000000000
     12127       104  SAPE      H16R           -8.2073364804        4.6791545706       -4.5288503851  MEMB      104             0.0000000000
     12128       104  SAPE      H16S           -9.7999571464        4.8694984219       -5.3883859852  MEMB      104             0.0000000000
     12129       104  SAPE      C217           -9.5594860431        6.1525472819       -3.7856466034  MEMB      104             0.0000000000
     12130       104  SAPE      H17R          -10.3979269896        6.8238336994       -3.9381132233  MEMB      104             0.0000000000
     12131       104  SAPE      H17S           -9.0729576462        6.8692046486       -3.2842467393  MEMB      104             0.0000000000
     12132       104  SAPE      C218           -9.6305780776        5.2215473074       -2.6321197776  MEMB      104             0.0000000000
     12133       104  SAPE      H18R           -9.1145750875        4.2733837912       -2.4508002103  MEMB      104             0.0000000000
     12134       104  SAPE      H18S          -10.2670174165        4.7280469413       -3.3564984237  MEMB      104             0.0000000000
     12135       104  SAPE      C219           -9.9964529789        5.8831201067       -1.3051180667  MEMB      104             0.0000000000
     12136       104  SAPE      H19R          -10.9697127872        6.4084609518       -1.0850566086  MEMB      104             0.0000000000
     12137       104  SAPE      H19S           -9.1730723976        6.3642441593       -0.7854564678  MEMB      104             0.0000000000
     12138       104  SAPE      C220          -10.1492194530        4.7460358480       -0.4999631065  MEMB      104             0.0000000000
     12139       104  SAPE      H20R          -10.8261022204        4.1505317629       -0.9697955033  MEMB      104             0.0000000000
     12140       104  SAPE      H20S          -10.8014323663        4.8875859620        0.3539917660  MEMB      104             0.0000000000
     12141       104  SAPE      H20T           -9.2513200461        4.1490589177       -0.3635817763  MEMB      104             0.0000000000
     12142       104  SAPE      C33            -8.4045271905        3.9067564597      -13.4299894069  MEMB      104             0.0000000000
     12143       104  SAPE      H3X            -9.4244941754        3.5601443346      -13.2090123379  MEMB      104             0.0000000000
     12144       104  SAPE      H3Y            -8.6020257596        4.9662804682      -13.5115916825  MEMB      104             0.0000000000
     12145       104  SAPE      C34            -7.4529286194        3.6590617534      -12.2517709553  MEMB      104             0.0000000000
     12146       104  SAPE      H4X            -6.5229385027        4.2725844371      -12.2991593262  MEMB      104             0.0000000000
     12147       104  SAPE      H4Y            -7.1598228446        2.5852167590      -12.3027555669  MEMB      104             0.0000000000
     12148       104  SAPE      C35            -8.1640342445        3.9093295261      -10.9198995998  MEMB      104             0.0000000000
     12149       104  SAPE      H5X            -9.2528921814        3.7590832763      -11.1031362861  MEMB      104             0.0000000000
     12150       104  SAPE      H5Y            -8.0377987363        4.9694146840      -10.6012098174  MEMB      104             0.0000000000
     12151       104  SAPE      C36            -7.7069721753        2.8883494571       -9.8642411332  MEMB      104             0.0000000000
     12152       104  SAPE      H6X            -6.6712544253        3.1342782400       -9.5493463747  MEMB      104             0.0000000000
     12153       104  SAPE      H6Y            -7.6805367087        1.8835918659      -10.3473542868  MEMB      104             0.0000000000
     12154       104  SAPE      C37            -8.6540532140        2.8044336405       -8.6595492683  MEMB      104             0.0000000000
     12155       104  SAPE      H7X            -9.6855708874        2.6856328980       -9.0630823828  MEMB      104             0.0000000000
     12156       104  SAPE      H7Y            -8.6112785050        3.7697143334       -8.1123140992  MEMB      104             0.0000000000
     12157       104  SAPE      C38            -8.3983177525        1.6562564275       -7.6591102957  MEMB      104             0.0000000000
     12158       104  SAPE      H8X            -7.3664157263        1.2560680100       -7.7258220006  MEMB      104             0.0000000000
     12159       104  SAPE      H8Y            -9.0459157865        0.8038871150       -7.9568794691  MEMB      104             0.0000000000
     12160       104  SAPE      C39            -8.7117487578        2.0769259733       -6.2038874181  MEMB      104             0.0000000000
     12161       104  SAPE      H9X            -9.6710246636        2.6431778715       -6.1939640670  MEMB      104             0.0000000000
     12162       104  SAPE      H9Y            -7.9251866304        2.7157945289       -5.7654284782  MEMB      104             0.0000000000
     12163       104  SAPE      C310           -8.8344332269        0.9084398549       -5.2434642807  MEMB      104             0.0000000000
     12164       104  SAPE      H10X           -7.9916990218        0.2184719464       -5.3303265346  MEMB      104             0.0000000000
     12165       104  SAPE      H10Y           -9.6954483519        0.3319784576       -5.6460582263  MEMB      104             0.0000000000
     12166       104  SAPE      C311           -8.9807470773        1.2917814423       -3.7475621543  MEMB      104             0.0000000000
     12167       104  SAPE      H11X           -9.3169644015        0.3506837791       -3.2466873604  MEMB      104             0.0000000000
     12168       104  SAPE      H11Y           -9.6764336202        2.1536779681       -3.6214907031  MEMB      104             0.0000000000
     12169       104  SAPE      C312           -7.8168351159        1.7383002123       -2.9268773248  MEMB      104             0.0000000000
     12170       104  SAPE      H12X           -7.5921459894        2.7734790590       -3.2504431010  MEMB      104             0.0000000000
     12171       104  SAPE      H12Y           -7.0425052240        0.9857797021       -3.1666990951  MEMB      104             0.0000000000
     12172       104  SAPE      C313           -8.0731212892        1.8286620993       -1.4118021397  MEMB      104             0.0000000000
     12173       104  SAPE      H13X           -8.9016804631        2.5107671858       -1.1784861668  MEMB      104             0.0000000000
     12174       104  SAPE      H13Y           -7.1209770798        2.0730605695       -0.9099589293  MEMB      104             0.0000000000
     12175       104  SAPE      C314           -8.4720085777        0.5354717591       -0.7974864583  MEMB      104             0.0000000000
     12176       104  SAPE      H14X           -7.6494676495       -0.1224178615       -1.1464776365  MEMB      104             0.0000000000
     12177       104  SAPE      H14Y           -9.4371719732        0.3565288774       -1.2583094084  MEMB      104             0.0000000000
     12178       104  SAPE      C315           -8.5649078050        0.3695598810        0.7186930382  MEMB      104             0.0000000000
     12179       104  SAPE      H15X           -8.0126005914        1.2699230398        1.0281699415  MEMB      104             0.0000000000
     12180       104  SAPE      H15Y           -7.9333627406       -0.4472519691        1.0737194229  MEMB      104             0.0000000000
     12181       104  SAPE      C316           -9.9571007822        0.1916410683        1.4092174046  MEMB      104             0.0000000000
     12182       104  SAPE      H16X          -10.1272492652        0.4095787843        2.4513984660  MEMB      104             0.0000000000
     12183       104  SAPE      H16Y          -10.5063051911       -0.6990683498        1.6261605858  MEMB      104             0.0000000000
     12184       104  SAPE      C317          -10.9976248441        0.6819373700        0.6261842539  MEMB      104             0.0000000000
     12185       104  SAPE      H17X          -11.2395434172        0.3330393372       -0.3433841236  MEMB      104             0.0000000000
     12186       104  SAPE      H17Y          -10.6962839951        1.5760702308        0.2538513601  MEMB      104             0.0000000000
     12187       104  SAPE      C318          -12.1230741528        0.8232178167        1.4467862445  MEMB      104             0.0000000000
     12188       104  SAPE      H18X          -12.8981897082        0.7022550435        0.6283096339  MEMB      104             0.0000000000
     12189       104  SAPE      H18Y          -12.9253099252        1.5224010463        1.6524536913  MEMB      104             0.0000000000
     12190       104  SAPE      H18Z          -12.1937964854        0.8632185342        2.5570053025  MEMB      104             0.0000000000
     12191       105  SAPS      N               1.3758854037      -10.7506674866      -18.0258968807  MEMB      105             0.0000000000
     12192       105  SAPS      HN1             0.8988538934       -9.9336910429      -17.5571454366  MEMB      105             0.0000000000
     12193       105  SAPS      HN2             0.6683522803      -11.3814753064      -18.4604779204  MEMB      105             0.0000000000
     12194       105  SAPS      HN3             1.9900453828      -11.2700524653      -17.3718676524  MEMB      105             0.0000000000
     12195       105  SAPS      C12             2.1436106935      -10.1861940825      -19.1874661692  MEMB      105             0.0000000000
     12196       105  SAPS      H12A            1.5998914109      -10.5306184917      -20.0471203753  MEMB      105             0.0000000000
     12197       105  SAPS      C13             2.0481388062       -8.6374177823      -19.2370400257  MEMB      105             0.0000000000
     12198       105  SAPS      O13A            1.1370006688       -8.1126339397      -18.5274442892  MEMB      105             0.0000000000
     12199       105  SAPS      O13B            2.5867046023       -8.0264689341      -20.1900517899  MEMB      105             0.0000000000
     12200       105  SAPS      C11             3.5914260525      -10.7773978077      -19.2847336021  MEMB      105             0.0000000000
     12201       105  SAPS      H11A            3.5652786081      -11.8572486604      -19.0040936399  MEMB      105             0.0000000000
     12202       105  SAPS      H11B            4.2473696004      -10.2339526347      -18.5635362932  MEMB      105             0.0000000000
     12203       105  SAPS      P               5.1761319974      -11.6171665807      -21.2666248088  MEMB      105             0.0000000000
     12204       105  SAPS      O13             4.5446327432      -12.6439152889      -22.1135758441  MEMB      105             0.0000000000
     12205       105  SAPS      O14             6.2677877080      -10.8021734831      -21.8385463200  MEMB      105             0.0000000000
     12206       105  SAPS      O12             4.0906859218      -10.6633266544      -20.6189535381  MEMB      105             0.0000000000
     12207       105  SAPS      O11             5.7323323479      -12.3481880243      -20.0215067648  MEMB      105             0.0000000000
     12208       105  SAPS      C1              6.7458445578      -11.8000739145      -19.2194897807  MEMB      105             0.0000000000
     12209       105  SAPS      HA              7.7270214378      -11.8389303314      -19.7574540359  MEMB      105             0.0000000000
     12210       105  SAPS      HB              6.5758329294      -10.7527855359      -18.8791668874  MEMB      105             0.0000000000
     12211       105  SAPS      C2              6.6687217634      -12.6153357362      -17.9547776099  MEMB      105             0.0000000000
     12212       105  SAPS      HS              6.8608424223      -13.6657023221      -18.3093737957  MEMB      105             0.0000000000
     12213       105  SAPS      O21             5.4099986231      -12.5879371262      -17.3128325022  MEMB      105             0.0000000000
     12214       105  SAPS      C21             5.2066406023      -13.5586703954      -16.4495423676  MEMB      105             0.0000000000
     12215       105  SAPS      O22             5.8076696209      -14.5952672564      -16.3231906223  MEMB      105             0.0000000000
     12216       105  SAPS      C22             3.9239124563      -13.2355115551      -15.8100319162  MEMB      105             0.0000000000
     12217       105  SAPS      H2R             3.8959987626      -12.2512789674      -15.3123916010  MEMB      105             0.0000000000
     12218       105  SAPS      H2S             3.1957702457      -13.2655574967      -16.6452357181  MEMB      105             0.0000000000
     12219       105  SAPS      C3              7.6522450713      -12.0032861610      -16.9777481308  MEMB      105             0.0000000000
     12220       105  SAPS      HX              8.6036768659      -11.8661544916      -17.5150522488  MEMB      105             0.0000000000
     12221       105  SAPS      HY              7.7290286557      -12.7922171003      -16.2274679041  MEMB      105             0.0000000000
     12222       105  SAPS      O31             7.3823029518      -10.7492066131      -16.4092419729  MEMB      105             0.0000000000
     12223       105  SAPS      C31             7.0060525106      -10.7900342970      -15.1520331492  MEMB      105             0.0000000000
     12224       105  SAPS      O32             6.6787067205      -11.7510784998      -14.4924794646  MEMB      105             0.0000000000
     12225       105  SAPS      C32             7.0923808141       -9.3848924694      -14.6781040430  MEMB      105             0.0000000000
     12226       105  SAPS      H2X             8.1067576988       -8.9995710097      -14.9183023342  MEMB      105             0.0000000000
     12227       105  SAPS      H2Y             6.9603274021       -9.3528994087      -13.5783665188  MEMB      105             0.0000000000
     12228       105  SAPS      C23             3.6446192857      -14.3579330122      -14.8568246954  MEMB      105             0.0000000000
     12229       105  SAPS      H3R             3.9093655317      -15.3630912094      -15.1775398782  MEMB      105             0.0000000000
     12230       105  SAPS      H3S             2.6060246520      -14.5358251974      -15.1161569189  MEMB      105             0.0000000000
     12231       105  SAPS      C24             4.0611596862      -14.0462971020      -13.4147228716  MEMB      105             0.0000000000
     12232       105  SAPS      H4R             3.5922472454      -13.1270727090      -12.9763788205  MEMB      105             0.0000000000
     12233       105  SAPS      H4S             5.1432221179      -14.0130441619      -13.2485718520  MEMB      105             0.0000000000
     12234       105  SAPS      C25             3.5024303315      -15.1491601749      -12.6652578517  MEMB      105             0.0000000000
     12235       105  SAPS      H5R             3.4296834185      -16.1870757453      -13.0747588650  MEMB      105             0.0000000000
     12236       105  SAPS      C26             3.0612903280      -14.9218337069      -11.4775305684  MEMB      105             0.0000000000
     12237       105  SAPS      H6R             2.7108054260      -15.9156457377      -11.3572194709  MEMB      105             0.0000000000
     12238       105  SAPS      C27             2.8855243906      -13.8030327040      -10.3670172129  MEMB      105             0.0000000000
     12239       105  SAPS      H7R             3.1118914006      -12.8218136422      -10.7870971219  MEMB      105             0.0000000000
     12240       105  SAPS      H7S             3.8153868705      -13.9014065743       -9.7066551901  MEMB      105             0.0000000000
     12241       105  SAPS      C28             1.6618535285      -13.6754285516       -9.3707814391  MEMB      105             0.0000000000
     12242       105  SAPS      H8R             0.9400783018      -12.9735124051       -9.7307281552  MEMB      105             0.0000000000
     12243       105  SAPS      C29             1.2721994007      -14.1668827463       -8.1118498571  MEMB      105             0.0000000000
     12244       105  SAPS      H9R             0.5303029069      -13.8166349136       -7.4003598045  MEMB      105             0.0000000000
     12245       105  SAPS      C210            1.8042487890      -15.0320344733       -7.1062387104  MEMB      105             0.0000000000
     12246       105  SAPS      H10R            2.2091758021      -14.5687274494       -6.1891060198  MEMB      105             0.0000000000
     12247       105  SAPS      H10S            2.5997616881      -14.9445182384       -7.7732858845  MEMB      105             0.0000000000
     12248       105  SAPS      C211            1.6023959013      -16.4478011245       -6.7496215781  MEMB      105             0.0000000000
     12249       105  SAPS      H11R            2.4720486975      -17.0708596649       -6.9610392604  MEMB      105             0.0000000000
     12250       105  SAPS      C212            1.1079778420      -17.0762174151       -5.8126815298  MEMB      105             0.0000000000
     12251       105  SAPS      H12R            1.1839769123      -18.1830959668       -5.7493648616  MEMB      105             0.0000000000
     12252       105  SAPS      C213            0.6382486735      -16.0924337928       -4.8619790788  MEMB      105             0.0000000000
     12253       105  SAPS      H13R           -0.3749470536      -16.0306540005       -5.0125513192  MEMB      105             0.0000000000
     12254       105  SAPS      H13S            0.8404300715      -15.0397702626       -5.0372321577  MEMB      105             0.0000000000
     12255       105  SAPS      C214            0.9027723592      -16.4530583574       -3.5002437319  MEMB      105             0.0000000000
     12256       105  SAPS      H14R            1.1930047871      -17.4934499378       -3.3872220522  MEMB      105             0.0000000000
     12257       105  SAPS      C215            0.9504606379      -15.6856389214       -2.4630044101  MEMB      105             0.0000000000
     12258       105  SAPS      H15R            1.3845990875      -16.0251458147       -1.5299365305  MEMB      105             0.0000000000
     12259       105  SAPS      C216            0.7256502917      -14.3116747726       -2.4721809782  MEMB      105             0.0000000000
     12260       105  SAPS      H16R            0.1224546977      -14.3990745561       -1.5516512672  MEMB      105             0.0000000000
     12261       105  SAPS      H16S            0.1329046018      -14.1310807859       -3.3862674128  MEMB      105             0.0000000000
     12262       105  SAPS      C217            1.4724218617      -13.1472621590       -1.9335273332  MEMB      105             0.0000000000
     12263       105  SAPS      H17R            2.2343364456      -13.5923084110       -1.2675610226  MEMB      105             0.0000000000
     12264       105  SAPS      H17S            0.7526907462      -12.5605278114       -1.2974158860  MEMB      105             0.0000000000
     12265       105  SAPS      C218            1.8970394204      -12.2447214204       -3.0741190219  MEMB      105             0.0000000000
     12266       105  SAPS      H18R            1.0075395544      -12.0009047859       -3.6962959639  MEMB      105             0.0000000000
     12267       105  SAPS      H18S            2.6063514901      -12.7999160089       -3.7251988126  MEMB      105             0.0000000000
     12268       105  SAPS      C219            2.4863746954      -10.9497041584       -2.5377600587  MEMB      105             0.0000000000
     12269       105  SAPS      H19R            1.8044729766      -10.5202031950       -1.7728402922  MEMB      105             0.0000000000
     12270       105  SAPS      H19S            2.5922739623      -10.1958804575       -3.3488587689  MEMB      105             0.0000000000
     12271       105  SAPS      C220            3.8521323762      -11.2530560118       -1.9647060120  MEMB      105             0.0000000000
     12272       105  SAPS      H20R            4.3907028018      -11.7010509420       -2.8080246145  MEMB      105             0.0000000000
     12273       105  SAPS      H20S            3.7988753101      -11.9890677798       -1.1294136647  MEMB      105             0.0000000000
     12274       105  SAPS      H20T            4.4435509429      -10.3642429674       -1.6880165076  MEMB      105             0.0000000000
     12275       105  SAPS      C33             6.0138397920       -8.6831374765      -15.4573332178  MEMB      105             0.0000000000
     12276       105  SAPS      H3X             6.3150125924       -8.6404708683      -16.5374992338  MEMB      105             0.0000000000
     12277       105  SAPS      H3Y             5.9669901904       -7.6601832244      -15.0506144695  MEMB      105             0.0000000000
     12278       105  SAPS      C34             4.6538719816       -9.3843869815      -15.3244496797  MEMB      105             0.0000000000
     12279       105  SAPS      H4X             4.7219425932      -10.3513131619      -15.8719753352  MEMB      105             0.0000000000
     12280       105  SAPS      H4Y             3.8930293494       -8.7669799817      -15.8435096934  MEMB      105             0.0000000000
     12281       105  SAPS      C35             4.2243293556       -9.6812773811      -13.8754433835  MEMB      105             0.0000000000
     12282       105  SAPS      H5X             4.9067263790      -10.4460825351      -13.4361346090  MEMB      105             0.0000000000
     12283       105  SAPS      H5Y             3.2283968365      -10.1698391544      -13.8826280625  MEMB      105             0.0000000000
     12284       105  SAPS      C36             4.2336953793       -8.4385282409      -12.9650634647  MEMB      105             0.0000000000
     12285       105  SAPS      H6X             3.6588260418       -7.5949641298      -13.4089972897  MEMB      105             0.0000000000
     12286       105  SAPS      H6Y             5.2856649397       -8.0826971391      -12.8857320692  MEMB      105             0.0000000000
     12287       105  SAPS      C37             3.7370399153       -8.7408048711      -11.5411177398  MEMB      105             0.0000000000
     12288       105  SAPS      H7X             4.3636840090       -9.5726085514      -11.1459504042  MEMB      105             0.0000000000
     12289       105  SAPS      H7Y             2.6769668161       -9.0793020921      -11.5729322764  MEMB      105             0.0000000000
     12290       105  SAPS      C38             3.7962054946       -7.5139157075      -10.6099754244  MEMB      105             0.0000000000
     12291       105  SAPS      H8X             3.1869810548       -6.7174936376      -11.0902777430  MEMB      105             0.0000000000
     12292       105  SAPS      H8Y             4.8389995442       -7.1293829429      -10.5613173467  MEMB      105             0.0000000000
     12293       105  SAPS      C39             3.2050445314       -7.7295102962       -9.2004388281  MEMB      105             0.0000000000
     12294       105  SAPS      H9X             2.0981611877       -7.8185002668       -9.2722774283  MEMB      105             0.0000000000
     12295       105  SAPS      H9Y             3.4347327298       -6.8638058311       -8.5372933871  MEMB      105             0.0000000000
     12296       105  SAPS      C310            3.7099308608       -8.9467282401       -8.4420541016  MEMB      105             0.0000000000
     12297       105  SAPS      H10X            3.4471895667       -9.8916455724       -8.9669648671  MEMB      105             0.0000000000
     12298       105  SAPS      H10Y            3.1994299676       -8.9482504252       -7.4514331518  MEMB      105             0.0000000000
     12299       105  SAPS      C311            5.2073254235       -8.9297341187       -8.2370848193  MEMB      105             0.0000000000
     12300       105  SAPS      H11X            5.5479710579       -8.0988541234       -7.5757666321  MEMB      105             0.0000000000
     12301       105  SAPS      H11Y            5.7344956014       -8.7826553753       -9.2112438361  MEMB      105             0.0000000000
     12302       105  SAPS      C312            5.6365477934      -10.2757097806       -7.6662771711  MEMB      105             0.0000000000
     12303       105  SAPS      H12X            6.7112429323      -10.0951202464       -7.8030685548  MEMB      105             0.0000000000
     12304       105  SAPS      H12Y            5.4275396306      -11.1253547811       -8.3429002945  MEMB      105             0.0000000000
     12305       105  SAPS      C313            5.1606066688      -10.5505914278       -6.1998757195  MEMB      105             0.0000000000
     12306       105  SAPS      H13X            4.0550412528      -10.5584866396       -6.1668407275  MEMB      105             0.0000000000
     12307       105  SAPS      H13Y            5.5466789233       -9.7317732095       -5.5525549042  MEMB      105             0.0000000000
     12308       105  SAPS      C314            5.6518755275      -11.7522295191       -5.3722071102  MEMB      105             0.0000000000
     12309       105  SAPS      H14X            5.7900955225      -11.5368100810       -4.3029949515  MEMB      105             0.0000000000
     12310       105  SAPS      H14Y            6.6074991997      -12.1950503513       -5.6116007775  MEMB      105             0.0000000000
     12311       105  SAPS      C315            5.0723926671      -13.0573836345       -5.6047504237  MEMB      105             0.0000000000
     12312       105  SAPS      H15X            5.3346808338      -13.2790488452       -6.6795110418  MEMB      105             0.0000000000
     12313       105  SAPS      H15Y            3.9740547489      -12.9623965555       -5.5124662872  MEMB      105             0.0000000000
     12314       105  SAPS      C316            5.8581692922      -13.9386878214       -4.6114598361  MEMB      105             0.0000000000
     12315       105  SAPS      H16X            6.9281084933      -13.7737321328       -4.5681636646  MEMB      105             0.0000000000
     12316       105  SAPS      H16Y            6.2313248469      -14.9307487182       -4.8048472113  MEMB      105             0.0000000000
     12317       105  SAPS      C317            5.3212029309      -14.0549181299       -3.2597910200  MEMB      105             0.0000000000
     12318       105  SAPS      H17X            4.2009062658      -14.1990673441       -3.2232224589  MEMB      105             0.0000000000
     12319       105  SAPS      H17Y            5.4271301950      -13.1685664324       -2.7000615672  MEMB      105             0.0000000000
     12320       105  SAPS      C318            6.1653298857      -15.1573514910       -2.6368272468  MEMB      105             0.0000000000
     12321       105  SAPS      H18X            6.5899837916      -15.1985905683       -1.6509440138  MEMB      105             0.0000000000
     12322       105  SAPS      H18Y            6.3606581012      -16.1294520039       -3.2058072575  MEMB      105             0.0000000000
     12323       105  SAPS      H18Z            5.1947438093      -15.3471702841       -2.2002331794  MEMB      105             0.0000000000
     12324       106  CHL1      C3              3.4942298571       14.0601434838      -17.3614583497  MEMB      106             0.0000000000
     12325       106  CHL1      H3              2.5574872557       13.4892449644      -17.1551614905  MEMB      106             0.0000000000
     12326       106  CHL1      O3              3.6807700436       14.0705091963      -18.7482999639  MEMB      106             0.0000000000
     12327       106  CHL1      H3'             4.2966546395       13.3423257066      -18.9086221222  MEMB      106             0.0000000000
     12328       106  CHL1      C4              3.3137904237       15.4383528227      -16.8090135612  MEMB      106             0.0000000000
     12329       106  CHL1      H4A             4.0267059122       16.1650465879      -17.2224206982  MEMB      106             0.0000000000
     12330       106  CHL1      H4B             2.2997876210       15.7300120686      -17.1469603345  MEMB      106             0.0000000000
     12331       106  CHL1      C5              3.4749487713       15.3939034202      -15.3204239456  MEMB      106             0.0000000000
     12332       106  CHL1      C6              2.6335161072       15.9029237306      -14.5340646350  MEMB      106             0.0000000000
     12333       106  CHL1      H6              1.8045626074       16.3247122129      -15.0806693164  MEMB      106             0.0000000000
     12334       106  CHL1      C7              2.6699318268       15.7599067111      -13.0053539495  MEMB      106             0.0000000000
     12335       106  CHL1      H7A             2.2413227563       16.4941165948      -12.3837743771  MEMB      106             0.0000000000
     12336       106  CHL1      H7B             2.0851072775       14.8940022510      -12.5968580225  MEMB      106             0.0000000000
     12337       106  CHL1      C8              3.9262935054       15.8660245435      -12.3925134744  MEMB      106             0.0000000000
     12338       106  CHL1      H8              4.4518691639       16.7939133667      -12.7085225651  MEMB      106             0.0000000000
     12339       106  CHL1      C14             3.7281554955       15.7315641716      -10.8543483480  MEMB      106             0.0000000000
     12340       106  CHL1      H14             3.2045254017       14.7580507128      -10.6680279194  MEMB      106             0.0000000000
     12341       106  CHL1      C15             2.9975117266       16.7845505656      -10.0135151545  MEMB      106             0.0000000000
     12342       106  CHL1      H15A            3.2390838726       17.8022680200      -10.3853507794  MEMB      106             0.0000000000
     12343       106  CHL1      H15B            1.9221137993       16.5961069216      -10.0015033069  MEMB      106             0.0000000000
     12344       106  CHL1      C16             3.5306772946       16.6243313486       -8.6004921253  MEMB      106             0.0000000000
     12345       106  CHL1      H16A            3.9345489503       17.6255055256       -8.2882745976  MEMB      106             0.0000000000
     12346       106  CHL1      H16B            2.8656240066       16.2351138009       -7.8126691442  MEMB      106             0.0000000000
     12347       106  CHL1      C17             4.6731442415       15.6512267731       -8.7008996315  MEMB      106             0.0000000000
     12348       106  CHL1      H17             4.4252110236       14.5830887083       -8.4857168051  MEMB      106             0.0000000000
     12349       106  CHL1      C13             4.9940753319       15.5701805689      -10.1731623974  MEMB      106             0.0000000000
     12350       106  CHL1      C18             5.7491049821       16.8295085874      -10.5390762041  MEMB      106             0.0000000000
     12351       106  CHL1      H18A            6.0284232728       17.0439012115      -11.5817398191  MEMB      106             0.0000000000
     12352       106  CHL1      H18B            5.3238374699       17.7286094957      -10.0715350520  MEMB      106             0.0000000000
     12353       106  CHL1      H18C            6.6833583820       16.7224449937      -10.0555463187  MEMB      106             0.0000000000
     12354       106  CHL1      C12             5.3165603401       14.1730136906      -10.7251143737  MEMB      106             0.0000000000
     12355       106  CHL1      H12A            6.2548418338       13.8552981331      -10.4294853047  MEMB      106             0.0000000000
     12356       106  CHL1      H12B            4.7572183511       13.3148506455      -10.4071971666  MEMB      106             0.0000000000
     12357       106  CHL1      C11             5.3280063011       14.1615790631      -12.2147772415  MEMB      106             0.0000000000
     12358       106  CHL1      H11A            5.9546176003       15.0250179340      -12.0283050474  MEMB      106             0.0000000000
     12359       106  CHL1      H11B            5.7075744830       13.3368828052      -12.8244765882  MEMB      106             0.0000000000
     12360       106  CHL1      C9              4.3683678002       14.6567240016      -13.0897774562  MEMB      106             0.0000000000
     12361       106  CHL1      H9              3.7027377291       13.7614676790      -12.9215846043  MEMB      106             0.0000000000
     12362       106  CHL1      C10             4.5747501597       14.7249170817      -14.6796612684  MEMB      106             0.0000000000
     12363       106  CHL1      C19             5.5899937120       15.5512031378      -15.4063687444  MEMB      106             0.0000000000
     12364       106  CHL1      H19A            5.6865853007       16.5533178803      -14.9368682513  MEMB      106             0.0000000000
     12365       106  CHL1      H19B            6.4638414970       14.8822956280      -15.2835995902  MEMB      106             0.0000000000
     12366       106  CHL1      H19C            5.7739780056       15.5649129843      -16.4871419784  MEMB      106             0.0000000000
     12367       106  CHL1      C1              4.7451491441       13.3791380484      -15.2394266610  MEMB      106             0.0000000000
     12368       106  CHL1      H1A             5.6688549943       12.9190770003      -14.8285972377  MEMB      106             0.0000000000
     12369       106  CHL1      H1B             3.8799904752       12.9054733674      -14.7850229765  MEMB      106             0.0000000000
     12370       106  CHL1      C2              4.7272072968       13.4299985853      -16.7825922607  MEMB      106             0.0000000000
     12371       106  CHL1      H2A             4.6895877422       12.4731610155      -17.2305993175  MEMB      106             0.0000000000
     12372       106  CHL1      H2B             5.7106968241       13.6886498312      -17.2056352607  MEMB      106             0.0000000000
     12373       106  CHL1      C20             5.5684542853       16.2317732029       -7.6583612546  MEMB      106             0.0000000000
     12374       106  CHL1      H20             6.0254441402       17.2311416663       -7.8472622245  MEMB      106             0.0000000000
     12375       106  CHL1      C21             6.6052249087       15.4253212851       -7.6688763613  MEMB      106             0.0000000000
     12376       106  CHL1      H21A            6.3471755384       14.3668786841       -7.4563106451  MEMB      106             0.0000000000
     12377       106  CHL1      H21B            7.3410020239       15.8988329610       -6.9768813397  MEMB      106             0.0000000000
     12378       106  CHL1      H21C            7.1668201261       15.4718115556       -8.5404121433  MEMB      106             0.0000000000
     12379       106  CHL1      C22             5.0731787543       16.0890317259       -6.2328769239  MEMB      106             0.0000000000
     12380       106  CHL1      H22A            4.4032183361       16.9548428106       -6.1917220729  MEMB      106             0.0000000000
     12381       106  CHL1      H22B            4.5545140990       15.1093078658       -6.1032354006  MEMB      106             0.0000000000
     12382       106  CHL1      C23             6.1408445824       16.2819216672       -5.1542522785  MEMB      106             0.0000000000
     12383       106  CHL1      H23A            6.8484640320       15.4384291783       -5.0726929558  MEMB      106             0.0000000000
     12384       106  CHL1      H23B            6.7472593897       17.1767984372       -5.4616062678  MEMB      106             0.0000000000
     12385       106  CHL1      C24             5.5403889716       16.3744242837       -3.7846819161  MEMB      106             0.0000000000
     12386       106  CHL1      H24A            5.1413487699       17.4129890248       -3.7187201690  MEMB      106             0.0000000000
     12387       106  CHL1      H24B            4.7179617386       15.6698736488       -3.6022126926  MEMB      106             0.0000000000
     12388       106  CHL1      C25             6.5192930235       16.0321783080       -2.6708852789  MEMB      106             0.0000000000
     12389       106  CHL1      H25             6.0256760903       16.3952516260       -1.7367007564  MEMB      106             0.0000000000
     12390       106  CHL1      C26             6.9163050695       14.6831991715       -2.3288182759  MEMB      106             0.0000000000
     12391       106  CHL1      H26A            7.8679546659       14.5274003801       -2.7886264082  MEMB      106             0.0000000000
     12392       106  CHL1      H26B            7.2733784953       14.6603203268       -1.2887253754  MEMB      106             0.0000000000
     12393       106  CHL1      H26C            6.1828786221       13.9420186134       -2.6071930547  MEMB      106             0.0000000000
     12394       106  CHL1      C27             7.8763120591       16.5733112155       -2.9365603317  MEMB      106             0.0000000000
     12395       106  CHL1      H27A            8.3585776129       16.8269386093       -1.9496829127  MEMB      106             0.0000000000
     12396       106  CHL1      H27B            8.4760683492       16.7460032515       -3.8298496867  MEMB      106             0.0000000000
     12397       106  CHL1      H27C            7.6575227337       17.4136750357       -3.5269147547  MEMB      106             0.0000000000
     12398       107  CHL1      C3            -10.5995494670      -10.9768356671      -17.3452944992  MEMB      107             0.0000000000
     12399       107  CHL1      H3             -9.5751166305      -10.8514702805      -16.9403697607  MEMB      107             0.0000000000
     12400       107  CHL1      O3            -10.5853158971      -11.1018714995      -18.7534627517  MEMB      107             0.0000000000
     12401       107  CHL1      H3'           -10.4170439770      -12.0326312917      -18.8850323281  MEMB      107             0.0000000000
     12402       107  CHL1      C4            -11.1625026710      -12.2851590872      -16.8089780486  MEMB      107             0.0000000000
     12403       107  CHL1      H4A           -12.1829093886      -12.4122528771      -17.2246562537  MEMB      107             0.0000000000
     12404       107  CHL1      H4B           -10.5417318735      -13.1444746910      -17.1512920940  MEMB      107             0.0000000000
     12405       107  CHL1      C5            -11.1516839144      -12.1660480109      -15.3126940881  MEMB      107             0.0000000000
     12406       107  CHL1      C6            -10.4976905440      -13.0490501212      -14.5765932644  MEMB      107             0.0000000000
     12407       107  CHL1      H6            -10.0378446210      -13.8957530098      -15.0854751850  MEMB      107             0.0000000000
     12408       107  CHL1      C7            -10.3352958635      -12.9656151812      -13.0992396497  MEMB      107             0.0000000000
     12409       107  CHL1      H7A           -10.5911125256      -13.9470482914      -12.6139193616  MEMB      107             0.0000000000
     12410       107  CHL1      H7B            -9.3169967068      -12.6470049289      -12.8120989704  MEMB      107             0.0000000000
     12411       107  CHL1      C8            -11.2298125515      -11.8975632933      -12.5165937583  MEMB      107             0.0000000000
     12412       107  CHL1      H8            -12.1188272831      -12.3483497844      -12.6416279270  MEMB      107             0.0000000000
     12413       107  CHL1      C14           -10.8503398349      -11.5750742552      -11.1361846557  MEMB      107             0.0000000000
     12414       107  CHL1      H14            -9.9568156431      -10.9570879251      -11.2411327860  MEMB      107             0.0000000000
     12415       107  CHL1      C15           -10.3175180079      -12.7180202222      -10.2809024823  MEMB      107             0.0000000000
     12416       107  CHL1      H15A          -10.9644703445      -13.6309761581      -10.2397402375  MEMB      107             0.0000000000
     12417       107  CHL1      H15B           -9.3691125738      -13.1656086763      -10.6040192052  MEMB      107             0.0000000000
     12418       107  CHL1      C16           -10.2877582477      -11.8192498959       -9.0427285139  MEMB      107             0.0000000000
     12419       107  CHL1      H16A          -10.2037183957      -12.6902631051       -8.3267563447  MEMB      107             0.0000000000
     12420       107  CHL1      H16B           -9.8942691967      -11.5793715779       -8.1151496148  MEMB      107             0.0000000000
     12421       107  CHL1      C17           -11.1336173037      -10.4733674956       -9.0060968660  MEMB      107             0.0000000000
     12422       107  CHL1      H17           -10.3757231500       -9.7006061608       -9.0812287316  MEMB      107             0.0000000000
     12423       107  CHL1      C13           -11.6820112053      -10.5199792636      -10.3792192722  MEMB      107             0.0000000000
     12424       107  CHL1      C18           -12.9210056786      -10.9616615346      -10.2921964811  MEMB      107             0.0000000000
     12425       107  CHL1      H18A          -12.9979127194      -11.9277818036      -10.2090285078  MEMB      107             0.0000000000
     12426       107  CHL1      H18B          -13.6918713404      -10.5732041155       -9.6265797476  MEMB      107             0.0000000000
     12427       107  CHL1      H18C          -13.2675938038      -11.2910768288      -11.2463059129  MEMB      107             0.0000000000
     12428       107  CHL1      C12           -12.1334767721       -9.3189188681      -11.1557437023  MEMB      107             0.0000000000
     12429       107  CHL1      H12A          -12.9799156487       -8.7908697776      -10.6424926590  MEMB      107             0.0000000000
     12430       107  CHL1      H12B          -11.2272630742       -8.7311989411      -11.1289599495  MEMB      107             0.0000000000
     12431       107  CHL1      C11           -12.5932073788       -9.7095278032      -12.5859313720  MEMB      107             0.0000000000
     12432       107  CHL1      H11A          -13.6161487782      -10.1679789031      -12.6256900735  MEMB      107             0.0000000000
     12433       107  CHL1      H11B          -12.7566450227       -8.7772539130      -13.1094256955  MEMB      107             0.0000000000
     12434       107  CHL1      C9            -11.5567655935      -10.6587690924      -13.2725457164  MEMB      107             0.0000000000
     12435       107  CHL1      H9            -10.5724952732      -10.1823806503      -13.1618831656  MEMB      107             0.0000000000
     12436       107  CHL1      C10           -11.8124051480      -10.9101252627      -14.7536915048  MEMB      107             0.0000000000
     12437       107  CHL1      C19           -13.2463970119      -11.0378858061      -15.1175409919  MEMB      107             0.0000000000
     12438       107  CHL1      H19A          -13.9072412460      -10.2911915022      -14.6373480153  MEMB      107             0.0000000000
     12439       107  CHL1      H19B          -13.5398963924      -11.1541347115      -16.1751696697  MEMB      107             0.0000000000
     12440       107  CHL1      H19C          -13.6007871294      -11.9964345589      -14.8419231540  MEMB      107             0.0000000000
     12441       107  CHL1      C1            -11.4741846232       -9.6078418124      -15.4175568301  MEMB      107             0.0000000000
     12442       107  CHL1      H1A           -12.2343163122       -8.8469685577      -15.1136508662  MEMB      107             0.0000000000
     12443       107  CHL1      H1B           -10.5096249130       -9.3041627847      -14.9725888840  MEMB      107             0.0000000000
     12444       107  CHL1      C2            -11.4570090007       -9.7721508020      -16.9329318927  MEMB      107             0.0000000000
     12445       107  CHL1      H2A           -11.1132600056       -8.8137119263      -17.3506267127  MEMB      107             0.0000000000
     12446       107  CHL1      H2B           -12.4657657039       -9.9821684873      -17.3494065261  MEMB      107             0.0000000000
     12447       107  CHL1      C20           -11.9565898949       -9.9824146145       -7.7132808815  MEMB      107             0.0000000000
     12448       107  CHL1      H20           -12.7935539051      -10.5987889680       -7.4304800978  MEMB      107             0.0000000000
     12449       107  CHL1      C21           -12.9180804581       -8.8555735579       -7.8964137704  MEMB      107             0.0000000000
     12450       107  CHL1      H21A          -13.5282136565       -8.7234951449       -6.9697009165  MEMB      107             0.0000000000
     12451       107  CHL1      H21B          -13.6729477580       -9.0273237930       -8.6769665436  MEMB      107             0.0000000000
     12452       107  CHL1      H21C          -12.2594376153       -8.0239773636       -8.1289587939  MEMB      107             0.0000000000
     12453       107  CHL1      C22           -11.2848725501      -10.0902865588       -6.3338026225  MEMB      107             0.0000000000
     12454       107  CHL1      H22A          -10.6566433210      -11.0012076998       -6.2473603093  MEMB      107             0.0000000000
     12455       107  CHL1      H22B          -10.5418815161       -9.2900503746       -6.2588573665  MEMB      107             0.0000000000
     12456       107  CHL1      C23           -12.2862677243      -10.1314242245       -5.0673333113  MEMB      107             0.0000000000
     12457       107  CHL1      H23A          -11.4859939929       -9.9261495933       -4.3618294798  MEMB      107             0.0000000000
     12458       107  CHL1      H23B          -12.8433158531       -9.2857782033       -5.2564912997  MEMB      107             0.0000000000
     12459       107  CHL1      C24           -13.7400416875      -10.9070991010       -4.7674178675  MEMB      107             0.0000000000
     12460       107  CHL1      H24A          -14.4148981453      -10.7182834647       -5.6081597981  MEMB      107             0.0000000000
     12461       107  CHL1      H24B          -14.0819118959      -11.8639310209       -4.9584686836  MEMB      107             0.0000000000
     12462       107  CHL1      C25           -14.3161976423      -11.4537941501       -3.3966883976  MEMB      107             0.0000000000
     12463       107  CHL1      H25           -14.4280321202      -10.5812410302       -2.9469142881  MEMB      107             0.0000000000
     12464       107  CHL1      C26           -15.4023906007      -12.5163868828       -3.2390916298  MEMB      107             0.0000000000
     12465       107  CHL1      H26A          -15.9918839349      -12.3946462315       -4.1521269847  MEMB      107             0.0000000000
     12466       107  CHL1      H26B          -14.9621024632      -13.5327420899       -3.0921721263  MEMB      107             0.0000000000
     12467       107  CHL1      H26C          -15.9214752231      -12.2185604199       -2.2886637333  MEMB      107             0.0000000000
     12468       107  CHL1      C27           -13.7668602328      -11.4594216920       -2.1251271357  MEMB      107             0.0000000000
     12469       107  CHL1      H27A          -14.3006016235      -11.6342281111       -1.1906503039  MEMB      107             0.0000000000
     12470       107  CHL1      H27B          -13.5231766069      -12.5188018796       -2.2344471602  MEMB      107             0.0000000000
     12471       107  CHL1      H27C          -12.9419220084      -10.6567044387       -2.0247459010  MEMB      107             0.0000000000
     12472       108  SAPS      N              12.4020591360        9.0271314732      -21.8634052041  MEMB      108             0.0000000000
     12473       108  SAPS      HN1            11.7584213530        8.2076110376      -21.8183304621  MEMB      108             0.0000000000
     12474       108  SAPS      HN2            12.5454639564        9.2599321148      -22.8678351488  MEMB      108             0.0000000000
     12475       108  SAPS      HN3            13.2941100169        8.8740066806      -21.3678602705  MEMB      108             0.0000000000
     12476       108  SAPS      C12            11.5559190353       10.1212578432      -21.2978807234  MEMB      108             0.0000000000
     12477       108  SAPS      H12A           12.0447567243       11.0609882199      -21.5117916949  MEMB      108             0.0000000000
     12478       108  SAPS      C13            10.1890618309       10.1108101809      -22.0200266778  MEMB      108             0.0000000000
     12479       108  SAPS      O13A           10.0268843949        9.2341710233      -22.9171682187  MEMB      108             0.0000000000
     12480       108  SAPS      O13B            9.3668467492       11.0212228463      -21.7992732285  MEMB      108             0.0000000000
     12481       108  SAPS      C11            11.3379233188        9.9259061290      -19.7745087544  MEMB      108             0.0000000000
     12482       108  SAPS      H11A           12.2707837738        9.6306125907      -19.2538774482  MEMB      108             0.0000000000
     12483       108  SAPS      H11B           10.5919556019        9.1033359225      -19.6110732873  MEMB      108             0.0000000000
     12484       108  SAPS      P               9.8134014379       11.1465577813      -18.0644921615  MEMB      108             0.0000000000
     12485       108  SAPS      O13             9.7642860088       12.4878772408      -17.4584522323  MEMB      108             0.0000000000
     12486       108  SAPS      O14             8.5781700830       10.5346505987      -18.5866140638  MEMB      108             0.0000000000
     12487       108  SAPS      O12            10.9214531235       11.1664113129      -19.2083104893  MEMB      108             0.0000000000
     12488       108  SAPS      O11            10.5145544192       10.1169391994      -17.0224289065  MEMB      108             0.0000000000
     12489       108  SAPS      C1             11.5209181430       10.6524966631      -16.1466890615  MEMB      108             0.0000000000
     12490       108  SAPS      HA             12.2500261141       11.2948972155      -16.6885699155  MEMB      108             0.0000000000
     12491       108  SAPS      HB             11.0168299828       11.2946472150      -15.3837362165  MEMB      108             0.0000000000
     12492       108  SAPS      C2             12.4270027224        9.6173928391      -15.3762890989  MEMB      108             0.0000000000
     12493       108  SAPS      HS             12.9315804835        8.9686887199      -16.1166997367  MEMB      108             0.0000000000
     12494       108  SAPS      O21            11.7654037843        8.7615156843      -14.5042088287  MEMB      108             0.0000000000
     12495       108  SAPS      C21            12.1856999343        7.6693642436      -14.0539593541  MEMB      108             0.0000000000
     12496       108  SAPS      O22            12.9951480856        6.8763084528      -14.4883483340  MEMB      108             0.0000000000
     12497       108  SAPS      C22            11.3287337896        7.4349023477      -12.9358672242  MEMB      108             0.0000000000
     12498       108  SAPS      H2R            10.9233490744        8.2970294201      -12.3331574014  MEMB      108             0.0000000000
     12499       108  SAPS      H2S            10.4961550833        6.7760261452      -13.2404316370  MEMB      108             0.0000000000
     12500       108  SAPS      C3             13.3683197122       10.4011536136      -14.4769690497  MEMB      108             0.0000000000
     12501       108  SAPS      HX             14.2678357299       10.6510953027      -15.0711965900  MEMB      108             0.0000000000
     12502       108  SAPS      HY             13.5995958215        9.7037710451      -13.6379128761  MEMB      108             0.0000000000
     12503       108  SAPS      O31            12.8075060621       11.6045448558      -13.9596110701  MEMB      108             0.0000000000
     12504       108  SAPS      C31            12.2981689985       11.5796429521      -12.7525456915  MEMB      108             0.0000000000
     12505       108  SAPS      O32            12.2953288542       10.6390055100      -11.9778274548  MEMB      108             0.0000000000
     12506       108  SAPS      C32            11.7258885301       12.9448703752      -12.5163655259  MEMB      108             0.0000000000
     12507       108  SAPS      H2X            10.9622940795       13.1705895629      -13.3018681508  MEMB      108             0.0000000000
     12508       108  SAPS      H2Y            12.5105488363       13.7256151440      -12.6061310931  MEMB      108             0.0000000000
     12509       108  SAPS      C23            11.4457782981        6.2076410968      -12.3269403780  MEMB      108             0.0000000000
     12510       108  SAPS      H3R            12.3529828436        5.6556895054      -12.7389847559  MEMB      108             0.0000000000
     12511       108  SAPS      H3S            11.2928488816        5.2913555242      -13.0601755600  MEMB      108             0.0000000000
     12512       108  SAPS      C24            10.4858832774        6.6822683005      -10.9830619156  MEMB      108             0.0000000000
     12513       108  SAPS      H4R             9.5504287627        5.9701934497      -10.9309300603  MEMB      108             0.0000000000
     12514       108  SAPS      H4S            10.6430425781        7.3421090912      -10.2299684260  MEMB      108             0.0000000000
     12515       108  SAPS      C25            11.4694312354        6.3264966202      -10.2650696332  MEMB      108             0.0000000000
     12516       108  SAPS      H5R            10.9318526504        5.2301034518      -10.5472380357  MEMB      108             0.0000000000
     12517       108  SAPS      C26            12.5753385188        6.6397619341       -8.9558788648  MEMB      108             0.0000000000
     12518       108  SAPS      H6R            13.5236156962        5.6478068174       -8.5153928089  MEMB      108             0.0000000000
     12519       108  SAPS      C27            12.8454612669        7.9727550137       -8.6826852888  MEMB      108             0.0000000000
     12520       108  SAPS      H7R            11.7128646718        7.5242386914       -8.2670826520  MEMB      108             0.0000000000
     12521       108  SAPS      H7S            12.0066784947        8.4548282587       -8.7455073984  MEMB      108             0.0000000000
     12522       108  SAPS      C28            13.7715758348        7.8530335894       -7.4947187915  MEMB      108             0.0000000000
     12523       108  SAPS      H8R            14.1703123628        7.1445960998       -6.7462568745  MEMB      108             0.0000000000
     12524       108  SAPS      C29            14.0465693565        9.0377330058       -7.2685657345  MEMB      108             0.0000000000
     12525       108  SAPS      H9R            15.0226683490        8.9229651907       -6.7761789209  MEMB      108             0.0000000000
     12526       108  SAPS      C210           13.4360820027       10.1402440250       -8.1881504819  MEMB      108             0.0000000000
     12527       108  SAPS      H10R           12.3439483309       10.1375525681       -8.0211290124  MEMB      108             0.0000000000
     12528       108  SAPS      H10S           13.5932530956        9.8100137167       -9.2218812630  MEMB      108             0.0000000000
     12529       108  SAPS      C211           13.7523775824       11.5896373869       -8.3571496869  MEMB      108             0.0000000000
     12530       108  SAPS      H11R           14.7046501928       11.7938436787       -8.8364858972  MEMB      108             0.0000000000
     12531       108  SAPS      C212           13.5820993819       12.4532358448       -7.3965827710  MEMB      108             0.0000000000
     12532       108  SAPS      H12R           14.4452973369       13.1432081644       -7.1707859140  MEMB      108             0.0000000000
     12533       108  SAPS      C213           13.0137748743       11.9339298213       -6.1436409122  MEMB      108             0.0000000000
     12534       108  SAPS      H13R           13.5376099086       11.7523013799       -5.1527687729  MEMB      108             0.0000000000
     12535       108  SAPS      H13S           12.3205202397       11.0838031311       -6.2560556007  MEMB      108             0.0000000000
     12536       108  SAPS      C214           12.4366078264       13.2403098983       -6.1166171185  MEMB      108             0.0000000000
     12537       108  SAPS      H14R           12.4790726411       14.2330635391       -6.6887097898  MEMB      108             0.0000000000
     12538       108  SAPS      C215           11.7767276096       13.0943857777       -5.0983944041  MEMB      108             0.0000000000
     12539       108  SAPS      H15R           11.1101514884       13.9125493431       -5.4558130230  MEMB      108             0.0000000000
     12540       108  SAPS      C216           11.4150448483       11.9742186032       -3.9188260318  MEMB      108             0.0000000000
     12541       108  SAPS      H16R           12.2102058505       11.3171005082       -3.7090226603  MEMB      108             0.0000000000
     12542       108  SAPS      H16S           10.5390192303       11.2623961881       -3.9851309734  MEMB      108             0.0000000000
     12543       108  SAPS      C217           10.7401825689       12.2673012961       -2.5366496912  MEMB      108             0.0000000000
     12544       108  SAPS      H17R            9.8324959645       12.8422536824       -2.4291920613  MEMB      108             0.0000000000
     12545       108  SAPS      H17S           11.4469870541       12.7984708166       -2.0480562525  MEMB      108             0.0000000000
     12546       108  SAPS      C218           10.0654856453       11.4949805743       -1.5722714069  MEMB      108             0.0000000000
     12547       108  SAPS      H18R            9.1336692232       11.1991078178       -1.9332551645  MEMB      108             0.0000000000
     12548       108  SAPS      H18S            9.8880301900       12.1416349577       -0.6841561439  MEMB      108             0.0000000000
     12549       108  SAPS      C219           10.9451148096       10.4840387332       -1.2463307267  MEMB      108             0.0000000000
     12550       108  SAPS      H19R           11.9264454345       10.8914645621       -0.9887510525  MEMB      108             0.0000000000
     12551       108  SAPS      H19S           11.1214488454        9.9246247448       -2.1581890924  MEMB      108             0.0000000000
     12552       108  SAPS      C220           10.2146426736        9.9521662310       -0.1059214524  MEMB      108             0.0000000000
     12553       108  SAPS      H20R           10.8320662182        9.2504059967        0.3079129197  MEMB      108             0.0000000000
     12554       108  SAPS      H20S            9.2799999765        9.4652176227       -0.4467761017  MEMB      108             0.0000000000
     12555       108  SAPS      H20T           10.0434015871       10.7213554660        0.6940937354  MEMB      108             0.0000000000
     12556       108  SAPS      C33            11.0657586249       12.9094319900      -11.1544224454  MEMB      108             0.0000000000
     12557       108  SAPS      H3X            10.8509721726       13.9941150382      -11.0473315923  MEMB      108             0.0000000000
     12558       108  SAPS      H3Y            11.6694265491       12.7104192343      -10.2665479593  MEMB      108             0.0000000000
     12559       108  SAPS      C34             9.8672881300       11.9139036029      -11.1384262179  MEMB      108             0.0000000000
     12560       108  SAPS      H4X             9.9721421325       10.8524396045      -11.2904205325  MEMB      108             0.0000000000
     12561       108  SAPS      H4Y             9.2935116752       12.2410849428      -12.0336601301  MEMB      108             0.0000000000
     12562       108  SAPS      C35             9.0248586247       11.8045316019       -9.8871781713  MEMB      108             0.0000000000
     12563       108  SAPS      H5X             7.9267211700       11.6904721959       -9.9803116166  MEMB      108             0.0000000000
     12564       108  SAPS      H5Y             8.9564806865       12.6725341474       -9.2957759334  MEMB      108             0.0000000000
     12565       108  SAPS      C36             9.7800060290       11.2101598978       -8.7630916616  MEMB      108             0.0000000000
     12566       108  SAPS      H6X            10.5484268284       11.9963274587       -8.4714949847  MEMB      108             0.0000000000
     12567       108  SAPS      H6Y            10.4217536837       10.4130192487       -9.1008212851  MEMB      108             0.0000000000
     12568       108  SAPS      C37             8.6205869937       10.7419250007       -7.8779458257  MEMB      108             0.0000000000
     12569       108  SAPS      H7X             7.6786249520       11.3361810436       -7.9258666762  MEMB      108             0.0000000000
     12570       108  SAPS      H7Y             8.7751962420       10.8396921760       -6.8321620450  MEMB      108             0.0000000000
     12571       108  SAPS      C38             8.6153988870        9.3697656292       -7.3647548942  MEMB      108             0.0000000000
     12572       108  SAPS      H8X             8.9644755419        8.8796662922       -8.2804387147  MEMB      108             0.0000000000
     12573       108  SAPS      H8Y             7.5483445861        9.2588267360       -7.0628221805  MEMB      108             0.0000000000
     12574       108  SAPS      C39             9.5122328401        9.1283690071       -6.1319075038  MEMB      108             0.0000000000
     12575       108  SAPS      H9X             9.3467884027        9.7886386618       -5.2357902090  MEMB      108             0.0000000000
     12576       108  SAPS      H9Y            10.5568303019        9.3275121741       -6.4713563964  MEMB      108             0.0000000000
     12577       108  SAPS      C310            9.2072296913        7.7659349940       -5.6115696787  MEMB      108             0.0000000000
     12578       108  SAPS      H10X            9.2705896209        7.0611829812       -6.4592719036  MEMB      108             0.0000000000
     12579       108  SAPS      H10Y            8.1569381626        7.5914486781       -5.3565973665  MEMB      108             0.0000000000
     12580       108  SAPS      C311           10.0595573863        7.5585863572       -4.3770056650  MEMB      108             0.0000000000
     12581       108  SAPS      H11X           10.1952900967        6.4687145315       -4.2967233119  MEMB      108             0.0000000000
     12582       108  SAPS      H11Y            9.5278284449        7.8271495460       -3.4514984821  MEMB      108             0.0000000000
     12583       108  SAPS      C312           11.3501220873        8.4007872201       -4.3469586060  MEMB      108             0.0000000000
     12584       108  SAPS      H12X           11.2642130405        9.4552871605       -4.1012002492  MEMB      108             0.0000000000
     12585       108  SAPS      H12Y           11.8495323984        8.4541569386       -5.3367914775  MEMB      108             0.0000000000
     12586       108  SAPS      C313           12.2597183899        7.8102576272       -3.2978055087  MEMB      108             0.0000000000
     12587       108  SAPS      H13X           12.5641923316        6.9262756243       -3.4272545562  MEMB      108             0.0000000000
     12588       108  SAPS      H13Y           11.7813425845        7.6323292170       -2.3766361339  MEMB      108             0.0000000000
     12589       108  SAPS      C314           13.8537450646        7.4535033809       -3.5407213545  MEMB      108             0.0000000000
     12590       108  SAPS      H14X           14.3863301909        7.6284734442       -4.5264830098  MEMB      108             0.0000000000
     12591       108  SAPS      H14Y           14.4408053287        6.8326648071       -2.8379650434  MEMB      108             0.0000000000
     12592       108  SAPS      C315           14.2679665257        8.5275092318       -3.3052842085  MEMB      108             0.0000000000
     12593       108  SAPS      H15X           13.4461487486        8.9763676897       -2.5474149526  MEMB      108             0.0000000000
     12594       108  SAPS      H15Y           13.5441339854        9.2328662721       -3.8716717427  MEMB      108             0.0000000000
     12595       108  SAPS      C316           16.0861121255        8.7983563461       -2.7956361729  MEMB      108             0.0000000000
     12596       108  SAPS      H16X           16.8593994250        9.2951087868       -2.7632793910  MEMB      108             0.0000000000
     12597       108  SAPS      H16Y           16.4982107969        7.9967659453       -2.2865352613  MEMB      108             0.0000000000
     12598       108  SAPS      C317           16.4789711635       10.8219897599       -1.8111925773  MEMB      108             0.0000000000
     12599       108  SAPS      H17X           16.0071310488       11.0698159591       -0.7746139268  MEMB      108             0.0000000000
     12600       108  SAPS      H17Y           15.6132919225       11.6131192660       -1.5601082867  MEMB      108             0.0000000000
     12601       108  SAPS      C318           17.3314061126       11.8139103337       -2.2531054777  MEMB      108             0.0000000000
     12602       108  SAPS      H18X           17.8993130740       12.3579987348       -1.4945464232  MEMB      108             0.0000000000
     12603       108  SAPS      H18Y           17.9604021558       11.7589477294       -3.0695032782  MEMB      108             0.0000000000
     12604       108  SAPS      H18Z           17.6031031710       10.7484238860       -2.2410284660  MEMB      108             0.0000000000
     12605       109  SAPE      N              -4.1182408343      -15.4678111926      -23.0165172142  MEMB      109             0.0000000000
     12606       109  SAPE      HN1            -3.0822470169      -15.4349110555      -22.9709966700  MEMB      109             0.0000000000
     12607       109  SAPE      HN2            -4.3364041304      -16.0474651553      -23.8567872283  MEMB      109             0.0000000000
     12608       109  SAPE      HN3            -4.5196229927      -14.5091244004      -23.0820289090  MEMB      109             0.0000000000
     12609       109  SAPE      C12            -4.5673670071      -16.1052982250      -21.7218706536  MEMB      109             0.0000000000
     12610       109  SAPE      H12A           -3.9102310960      -16.9871303503      -21.5428863724  MEMB      109             0.0000000000
     12611       109  SAPE      H12B           -5.6172504651      -16.4297275574      -21.8577568351  MEMB      109             0.0000000000
     12612       109  SAPE      C11            -4.4823367770      -15.1444149381      -20.5159931109  MEMB      109             0.0000000000
     12613       109  SAPE      H11A           -4.8432562294      -15.7085521737      -19.6126735378  MEMB      109             0.0000000000
     12614       109  SAPE      H11B           -5.1703041218      -14.2808750685      -20.6502320416  MEMB      109             0.0000000000
     12615       109  SAPE      P              -2.5961526344      -14.2533536376      -18.9088826660  MEMB      109             0.0000000000
     12616       109  SAPE      O13            -1.6120966902      -13.1586907757      -19.0920674509  MEMB      109             0.0000000000
     12617       109  SAPE      O14            -3.7016890439      -14.0873169774      -17.9522323305  MEMB      109             0.0000000000
     12618       109  SAPE      O12            -3.1513162527      -14.6471177299      -20.3707049532  MEMB      109             0.0000000000
     12619       109  SAPE      O11            -1.8720943404      -15.5453479454      -18.4722646749  MEMB      109             0.0000000000
     12620       109  SAPE      C1             -0.8941584800      -16.1805324763      -19.2350473969  MEMB      109             0.0000000000
     12621       109  SAPE      HA             -1.3209917573      -16.9002108901      -19.9834647104  MEMB      109             0.0000000000
     12622       109  SAPE      HB             -0.2518584400      -15.4682146974      -19.7958015529  MEMB      109             0.0000000000
     12623       109  SAPE      C2              0.0421480712      -16.9217145821      -18.2743524339  MEMB      109             0.0000000000
     12624       109  SAPE      HS              0.6451645310      -17.3611352422      -19.0791263227  MEMB      109             0.0000000000
     12625       109  SAPE      O21            -0.5575982947      -17.8708029455      -17.4046438445  MEMB      109             0.0000000000
     12626       109  SAPE      C21            -1.0200057198      -18.8609006805      -18.0371098645  MEMB      109             0.0000000000
     12627       109  SAPE      O22            -0.7409969747      -19.1707157471      -19.1808178114  MEMB      109             0.0000000000
     12628       109  SAPE      C22            -1.9712671607      -19.5073032524      -17.0140779692  MEMB      109             0.0000000000
     12629       109  SAPE      H2R            -2.4577296410      -20.3190658293      -17.4974776504  MEMB      109             0.0000000000
     12630       109  SAPE      H2S            -1.3775543596      -19.8282480843      -16.1356910549  MEMB      109             0.0000000000
     12631       109  SAPE      C3              0.9213269562      -16.1150448212      -17.2981815972  MEMB      109             0.0000000000
     12632       109  SAPE      HX              1.3784989288      -15.2613570581      -17.8240785063  MEMB      109             0.0000000000
     12633       109  SAPE      HY              1.7556522996      -16.8004038708      -17.0342790382  MEMB      109             0.0000000000
     12634       109  SAPE      O31             0.2761844816      -15.6379604282      -16.1151799301  MEMB      109             0.0000000000
     12635       109  SAPE      C31             0.5902051482      -16.2426717371      -14.9973411848  MEMB      109             0.0000000000
     12636       109  SAPE      O32             1.2297055491      -17.2696714496      -14.8468425235  MEMB      109             0.0000000000
     12637       109  SAPE      C32             0.1968462661      -15.3013664618      -13.8580413508  MEMB      109             0.0000000000
     12638       109  SAPE      H2X             0.5350774905      -15.8029717500      -12.9272521698  MEMB      109             0.0000000000
     12639       109  SAPE      H2Y            -0.8875192493      -15.1584747509      -13.9085065510  MEMB      109             0.0000000000
     12640       109  SAPE      C23            -3.3347967648      -18.8983038695      -16.6239361293  MEMB      109             0.0000000000
     12641       109  SAPE      H3R            -3.8078915497      -18.5487820355      -17.5728821006  MEMB      109             0.0000000000
     12642       109  SAPE      H3S            -3.0415767508      -18.0638799937      -15.9755195266  MEMB      109             0.0000000000
     12643       109  SAPE      C24            -4.2740358032      -19.8511238956      -15.8211235192  MEMB      109             0.0000000000
     12644       109  SAPE      H4R            -3.6940446562      -20.2652699392      -14.9698007420  MEMB      109             0.0000000000
     12645       109  SAPE      H4S            -4.6157006287      -20.7324845860      -16.3664000354  MEMB      109             0.0000000000
     12646       109  SAPE      C25            -5.5700556478      -19.2913995616      -15.3379067912  MEMB      109             0.0000000000
     12647       109  SAPE      H5R            -6.3532015965      -19.1285472677      -16.0926070437  MEMB      109             0.0000000000
     12648       109  SAPE      C26            -5.8384235858      -18.9390322626      -14.0879422477  MEMB      109             0.0000000000
     12649       109  SAPE      H6R            -6.8752782378      -18.6964672106      -13.8863564912  MEMB      109             0.0000000000
     12650       109  SAPE      C27            -4.9791192658      -18.9790123183      -12.8713205971  MEMB      109             0.0000000000
     12651       109  SAPE      H7R            -4.9406949579      -20.0205614418      -12.4679865558  MEMB      109             0.0000000000
     12652       109  SAPE      H7S            -5.4501076767      -18.3686081519      -12.1150717320  MEMB      109             0.0000000000
     12653       109  SAPE      C28            -3.6922329289      -18.2302594758      -12.9941653221  MEMB      109             0.0000000000
     12654       109  SAPE      H8R            -3.7106177292      -17.2604312720      -13.5022613016  MEMB      109             0.0000000000
     12655       109  SAPE      C29            -2.6408767607      -18.5494006829      -12.2833980522  MEMB      109             0.0000000000
     12656       109  SAPE      H9R            -1.6874664867      -17.9945422039      -12.3754764426  MEMB      109             0.0000000000
     12657       109  SAPE      C210           -2.7474112597      -19.6813856624      -11.3297912093  MEMB      109             0.0000000000
     12658       109  SAPE      H10R           -2.6065857597      -20.6826327127      -11.7951696534  MEMB      109             0.0000000000
     12659       109  SAPE      H10S           -3.6123726927      -19.6861920872      -10.6414761029  MEMB      109             0.0000000000
     12660       109  SAPE      C211           -1.6980283182      -19.4228121444      -10.4097776299  MEMB      109             0.0000000000
     12661       109  SAPE      H11R           -0.9848305826      -20.2308440198      -10.5610255400  MEMB      109             0.0000000000
     12662       109  SAPE      C212           -1.4444846778      -18.4113391933       -9.5676275480  MEMB      109             0.0000000000
     12663       109  SAPE      H12R           -0.8644236258      -18.6273866925       -8.6967028900  MEMB      109             0.0000000000
     12664       109  SAPE      C213           -2.0300964842      -17.1506193068       -9.1652905952  MEMB      109             0.0000000000
     12665       109  SAPE      H13R           -2.3990813931      -16.7403156864      -10.1063080075  MEMB      109             0.0000000000
     12666       109  SAPE      H13S           -1.2180841829      -16.4903494049       -8.7700318874  MEMB      109             0.0000000000
     12667       109  SAPE      C214           -3.0698190391      -17.4776488703       -8.1310642462  MEMB      109             0.0000000000
     12668       109  SAPE      H14R           -4.0422814544      -17.6563688480       -8.5882260549  MEMB      109             0.0000000000
     12669       109  SAPE      C215           -2.9087303225      -17.7497380007       -6.8184670658  MEMB      109             0.0000000000
     12670       109  SAPE      H15R           -3.7753620724      -17.8547853335       -6.1693173138  MEMB      109             0.0000000000
     12671       109  SAPE      C216           -1.6500494648      -17.7886392918       -6.0457266656  MEMB      109             0.0000000000
     12672       109  SAPE      H16R           -1.0863814052      -16.9560257817       -6.5081839909  MEMB      109             0.0000000000
     12673       109  SAPE      H16S           -1.0388021134      -18.7160515791       -6.1659662802  MEMB      109             0.0000000000
     12674       109  SAPE      C217           -1.8888366752      -17.5855911711       -4.5250100140  MEMB      109             0.0000000000
     12675       109  SAPE      H17R           -2.2631383326      -16.5656767187       -4.3063763053  MEMB      109             0.0000000000
     12676       109  SAPE      H17S           -0.9217405583      -17.7038513161       -4.0015847698  MEMB      109             0.0000000000
     12677       109  SAPE      C218           -2.6711912069      -18.6459288461       -3.8190756013  MEMB      109             0.0000000000
     12678       109  SAPE      H18R           -1.9350109887      -19.2181526749       -3.2837354499  MEMB      109             0.0000000000
     12679       109  SAPE      H18S           -3.2530754910      -19.2452332133       -4.5134074001  MEMB      109             0.0000000000
     12680       109  SAPE      C219           -3.2934509688      -18.3106345435       -2.5053562427  MEMB      109             0.0000000000
     12681       109  SAPE      H19R           -4.0436478255      -17.5384134746       -2.6537064233  MEMB      109             0.0000000000
     12682       109  SAPE      H19S           -2.4795964973      -17.8652462633       -1.9963369133  MEMB      109             0.0000000000
     12683       109  SAPE      C220           -3.6449375100      -19.4742578600       -1.5851437328  MEMB      109             0.0000000000
     12684       109  SAPE      H20R           -2.7448524549      -19.9376332894       -1.1191381752  MEMB      109             0.0000000000
     12685       109  SAPE      H20S           -4.1774829498      -20.2315726149       -2.1846422515  MEMB      109             0.0000000000
     12686       109  SAPE      H20T           -4.2745285892      -19.1242540280       -0.7477250067  MEMB      109             0.0000000000
     12687       109  SAPE      C33             0.7887779293      -13.8804690949      -13.9630738555  MEMB      109             0.0000000000
     12688       109  SAPE      H3X             0.9256594490      -13.5266785472      -15.0063805766  MEMB      109             0.0000000000
     12689       109  SAPE      H3Y             1.7373886048      -14.0484061637      -13.5333379398  MEMB      109             0.0000000000
     12690       109  SAPE      C34             0.5251805493      -12.8049313141      -12.9401012526  MEMB      109             0.0000000000
     12691       109  SAPE      H4X             1.4191329729      -12.1312347871      -12.8119475614  MEMB      109             0.0000000000
     12692       109  SAPE      H4Y             0.3780736102      -13.3071798287      -11.9656868079  MEMB      109             0.0000000000
     12693       109  SAPE      C35            -0.5871257500      -11.9709898841      -13.4947553147  MEMB      109             0.0000000000
     12694       109  SAPE      H5X            -1.0587688021      -12.5606133510      -14.3254605833  MEMB      109             0.0000000000
     12695       109  SAPE      H5Y            -0.0610446055      -11.1267695400      -13.9738232841  MEMB      109             0.0000000000
     12696       109  SAPE      C36            -1.6268408663      -11.5474141181      -12.4585453118  MEMB      109             0.0000000000
     12697       109  SAPE      H6X            -2.1430269439      -10.5831288983      -12.5773894410  MEMB      109             0.0000000000
     12698       109  SAPE      H6Y            -1.1794400536      -11.3447614148      -11.4785372334  MEMB      109             0.0000000000
     12699       109  SAPE      C37            -2.7990798605      -12.4997013315      -12.5324214476  MEMB      109             0.0000000000
     12700       109  SAPE      H7X            -2.4581412396      -13.5288439837      -12.3401131990  MEMB      109             0.0000000000
     12701       109  SAPE      H7Y            -3.2625324772      -12.4018493207      -13.5503711946  MEMB      109             0.0000000000
     12702       109  SAPE      C38            -3.8465652406      -12.1729192984      -11.5234504839  MEMB      109             0.0000000000
     12703       109  SAPE      H8X            -4.7459817965      -12.8155994075      -11.6751127158  MEMB      109             0.0000000000
     12704       109  SAPE      H8Y            -4.1441997635      -11.1195882565      -11.7573447925  MEMB      109             0.0000000000
     12705       109  SAPE      C39            -3.3725609015      -12.1908831781      -10.0598969439  MEMB      109             0.0000000000
     12706       109  SAPE      H9X            -4.2183773409      -12.4301803265       -9.4060054656  MEMB      109             0.0000000000
     12707       109  SAPE      H9Y            -3.0486124263      -11.1648629698       -9.7921626137  MEMB      109             0.0000000000
     12708       109  SAPE      C310           -2.4265594822      -13.2625303647       -9.5864079060  MEMB      109             0.0000000000
     12709       109  SAPE      H10X           -1.3980590818      -12.9563633542       -9.8399864979  MEMB      109             0.0000000000
     12710       109  SAPE      H10Y           -2.6761928207      -14.1731283745      -10.1784734942  MEMB      109             0.0000000000
     12711       109  SAPE      C311           -2.6152779958      -13.4934682362       -8.0619856656  MEMB      109             0.0000000000
     12712       109  SAPE      H11X           -1.8753461523      -14.2358385628       -7.7069013015  MEMB      109             0.0000000000
     12713       109  SAPE      H11Y           -3.6187371963      -13.9685180930       -7.9392058717  MEMB      109             0.0000000000
     12714       109  SAPE      C312           -2.5489965178      -12.2279629221       -7.1585979130  MEMB      109             0.0000000000
     12715       109  SAPE      H12X           -3.2857899276      -11.4648882211       -7.4983370578  MEMB      109             0.0000000000
     12716       109  SAPE      H12Y           -1.5542157495      -11.7345184516       -7.1584819650  MEMB      109             0.0000000000
     12717       109  SAPE      C313           -2.9676182250      -12.4605978417       -5.7103382452  MEMB      109             0.0000000000
     12718       109  SAPE      H13X           -3.9163891462      -13.0410513310       -5.6639499677  MEMB      109             0.0000000000
     12719       109  SAPE      H13Y           -3.1712418995      -11.4606927948       -5.2480517408  MEMB      109             0.0000000000
     12720       109  SAPE      C314           -1.9656164572      -13.1476976759       -4.8070217286  MEMB      109             0.0000000000
     12721       109  SAPE      H14X           -1.0263789604      -12.5490284575       -4.7420907803  MEMB      109             0.0000000000
     12722       109  SAPE      H14Y           -1.6868354187      -14.1661678422       -5.1633915331  MEMB      109             0.0000000000
     12723       109  SAPE      C315           -2.7089295224      -13.1550154635       -3.4744621095  MEMB      109             0.0000000000
     12724       109  SAPE      H15X           -3.6379635296      -13.7613963644       -3.4756340776  MEMB      109             0.0000000000
     12725       109  SAPE      H15Y           -2.8266041144      -12.1072611990       -3.1240798293  MEMB      109             0.0000000000
     12726       109  SAPE      C316           -1.9655240171      -13.7148458289       -2.3583976430  MEMB      109             0.0000000000
     12727       109  SAPE      H16X           -1.0802017184      -13.0736824794       -2.4354908543  MEMB      109             0.0000000000
     12728       109  SAPE      H16Y           -1.8404009583      -14.7711192543       -2.7402865198  MEMB      109             0.0000000000
     12729       109  SAPE      C317           -2.4075774287      -13.1946762573       -0.9701917368  MEMB      109             0.0000000000
     12730       109  SAPE      H17X           -3.3772948458      -13.6952388022       -0.8113056121  MEMB      109             0.0000000000
     12731       109  SAPE      H17Y           -2.3607644932      -12.0999016819       -1.0489955744  MEMB      109             0.0000000000
     12732       109  SAPE      C318           -1.5886537340      -13.2989630094        0.3124922538  MEMB      109             0.0000000000
     12733       109  SAPE      H18X           -2.0312289260      -13.8165118436        1.1948950852  MEMB      109             0.0000000000
     12734       109  SAPE      H18Y           -0.4931006065      -13.1167629165        0.4055557844  MEMB      109             0.0000000000
     12735       109  SAPE      H18Z           -1.3600525148      -14.1684178180       -0.1886057956  MEMB      109             0.0000000000
     12736       110  CHL1      C3             -9.6564481404       13.0488543973      -17.2579678391  MEMB      110             0.0000000000
     12737       110  CHL1      H3             -9.2277873572       12.0629130247      -16.9732393381  MEMB      110             0.0000000000
     12738       110  CHL1      O3             -9.6313532418       13.1358111924      -18.6826806689  MEMB      110             0.0000000000
     12739       110  CHL1      H3'            -8.7505954913       12.8508329020      -18.9428936816  MEMB      110             0.0000000000
     12740       110  CHL1      C4            -11.0785556419       13.1266132819      -16.7024378294  MEMB      110             0.0000000000
     12741       110  CHL1      H4A           -11.4924274620       14.1109096556      -17.0042360194  MEMB      110             0.0000000000
     12742       110  CHL1      H4B           -11.7072964299       12.3321322748      -17.1645051982  MEMB      110             0.0000000000
     12743       110  CHL1      C5            -11.1118241808       13.0499913526      -15.1942621460  MEMB      110             0.0000000000
     12744       110  CHL1      C6            -11.7292591050       12.0711406986      -14.5505367702  MEMB      110             0.0000000000
     12745       110  CHL1      H6            -12.1134240682       11.2291563046      -15.1187811944  MEMB      110             0.0000000000
     12746       110  CHL1      C7            -11.9392324639       12.0728049675      -13.0713864603  MEMB      110             0.0000000000
     12747       110  CHL1      H7A           -13.0189900647       12.0684094627      -12.8065781788  MEMB      110             0.0000000000
     12748       110  CHL1      H7B           -11.4473740628       11.1743060000      -12.6324721825  MEMB      110             0.0000000000
     12749       110  CHL1      C8            -11.5107235420       13.3408208900      -12.3792886019  MEMB      110             0.0000000000
     12750       110  CHL1      H8            -12.2979997684       14.0984642152      -12.5918844197  MEMB      110             0.0000000000
     12751       110  CHL1      C14           -11.4078143439       13.0244632497      -10.9252638784  MEMB      110             0.0000000000
     12752       110  CHL1      H14           -10.6829027174       12.1528976096      -10.8881745882  MEMB      110             0.0000000000
     12753       110  CHL1      C15           -12.6622873000       12.5649411519      -10.2484984071  MEMB      110             0.0000000000
     12754       110  CHL1      H15A          -13.6244815969       12.6883968955      -10.7870989193  MEMB      110             0.0000000000
     12755       110  CHL1      H15B          -12.2984024365       11.5548013284      -10.1594953906  MEMB      110             0.0000000000
     12756       110  CHL1      C16           -12.5684612051       12.8260228339       -8.7833915971  MEMB      110             0.0000000000
     12757       110  CHL1      H16A          -13.3267415452       13.5877936996       -8.5883248646  MEMB      110             0.0000000000
     12758       110  CHL1      H16B          -12.7832437532       11.9760952503       -8.1135154918  MEMB      110             0.0000000000
     12759       110  CHL1      C17           -11.1191561122       13.3367638968       -8.6388263936  MEMB      110             0.0000000000
     12760       110  CHL1      H17           -10.4489507927       12.4431181822       -8.5491688065  MEMB      110             0.0000000000
     12761       110  CHL1      C13           -10.8273090867       14.0170895744       -9.9946813873  MEMB      110             0.0000000000
     12762       110  CHL1      C18           -11.6423499717       15.3175344497      -10.0866486935  MEMB      110             0.0000000000
     12763       110  CHL1      H18A          -11.6897885689       15.6832041224      -11.1291158553  MEMB      110             0.0000000000
     12764       110  CHL1      H18B          -12.6905832097       15.1949442554       -9.7555590427  MEMB      110             0.0000000000
     12765       110  CHL1      H18C          -11.1392860194       16.0749550023       -9.4578352073  MEMB      110             0.0000000000
     12766       110  CHL1      C12            -9.3863147501       14.1623888972      -10.4797062463  MEMB      110             0.0000000000
     12767       110  CHL1      H12A           -8.8443097155       14.8708696859       -9.8334738784  MEMB      110             0.0000000000
     12768       110  CHL1      H12B           -8.8939435473       13.1666694207      -10.3909544051  MEMB      110             0.0000000000
     12769       110  CHL1      C11            -9.3707902489       14.6173562318      -11.9678149805  MEMB      110             0.0000000000
     12770       110  CHL1      H11A           -9.7707949063       15.6466610730      -12.0299934083  MEMB      110             0.0000000000
     12771       110  CHL1      H11B           -8.3288641292       14.6368484304      -12.3269444925  MEMB      110             0.0000000000
     12772       110  CHL1      C9            -10.1640337057       13.6866722658      -12.9238015351  MEMB      110             0.0000000000
     12773       110  CHL1      H9             -9.5984546997       12.7143090068      -12.8802787662  MEMB      110             0.0000000000
     12774       110  CHL1      C10           -10.2903609109       14.0855702748      -14.4275871714  MEMB      110             0.0000000000
     12775       110  CHL1      C19           -10.9683323162       15.4744906156      -14.5372489978  MEMB      110             0.0000000000
     12776       110  CHL1      H19A          -11.9747210499       15.4938416313      -14.0683503009  MEMB      110             0.0000000000
     12777       110  CHL1      H19B          -10.3386748978       16.2371517984      -14.0403392219  MEMB      110             0.0000000000
     12778       110  CHL1      H19C          -11.1031496792       15.7764295463      -15.5949069407  MEMB      110             0.0000000000
     12779       110  CHL1      C1             -8.8735359549       14.0673864417      -15.0739462686  MEMB      110             0.0000000000
     12780       110  CHL1      H1A            -8.3125564654       14.8895950331      -14.5880977019  MEMB      110             0.0000000000
     12781       110  CHL1      H1B            -8.3933604623       13.1062884895      -14.7807561474  MEMB      110             0.0000000000
     12782       110  CHL1      C2             -8.7938748608       14.1443912886      -16.6197843566  MEMB      110             0.0000000000
     12783       110  CHL1      H2A            -7.7669180006       13.9359562921      -16.9829587177  MEMB      110             0.0000000000
     12784       110  CHL1      H2B            -9.0762043862       15.1693562837      -16.9429899259  MEMB      110             0.0000000000
     12785       110  CHL1      C20           -10.9968936749       14.1488322811       -7.3836588885  MEMB      110             0.0000000000
     12786       110  CHL1      H20           -11.6458394719       15.0606043284       -7.4125297822  MEMB      110             0.0000000000
     12787       110  CHL1      C21            -9.5380011011       14.5816996528       -7.1639547718  MEMB      110             0.0000000000
     12788       110  CHL1      H21A           -8.8743680220       13.7269230283       -7.3974247207  MEMB      110             0.0000000000
     12789       110  CHL1      H21B           -9.3431382973       14.8974795644       -6.1192547379  MEMB      110             0.0000000000
     12790       110  CHL1      H21C           -9.2730614002       15.4331316777       -7.8211848350  MEMB      110             0.0000000000
     12791       110  CHL1      C22           -11.5173054173       13.3620920723       -6.1963613047  MEMB      110             0.0000000000
     12792       110  CHL1      H22A          -12.5114270699       12.8665452959       -6.3476003944  MEMB      110             0.0000000000
     12793       110  CHL1      H22B          -10.8086817702       12.6029821580       -5.8128892430  MEMB      110             0.0000000000
     12794       110  CHL1      C23           -11.7968740955       14.3913779853       -5.1772721871  MEMB      110             0.0000000000
     12795       110  CHL1      H23A          -10.9968598025       15.0611731087       -4.8215458043  MEMB      110             0.0000000000
     12796       110  CHL1      H23B          -12.6366307151       15.0549951035       -5.5668847351  MEMB      110             0.0000000000
     12797       110  CHL1      C24           -12.3394608322       13.7038418843       -4.0048824259  MEMB      110             0.0000000000
     12798       110  CHL1      H24A          -12.4521691884       14.6915171840       -3.5010947656  MEMB      110             0.0000000000
     12799       110  CHL1      H24B          -13.2034088655       13.1487944261       -4.3818047151  MEMB      110             0.0000000000
     12800       110  CHL1      C25           -11.8299820444       12.7145816030       -2.9710497611  MEMB      110             0.0000000000
     12801       110  CHL1      H25           -11.6967538048       11.7942659834       -3.5678530072  MEMB      110             0.0000000000
     12802       110  CHL1      C26           -10.6526256010       13.4366800052       -2.3305924899  MEMB      110             0.0000000000
     12803       110  CHL1      H26A          -10.9655382989       14.2638934275       -1.6306005694  MEMB      110             0.0000000000
     12804       110  CHL1      H26B          -10.1670856625       12.6790380637       -1.7200322514  MEMB      110             0.0000000000
     12805       110  CHL1      H26C           -9.9960431479       13.8600525186       -3.0981229961  MEMB      110             0.0000000000
     12806       110  CHL1      C27           -12.7523218560       12.2609443887       -1.7530870348  MEMB      110             0.0000000000
     12807       110  CHL1      H27A          -13.1430827827       12.8932945659       -0.9278487795  MEMB      110             0.0000000000
     12808       110  CHL1      H27B          -13.8215096518       12.0935143430       -2.0419276371  MEMB      110             0.0000000000
     12809       110  CHL1      H27C          -12.3478487060       13.1332780864       -1.2378236080  MEMB      110             0.0000000000
     12810       111  CHL1      C3            -16.1123111291        0.7696362318      -17.3569179249  MEMB      111             0.0000000000
     12811       111  CHL1      H3            -15.3801404187       -0.0495723995      -17.1784662453  MEMB      111             0.0000000000
     12812       111  CHL1      O3            -16.6482706120        0.7464253637      -18.6641651584  MEMB      111             0.0000000000
     12813       111  CHL1      H3'           -15.8947260122        0.5953077827      -19.2277869616  MEMB      111             0.0000000000
     12814       111  CHL1      C4            -17.1922886162        0.7408787984      -16.3195594544  MEMB      111             0.0000000000
     12815       111  CHL1      H4A           -17.8331413534        1.5685052333      -16.6779310850  MEMB      111             0.0000000000
     12816       111  CHL1      H4B           -17.7630843741       -0.1778515675      -16.4557296896  MEMB      111             0.0000000000
     12817       111  CHL1      C5            -16.7871194437        0.9669718358      -14.8619020744  MEMB      111             0.0000000000
     12818       111  CHL1      C6            -17.0861974421        0.1669404210      -13.8883934455  MEMB      111             0.0000000000
     12819       111  CHL1      H6            -17.6409805075       -0.6535514608      -14.2446066080  MEMB      111             0.0000000000
     12820       111  CHL1      C7            -16.7866333376        0.3724816001      -12.4322383991  MEMB      111             0.0000000000
     12821       111  CHL1      H7A           -17.6095879416        0.2199972265      -11.7264131909  MEMB      111             0.0000000000
     12822       111  CHL1      H7B           -15.9959350960       -0.3245230441      -12.1126626681  MEMB      111             0.0000000000
     12823       111  CHL1      C8            -16.3765081621        1.8066416334      -12.1648057209  MEMB      111             0.0000000000
     12824       111  CHL1      H8            -17.2972011947        2.4536970933      -12.2094866223  MEMB      111             0.0000000000
     12825       111  CHL1      C14           -15.6248352818        1.8562876003      -10.8658812720  MEMB      111             0.0000000000
     12826       111  CHL1      H14           -14.6980371147        1.2698781785      -11.0013058071  MEMB      111             0.0000000000
     12827       111  CHL1      C15           -16.2623549318        1.1871934848       -9.7092224327  MEMB      111             0.0000000000
     12828       111  CHL1      H15A          -17.2269316282        1.4882561495      -10.1021090849  MEMB      111             0.0000000000
     12829       111  CHL1      H15B          -16.1739167566        0.0944421023       -9.6447336127  MEMB      111             0.0000000000
     12830       111  CHL1      C16           -15.7686355571        1.9179696066       -8.4993374939  MEMB      111             0.0000000000
     12831       111  CHL1      H16A          -16.4600662335        2.7243907680       -8.1951877802  MEMB      111             0.0000000000
     12832       111  CHL1      H16B          -15.5550634790        1.2797256417       -7.6319836319  MEMB      111             0.0000000000
     12833       111  CHL1      C17           -14.7153951003        2.8452530286       -8.9705970737  MEMB      111             0.0000000000
     12834       111  CHL1      H17           -13.7654957964        2.2965890838       -9.0296080388  MEMB      111             0.0000000000
     12835       111  CHL1      C13           -15.2058898930        3.1968685144      -10.3964691684  MEMB      111             0.0000000000
     12836       111  CHL1      C18           -16.4274616027        4.1378907069      -10.4249192068  MEMB      111             0.0000000000
     12837       111  CHL1      H18A          -17.0935513488        4.0542197420       -9.5603545867  MEMB      111             0.0000000000
     12838       111  CHL1      H18B          -15.9472082792        5.0291541335      -10.1881378677  MEMB      111             0.0000000000
     12839       111  CHL1      H18C          -16.9640062414        4.3672486330      -11.3771996018  MEMB      111             0.0000000000
     12840       111  CHL1      C12           -14.1278327538        3.5068045338      -11.3780300964  MEMB      111             0.0000000000
     12841       111  CHL1      H12A          -13.6717361482        4.4571119932      -11.3960794953  MEMB      111             0.0000000000
     12842       111  CHL1      H12B          -13.2607494186        2.8415574620      -11.2467881691  MEMB      111             0.0000000000
     12843       111  CHL1      C11           -14.6882098960        3.4270194272      -12.7564191656  MEMB      111             0.0000000000
     12844       111  CHL1      H11A          -15.2960040049        4.3404535502      -12.9062150782  MEMB      111             0.0000000000
     12845       111  CHL1      H11B          -13.7649724206        3.3468286834      -13.3568015231  MEMB      111             0.0000000000
     12846       111  CHL1      C9            -15.3700799785        2.1701414893      -13.1700370050  MEMB      111             0.0000000000
     12847       111  CHL1      H9            -14.5367171964        1.4338165001      -13.1859502989  MEMB      111             0.0000000000
     12848       111  CHL1      C10           -15.9798628963        2.1550528366      -14.5322381989  MEMB      111             0.0000000000
     12849       111  CHL1      C19           -16.6350303334        3.4796253935      -14.6336179959  MEMB      111             0.0000000000
     12850       111  CHL1      H19A          -17.1511120487        3.1761442900      -15.5261560989  MEMB      111             0.0000000000
     12851       111  CHL1      H19B          -17.3368970923        3.7921197351      -13.8303450469  MEMB      111             0.0000000000
     12852       111  CHL1      H19C          -16.0753060193        4.3492946211      -15.0240649289  MEMB      111             0.0000000000
     12853       111  CHL1      C1            -15.0282893398        2.0720917751      -15.6671304066  MEMB      111             0.0000000000
     12854       111  CHL1      H1A           -14.6589769331        3.0944399758      -15.4762691602  MEMB      111             0.0000000000
     12855       111  CHL1      H1B           -14.2812704466        1.2589256998      -15.5066930834  MEMB      111             0.0000000000
     12856       111  CHL1      C2            -15.4591805627        2.0760638040      -17.1476245845  MEMB      111             0.0000000000
     12857       111  CHL1      H2A           -14.6303075740        2.0790583829      -17.8877240831  MEMB      111             0.0000000000
     12858       111  CHL1      H2B           -16.0711059895        2.9826497407      -17.3416599218  MEMB      111             0.0000000000
     12859       111  CHL1      C20           -14.5581721407        3.8763950693       -7.9176983943  MEMB      111             0.0000000000
     12860       111  CHL1      H20           -15.5375123989        4.4242103919       -7.8635922148  MEMB      111             0.0000000000
     12861       111  CHL1      C21           -13.3821355102        4.6570111220       -8.4112684216  MEMB      111             0.0000000000
     12862       111  CHL1      H21A          -12.7409655016        4.3533014684       -9.2440242121  MEMB      111             0.0000000000
     12863       111  CHL1      H21B          -12.8470320711        5.2819250829       -7.6910920571  MEMB      111             0.0000000000
     12864       111  CHL1      H21C          -14.0249993235        5.3879509006       -8.8422458099  MEMB      111             0.0000000000
     12865       111  CHL1      C22           -14.2968658931        3.4808623274       -6.4557476686  MEMB      111             0.0000000000
     12866       111  CHL1      H22A          -14.8221861876        2.5810949581       -6.1380274521  MEMB      111             0.0000000000
     12867       111  CHL1      H22B          -13.2002054079        3.3896199992       -6.5035772849  MEMB      111             0.0000000000
     12868       111  CHL1      C23           -14.5647286817        4.5056030458       -5.3209557078  MEMB      111             0.0000000000
     12869       111  CHL1      H23A          -13.5854750101        5.0088966408       -5.4092928585  MEMB      111             0.0000000000
     12870       111  CHL1      H23B          -15.4386651922        5.1482174158       -5.4767462799  MEMB      111             0.0000000000
     12871       111  CHL1      C24           -14.6333684188        4.0230293782       -3.8732429774  MEMB      111             0.0000000000
     12872       111  CHL1      H24A          -15.2534933802        3.1199199157       -3.9190670244  MEMB      111             0.0000000000
     12873       111  CHL1      H24B          -13.6441591778        3.5340942241       -3.9756108511  MEMB      111             0.0000000000
     12874       111  CHL1      C25           -15.1802592703        4.9499905134       -2.5798791543  MEMB      111             0.0000000000
     12875       111  CHL1      H25           -15.1165069091        4.1551609128       -1.8288448642  MEMB      111             0.0000000000
     12876       111  CHL1      C26           -14.6714939798        5.8555000784       -1.3187525085  MEMB      111             0.0000000000
     12877       111  CHL1      H26A          -14.3005086318        5.7262597739       -2.3088888636  MEMB      111             0.0000000000
     12878       111  CHL1      H26B          -14.8713877644        6.8723296829       -1.6360741010  MEMB      111             0.0000000000
     12879       111  CHL1      H26C          -13.9249741303        6.5755476501       -0.8489823605  MEMB      111             0.0000000000
     12880       111  CHL1      C27           -16.3688107913        5.8464494313       -2.8234671005  MEMB      111             0.0000000000
     12881       111  CHL1      H27A          -17.2117165734        5.1942093495       -2.8030652506  MEMB      111             0.0000000000
     12882       111  CHL1      H27B          -16.5579010974        6.5489747404       -1.9696925282  MEMB      111             0.0000000000
     12883       111  CHL1      H27C          -16.2551547827        6.4571138230       -3.7423892483  MEMB      111             0.0000000000
     12884       112  CHL1      C3             16.4478173871       -1.0486729800      -17.3480024065  MEMB      112             0.0000000000
     12885       112  CHL1      H3             16.1891706679        0.0357453515      -17.3990023403  MEMB      112             0.0000000000
     12886       112  CHL1      O3             16.5511783138       -1.5483913352      -18.6750814989  MEMB      112             0.0000000000
     12887       112  CHL1      H3'            17.0263991937       -0.8383936164      -19.1630960198  MEMB      112             0.0000000000
     12888       112  CHL1      C4             17.7982009171       -1.1923138486      -16.6416956599  MEMB      112             0.0000000000
     12889       112  CHL1      H4A            18.0970055287       -2.2644801772      -16.6303249786  MEMB      112             0.0000000000
     12890       112  CHL1      H4B            18.5860806575       -0.6750238261      -17.2361551928  MEMB      112             0.0000000000
     12891       112  CHL1      C5             17.6926834587       -0.6466263639      -15.2337675499  MEMB      112             0.0000000000
     12892       112  CHL1      C6             18.4319918900        0.3974464314      -14.8184975599  MEMB      112             0.0000000000
     12893       112  CHL1      H6             19.0992577853        0.9323243078      -15.5171221945  MEMB      112             0.0000000000
     12894       112  CHL1      C7             18.4914721777        0.8347396096      -13.3861486961  MEMB      112             0.0000000000
     12895       112  CHL1      H7A            19.5571645045        0.9145966496      -13.0883684249  MEMB      112             0.0000000000
     12896       112  CHL1      H7B            18.0458425393        1.8458982897      -13.2757820012  MEMB      112             0.0000000000
     12897       112  CHL1      C8             17.7668183656       -0.1281586213      -12.4006907645  MEMB      112             0.0000000000
     12898       112  CHL1      H8             18.4145183254       -1.0029908410      -12.1798920309  MEMB      112             0.0000000000
     12899       112  CHL1      C14            17.4928684227        0.6057048725      -11.1095919778  MEMB      112             0.0000000000
     12900       112  CHL1      H14            16.8494882411        1.4264314909      -11.4035257206  MEMB      112             0.0000000000
     12901       112  CHL1      C15            18.6683891835        1.2905089306      -10.4102346555  MEMB      112             0.0000000000
     12902       112  CHL1      H15A           19.4959864681        0.5529103177      -10.4011324077  MEMB      112             0.0000000000
     12903       112  CHL1      H15B           18.9715062628        2.2362677302      -10.9026332042  MEMB      112             0.0000000000
     12904       112  CHL1      C16            18.1320615199        1.6016553775       -9.0170408582  MEMB      112             0.0000000000
     12905       112  CHL1      H16A           18.8333131210        1.2228836452       -8.2448146801  MEMB      112             0.0000000000
     12906       112  CHL1      H16B           18.0568378758        2.6971190364       -8.8692844395  MEMB      112             0.0000000000
     12907       112  CHL1      C17            16.7586295884        0.8632520363       -8.8798651831  MEMB      112             0.0000000000
     12908       112  CHL1      H17            15.8982856820        1.4916417463       -9.1458426090  MEMB      112             0.0000000000
     12909       112  CHL1      C13            16.7158712855       -0.1522388637      -10.0492374619  MEMB      112             0.0000000000
     12910       112  CHL1      C18            17.4976725782       -1.4317990250       -9.6914972285  MEMB      112             0.0000000000
     12911       112  CHL1      H18A           17.5032942609       -2.1600814335      -10.5246688804  MEMB      112             0.0000000000
     12912       112  CHL1      H18B           18.5625050532       -1.2378617171       -9.4699447882  MEMB      112             0.0000000000
     12913       112  CHL1      H18C           17.0019334322       -1.9089738497       -8.8282124617  MEMB      112             0.0000000000
     12914       112  CHL1      C12            15.3244189797       -0.4931872878      -10.6278285905  MEMB      112             0.0000000000
     12915       112  CHL1      H12A           14.7730421494       -1.1208231406       -9.9063517605  MEMB      112             0.0000000000
     12916       112  CHL1      H12B           14.6862395523        0.3968766101      -10.8044467931  MEMB      112             0.0000000000
     12917       112  CHL1      C11            15.4918325143       -1.2771627395      -11.9459349878  MEMB      112             0.0000000000
     12918       112  CHL1      H11A           15.8813258928       -2.2692614624      -11.6539457087  MEMB      112             0.0000000000
     12919       112  CHL1      H11B           14.4939513005       -1.4318813837      -12.3983173692  MEMB      112             0.0000000000
     12920       112  CHL1      C9             16.4354697602       -0.5956195841      -12.9929330347  MEMB      112             0.0000000000
     12921       112  CHL1      H9             15.8901954886        0.3402368298      -13.2529924482  MEMB      112             0.0000000000
     12922       112  CHL1      C10            16.6278290263       -1.3392030594      -14.3477283116  MEMB      112             0.0000000000
     12923       112  CHL1      C19            17.0177162062       -2.7880726043      -14.0277787961  MEMB      112             0.0000000000
     12924       112  CHL1      H19A           16.1868072665       -3.2407266262      -13.4505501056  MEMB      112             0.0000000000
     12925       112  CHL1      H19B           17.1430554075       -3.3936104583      -14.9479589806  MEMB      112             0.0000000000
     12926       112  CHL1      H19C           17.9444932022       -2.8327061910      -13.4254990807  MEMB      112             0.0000000000
     12927       112  CHL1      C1             15.2660762821       -1.4037100203      -15.0990309858  MEMB      112             0.0000000000
     12928       112  CHL1      H1A            14.6343460405       -2.1709973323      -14.5942852545  MEMB      112             0.0000000000
     12929       112  CHL1      H1B            14.7658974659       -0.4167403028      -15.0064813513  MEMB      112             0.0000000000
     12930       112  CHL1      C2             15.3158913928       -1.7673560456      -16.5980142445  MEMB      112             0.0000000000
     12931       112  CHL1      H2A            14.3430410754       -1.4426758404      -17.0360978198  MEMB      112             0.0000000000
     12932       112  CHL1      H2B            15.3976841789       -2.8691145233      -16.7172837312  MEMB      112             0.0000000000
     12933       112  CHL1      C20            16.5273380744        0.4866017268       -7.4099658593  MEMB      112             0.0000000000
     12934       112  CHL1      H20            17.3289949803       -0.2403694063       -7.1663206114  MEMB      112             0.0000000000
     12935       112  CHL1      C21            15.1570656669       -0.1744311101       -7.1870385809  MEMB      112             0.0000000000
     12936       112  CHL1      H21A           14.9510853963       -0.9783300882       -7.9153509819  MEMB      112             0.0000000000
     12937       112  CHL1      H21B           14.3437804460        0.5856010608       -7.2180233520  MEMB      112             0.0000000000
     12938       112  CHL1      H21C           15.1734681406       -0.6413663571       -6.1821624995  MEMB      112             0.0000000000
     12939       112  CHL1      C22            16.6466744401        1.7130516630       -6.4394360988  MEMB      112             0.0000000000
     12940       112  CHL1      H22A           17.0798440043        2.5760795807       -6.9834462004  MEMB      112             0.0000000000
     12941       112  CHL1      H22B           15.6288219498        2.0545161954       -6.1526523383  MEMB      112             0.0000000000
     12942       112  CHL1      C23            17.4849129640        1.5407906961       -5.1444794374  MEMB      112             0.0000000000
     12943       112  CHL1      H23A           18.5085915023        1.1756008597       -5.3736193398  MEMB      112             0.0000000000
     12944       112  CHL1      H23B           17.5946438548        2.5602111323       -4.7001044841  MEMB      112             0.0000000000
     12945       112  CHL1      C24            16.8622331704        0.6511419228       -4.0506602629  MEMB      112             0.0000000000
     12946       112  CHL1      H24A           15.8469910913        1.0417332868       -3.8231231351  MEMB      112             0.0000000000
     12947       112  CHL1      H24B           16.7717792114       -0.3941259991       -4.4164353395  MEMB      112             0.0000000000
     12948       112  CHL1      C25            17.6361248313        0.6892009679       -2.7105460929  MEMB      112             0.0000000000
     12949       112  CHL1      H25            17.9518790316        1.7481779629       -2.5426192432  MEMB      112             0.0000000000
     12950       112  CHL1      C26            16.7456140446        0.3076720197       -1.5125732417  MEMB      112             0.0000000000
     12951       112  CHL1      H26A           15.9263346507        1.0469323658       -1.3926078558  MEMB      112             0.0000000000
     12952       112  CHL1      H26B           16.3015317562       -0.7037825314       -1.6230388371  MEMB      112             0.0000000000
     12953       112  CHL1      H26C           17.3597092167        0.3029924149       -0.5884690496  MEMB      112             0.0000000000
     12954       112  CHL1      C27            18.8880130912       -0.2008731847       -2.7183521725  MEMB      112             0.0000000000
     12955       112  CHL1      H27A           19.6059249699        0.1483958041       -1.9451036052  MEMB      112             0.0000000000
     12956       112  CHL1      H27B           18.5862301365       -1.2450378587       -2.4915180938  MEMB      112             0.0000000000
     12957       112  CHL1      H27C           19.4041582580       -0.2044570963       -3.6989001676  MEMB      112             0.0000000000
     12958       113  CHL1      C3              9.4012143528      -14.3325715620      -17.3559284342  MEMB      113             0.0000000000
     12959       113  CHL1      H3              8.5457782505      -13.8993660984      -17.7236118773  MEMB      113             0.0000000000
     12960       113  CHL1      O3              9.7700891153      -14.7313063326      -18.6690458968  MEMB      113             0.0000000000
     12961       113  CHL1      H3'             9.9347509158      -13.9023419046      -19.1269348751  MEMB      113             0.0000000000
     12962       113  CHL1      C4             10.3065871025      -13.3163105583      -16.6353271983  MEMB      113             0.0000000000
     12963       113  CHL1      H4A            11.2889927988      -13.8152547097      -16.6538375593  MEMB      113             0.0000000000
     12964       113  CHL1      H4B            10.4599598733      -12.4205816682      -17.2826837610  MEMB      113             0.0000000000
     12965       113  CHL1      C5              9.8239119982      -12.8964923781      -15.2171360250  MEMB      113             0.0000000000
     12966       113  CHL1      C6              9.7297366798      -11.5864765507      -14.8696792543  MEMB      113             0.0000000000
     12967       113  CHL1      H6             10.0385725683      -10.8579657152      -15.6359280717  MEMB      113             0.0000000000
     12968       113  CHL1      C7              9.5299842900      -11.0384264497      -13.4844368605  MEMB      113             0.0000000000
     12969       113  CHL1      H7A            10.2644541331      -10.2461664500      -13.2272590451  MEMB      113             0.0000000000
     12970       113  CHL1      H7B             8.5896434346      -10.5226870920      -13.3204260791  MEMB      113             0.0000000000
     12971       113  CHL1      C8              9.5259528527      -12.1808601335      -12.4689734345  MEMB      113             0.0000000000
     12972       113  CHL1      H8             10.5696307603      -12.4807799127      -12.3080216147  MEMB      113             0.0000000000
     12973       113  CHL1      C14             8.9626141701      -11.6601551349      -11.1859100842  MEMB      113             0.0000000000
     12974       113  CHL1      H14             7.9155090671      -11.2946498964      -11.3756048636  MEMB      113             0.0000000000
     12975       113  CHL1      C15             9.7120049750      -10.4745063065      -10.5734869254  MEMB      113             0.0000000000
     12976       113  CHL1      H15A           10.7751664147      -10.7876411553      -10.4877691036  MEMB      113             0.0000000000
     12977       113  CHL1      H15B            9.6601125082       -9.5239326351      -11.1346953331  MEMB      113             0.0000000000
     12978       113  CHL1      C16             9.0392932954      -10.3851137192       -9.2160530677  MEMB      113             0.0000000000
     12979       113  CHL1      H16A            9.7519686442      -10.0473433867       -8.4402843121  MEMB      113             0.0000000000
     12980       113  CHL1      H16B            8.1724388188       -9.6885514675       -9.2826204697  MEMB      113             0.0000000000
     12981       113  CHL1      C17             8.4508145653      -11.8032322044       -8.9471475458  MEMB      113             0.0000000000
     12982       113  CHL1      H17             7.3526459779      -11.7131456456       -9.1183317203  MEMB      113             0.0000000000
     12983       113  CHL1      C13             8.9010479410      -12.7094991309      -10.0918691493  MEMB      113             0.0000000000
     12984       113  CHL1      C18            10.3053338605      -13.2761267065       -9.7265988845  MEMB      113             0.0000000000
     12985       113  CHL1      H18A           10.2219192980      -14.0633473493       -8.9522197099  MEMB      113             0.0000000000
     12986       113  CHL1      H18B           10.7994910852      -13.7293126683      -10.6059637701  MEMB      113             0.0000000000
     12987       113  CHL1      H18C           10.9680614669      -12.4952925411       -9.3030357976  MEMB      113             0.0000000000
     12988       113  CHL1      C12             7.9464058939      -13.8276689452      -10.5651728447  MEMB      113             0.0000000000
     12989       113  CHL1      H12A            7.8749985009      -14.6191902822       -9.7956947833  MEMB      113             0.0000000000
     12990       113  CHL1      H12B            6.9154902712      -13.4561992064      -10.7569469016  MEMB      113             0.0000000000
     12991       113  CHL1      C11             8.4611039924      -14.4467839738      -11.8713176933  MEMB      113             0.0000000000
     12992       113  CHL1      H11A            9.3040318394      -15.1204132493      -11.6447725075  MEMB      113             0.0000000000
     12993       113  CHL1      H11B            7.6251960941      -15.0103459232      -12.3388230111  MEMB      113             0.0000000000
     12994       113  CHL1      C9              8.7875697109      -13.4195957855      -12.9618822181  MEMB      113             0.0000000000
     12995       113  CHL1      H9              7.7449687215      -13.1107700222      -13.1675918327  MEMB      113             0.0000000000
     12996       113  CHL1      C10             9.4088851168      -13.9966468403      -14.2674410835  MEMB      113             0.0000000000
     12997       113  CHL1      C19            10.6618050415      -14.8302075485      -13.9626164855  MEMB      113             0.0000000000
     12998       113  CHL1      H19A           11.2557154289      -15.0590575501      -14.8722888884  MEMB      113             0.0000000000
     12999       113  CHL1      H19B           11.3081100341      -14.2899570189      -13.2495651137  MEMB      113             0.0000000000
     13000       113  CHL1      H19C           10.3454171547      -15.8036535631      -13.5435591767  MEMB      113             0.0000000000
     13001       113  CHL1      C1              8.3645296535      -14.8418487100      -15.0117107459  MEMB      113             0.0000000000
     13002       113  CHL1      H1A             8.0078435840      -15.6609635543      -14.3744711074  MEMB      113             0.0000000000
     13003       113  CHL1      H1B             7.4756031376      -14.1937242000      -15.0061218294  MEMB      113             0.0000000000
     13004       113  CHL1      C2              8.8342550212      -15.3738973953      -16.4042858059  MEMB      113             0.0000000000
     13005       113  CHL1      H2A             8.0313051734      -15.8704730164      -16.9776418886  MEMB      113             0.0000000000
     13006       113  CHL1      H2B             9.6894719507      -16.0441105186      -16.2677794621  MEMB      113             0.0000000000
     13007       113  CHL1      C20             8.7109746099      -12.2750076657       -7.5341671429  MEMB      113             0.0000000000
     13008       113  CHL1      H20             9.7803394404      -12.4791333471       -7.3382310166  MEMB      113             0.0000000000
     13009       113  CHL1      C21             7.8897481722      -13.5818701579       -7.3767451936  MEMB      113             0.0000000000
     13010       113  CHL1      H21A            8.4488120678      -14.4663679910       -7.7296399692  MEMB      113             0.0000000000
     13011       113  CHL1      H21B            6.9648230346      -13.5106426794       -7.9860277251  MEMB      113             0.0000000000
     13012       113  CHL1      H21C            7.6014379607      -13.8216244337       -6.3536686764  MEMB      113             0.0000000000
     13013       113  CHL1      C22             8.4766335240      -11.1597507097       -6.5058852382  MEMB      113             0.0000000000
     13014       113  CHL1      H22A            8.7581884950      -10.1195106871       -6.7127134280  MEMB      113             0.0000000000
     13015       113  CHL1      H22B            7.4670702047      -10.9547095274       -6.4555184850  MEMB      113             0.0000000000
     13016       113  CHL1      C23             8.8812570213      -11.5360213609       -5.1335250198  MEMB      113             0.0000000000
     13017       113  CHL1      H23A            8.3394769048      -12.4086243070       -4.6958708514  MEMB      113             0.0000000000
     13018       113  CHL1      H23B            9.9479169334      -11.7906994382       -5.2099573596  MEMB      113             0.0000000000
     13019       113  CHL1      C24             8.7017460775      -10.4004171913       -4.2136732970  MEMB      113             0.0000000000
     13020       113  CHL1      H24A            9.2761206523       -9.4757106696       -4.4376848827  MEMB      113             0.0000000000
     13021       113  CHL1      H24B            7.6376447736      -10.0600936966       -4.0203425725  MEMB      113             0.0000000000
     13022       113  CHL1      C25             9.2256692558      -11.0088759132       -2.9846431310  MEMB      113             0.0000000000
     13023       113  CHL1      H25             8.6715321944      -11.9431281506       -2.6973759987  MEMB      113             0.0000000000
     13024       113  CHL1      C26            10.7564741871      -11.2660872581       -2.8026964985  MEMB      113             0.0000000000
     13025       113  CHL1      H26A           11.0405098775      -11.5974040608       -1.7767529252  MEMB      113             0.0000000000
     13026       113  CHL1      H26B           11.0338751624      -12.0888699870       -3.4857487978  MEMB      113             0.0000000000
     13027       113  CHL1      H26C           11.3866739212      -10.3787147951       -3.0229254667  MEMB      113             0.0000000000
     13028       113  CHL1      C27             8.7637554770       -9.9136730717       -2.2221163875  MEMB      113             0.0000000000
     13029       113  CHL1      H27A            7.8657353988       -9.3156940850       -2.0671742798  MEMB      113             0.0000000000
     13030       113  CHL1      H27B            8.3524652811      -10.6810587593       -1.4771270357  MEMB      113             0.0000000000
     13031       113  CHL1      H27C            9.6883270064       -9.3077846037       -1.9776822821  MEMB      113             0.0000000000
     13032       114  SAPE      N              -3.5160774354       18.7706002352      -17.5943467996  MEMB      114             0.0000000000
     13033       114  SAPE      HN1            -3.7825395328       19.7687883978      -17.6695861587  MEMB      114             0.0000000000
     13034       114  SAPE      HN2            -3.4816638001       18.4469267976      -16.6116442182  MEMB      114             0.0000000000
     13035       114  SAPE      HN3            -2.5887110320       18.6456232944      -18.0613737730  MEMB      114             0.0000000000
     13036       114  SAPE      C12            -4.4562948790       17.9141378675      -18.3858229468  MEMB      114             0.0000000000
     13037       114  SAPE      H12A           -5.4825642296       18.0081741588      -17.9825119340  MEMB      114             0.0000000000
     13038       114  SAPE      H12B           -4.0922134145       16.8746214591      -18.2500306730  MEMB      114             0.0000000000
     13039       114  SAPE      C11            -4.3726886997       18.2937743119      -19.8646961474  MEMB      114             0.0000000000
     13040       114  SAPE      H11A           -4.8379222115       19.2862121569      -20.0603329021  MEMB      114             0.0000000000
     13041       114  SAPE      H11B           -4.9735714905       17.5439263708      -20.4438884253  MEMB      114             0.0000000000
     13042       114  SAPE      P              -2.3117973520       17.0877911348      -20.9290566617  MEMB      114             0.0000000000
     13043       114  SAPE      O13            -2.9930616216       16.7907610610      -22.2055280754  MEMB      114             0.0000000000
     13044       114  SAPE      O14            -0.8517803834       17.2544661824      -20.8898105401  MEMB      114             0.0000000000
     13045       114  SAPE      O12            -2.9982731110       18.3620253067      -20.2519767629  MEMB      114             0.0000000000
     13046       114  SAPE      O11            -2.7434808345       15.9811647436      -19.8615922109  MEMB      114             0.0000000000
     13047       114  SAPE      C1             -1.7067452677       15.2711133025      -19.1706788353  MEMB      114             0.0000000000
     13048       114  SAPE      HA             -1.0132720535       14.7877156008      -19.9041928485  MEMB      114             0.0000000000
     13049       114  SAPE      HB             -1.0984827935       15.9733245926      -18.5560327244  MEMB      114             0.0000000000
     13050       114  SAPE      C2             -2.2416839128       14.1503106988      -18.2141691742  MEMB      114             0.0000000000
     13051       114  SAPE      HS             -2.6725256648       13.3742766552      -18.8779526431  MEMB      114             0.0000000000
     13052       114  SAPE      O21            -3.2988528290       14.6410436194      -17.3445164659  MEMB      114             0.0000000000
     13053       114  SAPE      C21            -3.9496300797       13.6858413006      -16.6571022491  MEMB      114             0.0000000000
     13054       114  SAPE      O22            -3.7228199912       12.4922120279      -16.7428292430  MEMB      114             0.0000000000
     13055       114  SAPE      C22            -5.0388812416       14.3145714636      -15.7655401679  MEMB      114             0.0000000000
     13056       114  SAPE      H2R            -5.2822442396       15.3355034650      -16.1116793924  MEMB      114             0.0000000000
     13057       114  SAPE      H2S            -5.9628313755       13.7135474695      -15.8374825591  MEMB      114             0.0000000000
     13058       114  SAPE      C3             -1.0227750488       13.6013060654      -17.3893706952  MEMB      114             0.0000000000
     13059       114  SAPE      HX             -0.2168611891       13.2755701475      -18.0858910524  MEMB      114             0.0000000000
     13060       114  SAPE      HY             -1.2900397682       12.7034255623      -16.7866457990  MEMB      114             0.0000000000
     13061       114  SAPE      O31            -0.4800285530       14.6849068514      -16.6219815922  MEMB      114             0.0000000000
     13062       114  SAPE      C31            -0.7448668870       14.7150541814      -15.3368320075  MEMB      114             0.0000000000
     13063       114  SAPE      O32            -1.0824846178       13.7669433144      -14.6510783604  MEMB      114             0.0000000000
     13064       114  SAPE      C32            -0.6321756838       16.1962761261      -14.8594023969  MEMB      114             0.0000000000
     13065       114  SAPE      H2X            -1.6101150924       16.6243413731      -14.6607399622  MEMB      114             0.0000000000
     13066       114  SAPE      H2Y            -0.0814527684       16.7682466503      -15.6429498956  MEMB      114             0.0000000000
     13067       114  SAPE      C23            -4.5275073851       14.3164677225      -14.3061183663  MEMB      114             0.0000000000
     13068       114  SAPE      H3R            -3.5421644741       14.8326076495      -14.3439063044  MEMB      114             0.0000000000
     13069       114  SAPE      H3S            -4.3633627827       13.2616978356      -13.9780504402  MEMB      114             0.0000000000
     13070       114  SAPE      C24            -5.3924613841       15.0041522568      -13.2325690850  MEMB      114             0.0000000000
     13071       114  SAPE      H4R            -6.2662113189       14.3538454573      -13.0006052923  MEMB      114             0.0000000000
     13072       114  SAPE      H4S            -5.7767572836       15.9765402496      -13.6049192733  MEMB      114             0.0000000000
     13073       114  SAPE      C25            -4.5716756810       15.2474446627      -11.9870322204  MEMB      114             0.0000000000
     13074       114  SAPE      H5R            -3.5055897737       14.9699474837      -12.0329631189  MEMB      114             0.0000000000
     13075       114  SAPE      C26            -5.0043181218       15.9032778744      -10.8984918753  MEMB      114             0.0000000000
     13076       114  SAPE      H6R            -4.2922373903       16.1027596820      -10.0842198524  MEMB      114             0.0000000000
     13077       114  SAPE      C27            -6.3713415075       16.5075210908      -10.7286150786  MEMB      114             0.0000000000
     13078       114  SAPE      H7R            -6.7080817446       16.4346920115       -9.6703896260  MEMB      114             0.0000000000
     13079       114  SAPE      H7S            -7.1202873882       15.9437199756      -11.3181116854  MEMB      114             0.0000000000
     13080       114  SAPE      C28            -6.2961216274       17.9424277726      -11.1858297413  MEMB      114             0.0000000000
     13081       114  SAPE      H8R            -6.4901521646       18.1134103748      -12.2558565085  MEMB      114             0.0000000000
     13082       114  SAPE      C29            -6.0848045419       19.0072336029      -10.3939578346  MEMB      114             0.0000000000
     13083       114  SAPE      H9R            -6.0212791885       19.9986784710      -10.8722908259  MEMB      114             0.0000000000
     13084       114  SAPE      C210           -5.8889906659       18.9381646942       -8.8945707605  MEMB      114             0.0000000000
     13085       114  SAPE      H10R           -5.0806084113       18.2160900005       -8.6376273026  MEMB      114             0.0000000000
     13086       114  SAPE      H10S           -6.8168556294       18.5192356010       -8.4481817417  MEMB      114             0.0000000000
     13087       114  SAPE      C211           -5.6089080380       20.2895321419       -8.2841139287  MEMB      114             0.0000000000
     13088       114  SAPE      H11R           -6.1285943765       21.1283000626       -8.7814239912  MEMB      114             0.0000000000
     13089       114  SAPE      C212           -4.9490027294       20.5555317424       -7.1359726112  MEMB      114             0.0000000000
     13090       114  SAPE      H12R           -4.7860728277       21.6131375807       -6.9082922797  MEMB      114             0.0000000000
     13091       114  SAPE      C213           -4.3116952570       19.6016386773       -6.1379846032  MEMB      114             0.0000000000
     13092       114  SAPE      H13R           -3.8516060926       18.7215769284       -6.6373528506  MEMB      114             0.0000000000
     13093       114  SAPE      H13S           -5.1400936887       19.1884324940       -5.5272587269  MEMB      114             0.0000000000
     13094       114  SAPE      C214           -3.3521511629       20.2308827699       -5.1449878405  MEMB      114             0.0000000000
     13095       114  SAPE      H14R           -3.2904288697       21.3254670507       -5.1951725689  MEMB      114             0.0000000000
     13096       114  SAPE      C215           -2.5778082419       19.6140966235       -4.2254604097  MEMB      114             0.0000000000
     13097       114  SAPE      H15R           -1.9029145002       20.2328249539       -3.6115249422  MEMB      114             0.0000000000
     13098       114  SAPE      C216           -2.4653197614       18.1302489697       -3.9568198049  MEMB      114             0.0000000000
     13099       114  SAPE      H16R           -3.1500179625       17.5760326252       -4.6331535621  MEMB      114             0.0000000000
     13100       114  SAPE      H16S           -2.7350809368       17.8623400255       -2.9072196489  MEMB      114             0.0000000000
     13101       114  SAPE      C217           -0.9947813865       17.7328909491       -4.2333671857  MEMB      114             0.0000000000
     13102       114  SAPE      H17R           -0.3399968572       18.3109570155       -3.5430199182  MEMB      114             0.0000000000
     13103       114  SAPE      H17S           -0.7857695170       18.0642858330       -5.2795319245  MEMB      114             0.0000000000
     13104       114  SAPE      C218           -0.6574163009       16.2247880897       -4.1428107912  MEMB      114             0.0000000000
     13105       114  SAPE      H18R            0.2734176417       15.9652971293       -4.7012767777  MEMB      114             0.0000000000
     13106       114  SAPE      H18S           -1.4749338983       15.6732543625       -4.6423805621  MEMB      114             0.0000000000
     13107       114  SAPE      C219           -0.4889511013       15.6567591760       -2.7256369901  MEMB      114             0.0000000000
     13108       114  SAPE      H19R           -1.4692070754       15.7048977436       -2.2031201067  MEMB      114             0.0000000000
     13109       114  SAPE      H19S            0.2366066875       16.2866591049       -2.1625274870  MEMB      114             0.0000000000
     13110       114  SAPE      C220            0.0289353436       14.2114548538       -2.7383279277  MEMB      114             0.0000000000
     13111       114  SAPE      H20R           -0.1385832890       13.6984275900       -1.7686310887  MEMB      114             0.0000000000
     13112       114  SAPE      H20S            1.1202605916       14.2161701650       -2.9557590302  MEMB      114             0.0000000000
     13113       114  SAPE      H20T           -0.4931438352       13.6076416729       -3.5111307779  MEMB      114             0.0000000000
     13114       114  SAPE      C33             0.0487979254       16.4315533379      -13.5054809227  MEMB      114             0.0000000000
     13115       114  SAPE      H3X             0.5939346632       15.5008565964      -13.6444969509  MEMB      114             0.0000000000
     13116       114  SAPE      H3Y            -0.2670688115       15.9971992675      -12.5543919449  MEMB      114             0.0000000000
     13117       114  SAPE      C34             0.7646180944       17.8492136131      -13.3790200357  MEMB      114             0.0000000000
     13118       114  SAPE      H4X             1.4408665005       18.0958859698      -14.2323244181  MEMB      114             0.0000000000
     13119       114  SAPE      H4Y             1.4376402683       18.0474850297      -12.5045637627  MEMB      114             0.0000000000
     13120       114  SAPE      C35            -0.2142214868       18.9248421742      -13.0746369189  MEMB      114             0.0000000000
     13121       114  SAPE      H5X            -0.8901852484       18.8658904044      -13.9493959814  MEMB      114             0.0000000000
     13122       114  SAPE      H5Y             0.3135134891       19.9019544800      -13.0910215169  MEMB      114             0.0000000000
     13123       114  SAPE      C36            -0.9914118453       18.6092408480      -11.7718041093  MEMB      114             0.0000000000
     13124       114  SAPE      H6X            -0.9887227874       17.5228876201      -11.5508904897  MEMB      114             0.0000000000
     13125       114  SAPE      H6Y            -2.0346344569       18.8470469268      -12.0573963645  MEMB      114             0.0000000000
     13126       114  SAPE      C37            -0.6135997104       19.3750270218      -10.4716304032  MEMB      114             0.0000000000
     13127       114  SAPE      H7X            -0.7101324766       20.4539654891      -10.7216842166  MEMB      114             0.0000000000
     13128       114  SAPE      H7Y             0.4358882211       19.2018475184      -10.1493591628  MEMB      114             0.0000000000
     13129       114  SAPE      C38            -1.5006547690       19.1124563168       -9.2217716611  MEMB      114             0.0000000000
     13130       114  SAPE      H8X            -2.4632982028       19.6508202449       -9.3815371029  MEMB      114             0.0000000000
     13131       114  SAPE      H8Y            -1.0427160967       19.5571646404       -8.3071322003  MEMB      114             0.0000000000
     13132       114  SAPE      C39            -1.8611174507       17.6504045103       -8.9061724181  MEMB      114             0.0000000000
     13133       114  SAPE      H9X            -2.2796424660       17.1570717098       -9.8067287299  MEMB      114             0.0000000000
     13134       114  SAPE      H9Y            -2.6321046027       17.6672507865       -8.1011344017  MEMB      114             0.0000000000
     13135       114  SAPE      C310           -0.7593898747       16.7508105847       -8.3545461823  MEMB      114             0.0000000000
     13136       114  SAPE      H10X           -0.4085326153       17.1980374957       -7.3968949352  MEMB      114             0.0000000000
     13137       114  SAPE      H10Y            0.0847946586       16.7290026616       -9.0749046681  MEMB      114             0.0000000000
     13138       114  SAPE      C311           -1.2994611816       15.3218622374       -8.1209610212  MEMB      114             0.0000000000
     13139       114  SAPE      H11X           -0.4976844198       14.7125048443       -7.6544739286  MEMB      114             0.0000000000
     13140       114  SAPE      H11Y           -1.5647945891       14.8722873418       -9.1073857053  MEMB      114             0.0000000000
     13141       114  SAPE      C312           -2.5699125638       15.2531407448       -7.2474380943  MEMB      114             0.0000000000
     13142       114  SAPE      H12X           -3.4260421825       15.6700470178       -7.8219550743  MEMB      114             0.0000000000
     13143       114  SAPE      H12Y           -2.4657449551       15.9172088250       -6.3674010247  MEMB      114             0.0000000000
     13144       114  SAPE      C313           -3.0277990897       13.8284703228       -6.9006562710  MEMB      114             0.0000000000
     13145       114  SAPE      H13X           -2.5851340767       13.4424684066       -5.9545907162  MEMB      114             0.0000000000
     13146       114  SAPE      H13Y           -2.6784819021       13.1586673403       -7.7210157398  MEMB      114             0.0000000000
     13147       114  SAPE      C314           -4.5656069408       13.7185394797       -6.8895549880  MEMB      114             0.0000000000
     13148       114  SAPE      H14X           -4.8221653552       12.6448296887       -6.7603418792  MEMB      114             0.0000000000
     13149       114  SAPE      H14Y           -4.9548437225       14.0284392380       -7.8901186428  MEMB      114             0.0000000000
     13150       114  SAPE      C315           -5.3006677130       14.5812450417       -5.8353196088  MEMB      114             0.0000000000
     13151       114  SAPE      H15X           -6.3651954548       14.2567734686       -5.8432546952  MEMB      114             0.0000000000
     13152       114  SAPE      H15Y           -5.2644595829       15.6418123289       -6.1787288508  MEMB      114             0.0000000000
     13153       114  SAPE      C316           -4.7522400834       14.4384257916       -4.3978919427  MEMB      114             0.0000000000
     13154       114  SAPE      H16X           -3.6772298586       14.7173889632       -4.3772714638  MEMB      114             0.0000000000
     13155       114  SAPE      H16Y           -4.8217322144       13.3647621433       -4.1143979394  MEMB      114             0.0000000000
     13156       114  SAPE      C317           -5.4563074431       15.2167983607       -3.2661631904  MEMB      114             0.0000000000
     13157       114  SAPE      H17X           -6.4768376255       14.7946196018       -3.1354226909  MEMB      114             0.0000000000
     13158       114  SAPE      H17Y           -5.5791238261       16.2978921500       -3.4952161672  MEMB      114             0.0000000000
     13159       114  SAPE      C318           -4.7127046798       15.0688115143       -1.9291384885  MEMB      114             0.0000000000
     13160       114  SAPE      H18X           -4.7805069403       14.0158572755       -1.5858086459  MEMB      114             0.0000000000
     13161       114  SAPE      H18Y           -5.1664536410       15.7124638683       -1.1458907986  MEMB      114             0.0000000000
     13162       114  SAPE      H18Z           -3.6355729520       15.3173161034       -2.0231718915  MEMB      114             0.0000000000
     13163       115  OSM       N              15.0343960600       -6.9343956698      -20.1875119903  MEMB      115             0.0000000000
     13164       115  OSM       C15            15.0992847334       -6.6308816413      -21.6555171835  MEMB      115             0.0000000000
     13165       115  OSM       H15A           14.1229482142       -6.4134454519      -22.0713823872  MEMB      115             0.0000000000
     13166       115  OSM       H15B           15.5451366732       -7.4758873054      -22.1921504600  MEMB      115             0.0000000000
     13167       115  OSM       H15C           15.7324095045       -5.7824932183      -21.8228065736  MEMB      115             0.0000000000
     13168       115  OSM       C14            16.4337459824       -6.9732439950      -19.6318561197  MEMB      115             0.0000000000
     13169       115  OSM       H14A           16.4485894531       -7.1338992759      -18.5591111631  MEMB      115             0.0000000000
     13170       115  OSM       H14B           16.9374267133       -6.0288915308      -19.8195717818  MEMB      115             0.0000000000
     13171       115  OSM       H14C           17.0273006787       -7.7837445438      -20.0517547848  MEMB      115             0.0000000000
     13172       115  OSM       C13            14.3634397722       -5.8252945492      -19.4738018411  MEMB      115             0.0000000000
     13173       115  OSM       H13A           14.9608660063       -4.9262701302      -19.5721526117  MEMB      115             0.0000000000
     13174       115  OSM       H13B           14.2262839970       -6.0580709629      -18.4268070220  MEMB      115             0.0000000000
     13175       115  OSM       H13C           13.3862187438       -5.5968040742      -19.8903086035  MEMB      115             0.0000000000
     13176       115  OSM       C12            14.2559254415       -8.2086901797      -19.9815411531  MEMB      115             0.0000000000
     13177       115  OSM       H12A           13.2169819406       -7.9621777842      -20.1667331533  MEMB      115             0.0000000000
     13178       115  OSM       H12B           14.3303657839       -8.4771036078      -18.9343761502  MEMB      115             0.0000000000
     13179       115  OSM       C11            14.5835463998       -9.3999997950      -20.9246303229  MEMB      115             0.0000000000
     13180       115  OSM       H11A           14.2121905217       -9.1581883411      -21.9456863061  MEMB      115             0.0000000000
     13181       115  OSM       H11B           14.0315989042      -10.3097316077      -20.6031344745  MEMB      115             0.0000000000
     13182       115  OSM       P              16.5597558557      -10.8156007730      -21.8795744387  MEMB      115             0.0000000000
     13183       115  OSM       O13            15.6082582461      -11.0197741712      -23.0042747664  MEMB      115             0.0000000000
     13184       115  OSM       O14            17.9806380721      -10.5714918051      -22.1633431749  MEMB      115             0.0000000000
     13185       115  OSM       O11            16.3885327267      -12.0356591989      -20.8562461313  MEMB      115             0.0000000000
     13186       115  OSM       O12            15.9786603435       -9.6468066290      -20.9841742830  MEMB      115             0.0000000000
     13187       115  OSM       C1S            16.9782150124      -11.9550062811      -19.5337245396  MEMB      115             0.0000000000
     13188       115  OSM       H1S            17.9443427405      -11.4041690127      -19.5327658702  MEMB      115             0.0000000000
     13189       115  OSM       H1T            17.1998067986      -12.9927187445      -19.2006905691  MEMB      115             0.0000000000
     13190       115  OSM       NF             16.8901429783      -11.0928561423      -17.1854621722  MEMB      115             0.0000000000
     13191       115  OSM       HNF            16.7993323136      -11.7860428328      -16.4782857303  MEMB      115             0.0000000000
     13192       115  OSM       C2S            16.1101442629      -11.2818623892      -18.4068157622  MEMB      115             0.0000000000
     13193       115  OSM       H2S            15.7779932240      -10.2754418185      -18.7326016943  MEMB      115             0.0000000000
     13194       115  OSM       C3S            14.8525134568      -12.1416417960      -18.1492414242  MEMB      115             0.0000000000
     13195       115  OSM       H3S            15.1887427597      -13.1153196329      -17.7238126634  MEMB      115             0.0000000000
     13196       115  OSM       O3             14.0816939174      -12.4184404763      -19.3183238358  MEMB      115             0.0000000000
     13197       115  OSM       HO3            14.6687447307      -12.1409825108      -20.0428764695  MEMB      115             0.0000000000
     13198       115  OSM       C4S            14.0225291155      -11.4556652467      -17.0927488812  MEMB      115             0.0000000000
     13199       115  OSM       H4S            13.8812048736      -10.3750144842      -17.1937347482  MEMB      115             0.0000000000
     13200       115  OSM       C5S            13.4462473924      -12.0508900855      -16.0498154909  MEMB      115             0.0000000000
     13201       115  OSM       H5S            13.3235441841      -13.1542059584      -16.0152852893  MEMB      115             0.0000000000
     13202       115  OSM       C6S            12.6451571417      -11.3358565414      -15.0332558185  MEMB      115             0.0000000000
     13203       115  OSM       H6S            11.8708597546      -11.9614637141      -15.3021192493  MEMB      115             0.0000000000
     13204       115  OSM       H6T            12.2968687922      -10.2859561056      -15.2066783496  MEMB      115             0.0000000000
     13205       115  OSM       C7S            12.8352382846      -11.6191620504      -13.5457333689  MEMB      115             0.0000000000
     13206       115  OSM       H7S            12.8294282192      -12.7114393266      -13.3357600079  MEMB      115             0.0000000000
     13207       115  OSM       H7T            11.9857528677      -11.2127189216      -12.9642454030  MEMB      115             0.0000000000
     13208       115  OSM       C8S            14.0761640905      -10.8403609446      -13.1733357592  MEMB      115             0.0000000000
     13209       115  OSM       H8S            13.8565659991       -9.7925704652      -13.4751034801  MEMB      115             0.0000000000
     13210       115  OSM       H8T            14.9067510746      -11.1947603603      -13.8182303168  MEMB      115             0.0000000000
     13211       115  OSM       C9S            14.5080166746      -10.9079837467      -11.7146203207  MEMB      115             0.0000000000
     13212       115  OSM       H9S            14.7781105602      -11.9649069522      -11.4957990097  MEMB      115             0.0000000000
     13213       115  OSM       H9T            13.6929382485      -10.6046299706      -11.0225169604  MEMB      115             0.0000000000
     13214       115  OSM       C10S           15.7853680765      -10.1066752946      -11.4330911902  MEMB      115             0.0000000000
     13215       115  OSM       H10S           15.6696321556       -9.0172553875      -11.6205955283  MEMB      115             0.0000000000
     13216       115  OSM       H10T           16.5675714709      -10.4913711858      -12.1235366773  MEMB      115             0.0000000000
     13217       115  OSM       C11S           16.2056947729      -10.3094082997       -9.9767724155  MEMB      115             0.0000000000
     13218       115  OSM       H11S           16.2158724489      -11.3963735133       -9.7486506341  MEMB      115             0.0000000000
     13219       115  OSM       H11T           15.4098527540       -9.8756675752       -9.3405389943  MEMB      115             0.0000000000
     13220       115  OSM       C12S           17.5557999094       -9.6765951290       -9.6191803146  MEMB      115             0.0000000000
     13221       115  OSM       H12S           17.3960290992       -8.5866092681       -9.4567749452  MEMB      115             0.0000000000
     13222       115  OSM       H12T           18.2492569640       -9.7812004990      -10.4838390181  MEMB      115             0.0000000000
     13223       115  OSM       C13S           18.1499505892      -10.3164239005       -8.3542210018  MEMB      115             0.0000000000
     13224       115  OSM       H13S           18.3750281531      -11.3899474892       -8.5487758804  MEMB      115             0.0000000000
     13225       115  OSM       H13T           17.3929715972      -10.2806930574       -7.5428978464  MEMB      115             0.0000000000
     13226       115  OSM       C14S           19.3837817479       -9.6028026301       -7.8106085570  MEMB      115             0.0000000000
     13227       115  OSM       H14S           19.1665377315       -8.5470653339       -7.5979327430  MEMB      115             0.0000000000
     13228       115  OSM       H14T           20.1422953475       -9.5676521367       -8.6139698377  MEMB      115             0.0000000000
     13229       115  OSM       C15S           19.8997956049      -10.2263078596       -6.5066018752  MEMB      115             0.0000000000
     13230       115  OSM       H15S           20.9199542693       -9.8209221720       -6.2627878575  MEMB      115             0.0000000000
     13231       115  OSM       H15T           19.9827747786      -11.3083632787       -6.7088886553  MEMB      115             0.0000000000
     13232       115  OSM       C16S           18.9708098863      -10.0600107960       -5.3030294367  MEMB      115             0.0000000000
     13233       115  OSM       H16S           18.0009320105      -10.5583476454       -5.4307768465  MEMB      115             0.0000000000
     13234       115  OSM       H16T           18.7865848173       -8.9801677329       -5.2183642245  MEMB      115             0.0000000000
     13235       115  OSM       C17S           19.5288100934      -10.6724992143       -4.0344999686  MEMB      115             0.0000000000
     13236       115  OSM       H17S           20.4199158486      -10.1095054447       -3.6867512541  MEMB      115             0.0000000000
     13237       115  OSM       H17T           19.7913353192      -11.6879779762       -4.3792740094  MEMB      115             0.0000000000
     13238       115  OSM       C18S           18.6288264144      -10.9323995102       -2.8564447411  MEMB      115             0.0000000000
     13239       115  OSM       H18S           17.8848186663      -11.6942522659       -3.1200983627  MEMB      115             0.0000000000
     13240       115  OSM       H18T           18.0750981951      -10.0164361502       -2.6158783544  MEMB      115             0.0000000000
     13241       115  OSM       H18U           19.2357561690      -11.2550663711       -1.9764136486  MEMB      115             0.0000000000
     13242       115  OSM       C1F            17.7590374483      -10.0883328594      -17.0446155344  MEMB      115             0.0000000000
     13243       115  OSM       OF             17.9363761024       -9.2576045521      -17.9224279134  MEMB      115             0.0000000000
     13244       115  OSM       C2F            18.4517325724       -9.9590599392      -15.7255678189  MEMB      115             0.0000000000
     13245       115  OSM       H2F            19.4056724697       -9.3987612997      -15.8566809976  MEMB      115             0.0000000000
     13246       115  OSM       H2G            18.7076134492      -10.9645336747      -15.3303883739  MEMB      115             0.0000000000
     13247       115  OSM       C3F            17.5022663943       -9.2090100272      -14.7516060114  MEMB      115             0.0000000000
     13248       115  OSM       H3F            17.9772932977       -9.1942263368      -13.7488155229  MEMB      115             0.0000000000
     13249       115  OSM       H3G            16.5429568883       -9.7688303791      -14.6721172461  MEMB      115             0.0000000000
     13250       115  OSM       C4F            17.1947792815       -7.7535259625      -15.1600613740  MEMB      115             0.0000000000
     13251       115  OSM       H4F            16.5052425587       -7.7484319050      -16.0320229049  MEMB      115             0.0000000000
     13252       115  OSM       H4G            18.1648767799       -7.2985606812      -15.4703585376  MEMB      115             0.0000000000
     13253       115  OSM       C5F            16.5807371466       -6.8389993957      -14.0741945821  MEMB      115             0.0000000000
     13254       115  OSM       H5F            16.7275982659       -5.7947893967      -14.4316654097  MEMB      115             0.0000000000
     13255       115  OSM       H5G            17.1150023237       -6.9626480569      -13.1069653850  MEMB      115             0.0000000000
     13256       115  OSM       C6F            15.0758436636       -7.0343825620      -13.8331442301  MEMB      115             0.0000000000
     13257       115  OSM       H6F            14.9614902909       -7.9973200713      -13.2967675366  MEMB      115             0.0000000000
     13258       115  OSM       H6G            14.5497577862       -7.1340825291      -14.8068661006  MEMB      115             0.0000000000
     13259       115  OSM       C7F            14.3924837274       -5.9389676568      -12.9838329361  MEMB      115             0.0000000000
     13260       115  OSM       H7F            14.4002936894       -4.9551193038      -13.5124811258  MEMB      115             0.0000000000
     13261       115  OSM       H7G            14.9516472932       -5.7964611135      -12.0346576730  MEMB      115             0.0000000000
     13262       115  OSM       C8F            12.8984664558       -6.2693950296      -12.7326371545  MEMB      115             0.0000000000
     13263       115  OSM       H8F            12.4836441840       -6.2967760474      -13.7628086697  MEMB      115             0.0000000000
     13264       115  OSM       H8G            12.3970069741       -5.4070024204      -12.2376909702  MEMB      115             0.0000000000
     13265       115  OSM       C9F            12.5377892060       -7.5985083393      -12.0959159525  MEMB      115             0.0000000000
     13266       115  OSM       H9F            12.1474673690       -8.3141739155      -12.8343799561  MEMB      115             0.0000000000
     13267       115  OSM       C10F           12.5342299208       -7.9451601828      -10.7886953825  MEMB      115             0.0000000000
     13268       115  OSM       H10F           12.2147734078       -8.9581633696      -10.4767303527  MEMB      115             0.0000000000
     13269       115  OSM       C11F           12.9019248069       -7.0337506120       -9.6518891955  MEMB      115             0.0000000000
     13270       115  OSM       H11F           12.1101401814       -7.1179605870       -8.8781972369  MEMB      115             0.0000000000
     13271       115  OSM       H11G           12.8899986962       -5.9838327637      -10.0105792520  MEMB      115             0.0000000000
     13272       115  OSM       C12F           14.2763361949       -7.2476990594       -8.9837884031  MEMB      115             0.0000000000
     13273       115  OSM       H12F           15.0686680323       -6.9723281174       -9.7157266653  MEMB      115             0.0000000000
     13274       115  OSM       H12G           14.4125042468       -8.3039122384       -8.6752479039  MEMB      115             0.0000000000
     13275       115  OSM       C13F           14.4535706841       -6.3937404196       -7.7202042017  MEMB      115             0.0000000000
     13276       115  OSM       H13F           13.5652378680       -6.5454342222       -7.0653053041  MEMB      115             0.0000000000
     13277       115  OSM       H13G           14.4961106396       -5.3258282868       -8.0196361265  MEMB      115             0.0000000000
     13278       115  OSM       C14F           15.7273721128       -6.7230001452       -6.9274039437  MEMB      115             0.0000000000
     13279       115  OSM       H14F           16.6127226659       -6.5767398566       -7.5844135771  MEMB      115             0.0000000000
     13280       115  OSM       H14G           15.7123787807       -7.8030603969       -6.6685445367  MEMB      115             0.0000000000
     13281       115  OSM       C15F           15.8685822134       -5.8551846464       -5.6617127557  MEMB      115             0.0000000000
     13282       115  OSM       H15F           15.7508743921       -4.7779789680       -5.9276618887  MEMB      115             0.0000000000
     13283       115  OSM       H15G           16.8695423794       -6.0056258231       -5.1957722616  MEMB      115             0.0000000000
     13284       115  OSM       C16F           14.8329881923       -6.1466318986       -4.5743580420  MEMB      115             0.0000000000
     13285       115  OSM       H16F           13.8064185312       -5.9654738933       -4.9649790487  MEMB      115             0.0000000000
     13286       115  OSM       H16G           14.9996842836       -5.4028854352       -3.7614152428  MEMB      115             0.0000000000
     13287       115  OSM       C17F           14.9367796225       -7.5620517223       -3.9975260414  MEMB      115             0.0000000000
     13288       115  OSM       H17F           15.8940916548       -7.6873751193       -3.4397779573  MEMB      115             0.0000000000
     13289       115  OSM       H17G           14.9499091992       -8.3271007611       -4.8043258646  MEMB      115             0.0000000000
     13290       115  OSM       C18F           13.7689237959       -7.8597322648       -3.0674865972  MEMB      115             0.0000000000
     13291       115  OSM       H18F           13.9110056571       -8.8562652186       -2.6016767227  MEMB      115             0.0000000000
     13292       115  OSM       H18G           12.8082488549       -7.8640048733       -3.6285686474  MEMB      115             0.0000000000
     13293       115  OSM       H18H           13.7127020272       -7.0769412605       -2.2809454417  MEMB      115             0.0000000000
     13294       116  OSM       N              15.6801833842        7.5997590397      -22.6038768340  MEMB      116             0.0000000000
     13295       116  OSM       C15            15.8896675283        8.5512706855      -21.4673613314  MEMB      116             0.0000000000
     13296       116  OSM       H15A           15.1114675966        9.2895702363      -21.3722374513  MEMB      116             0.0000000000
     13297       116  OSM       H15B           16.7961899861        9.1450218536      -21.6058491138  MEMB      116             0.0000000000
     13298       116  OSM       H15C           16.0955686454        8.0098863704      -20.5400231775  MEMB      116             0.0000000000
     13299       116  OSM       C14            14.4656710266        6.7859383553      -22.3946279363  MEMB      116             0.0000000000
     13300       116  OSM       H14A           14.5090354605        6.3238169271      -21.4086041905  MEMB      116             0.0000000000
     13301       116  OSM       H14B           14.4168275058        6.0165537888      -23.1627156916  MEMB      116             0.0000000000
     13302       116  OSM       H14C           13.5891857348        7.3938219676      -22.5014989075  MEMB      116             0.0000000000
     13303       116  OSM       C13            15.5765343129        8.3139324318      -23.9101973356  MEMB      116             0.0000000000
     13304       116  OSM       H13A           14.8335239385        9.0959276108      -23.8733860711  MEMB      116             0.0000000000
     13305       116  OSM       H13B           15.3499512790        7.6629923651      -24.7499675310  MEMB      116             0.0000000000
     13306       116  OSM       H13C           16.4930447135        8.8420310017      -24.1712116462  MEMB      116             0.0000000000
     13307       116  OSM       C12            16.9204040468        6.7344344791      -22.7308226219  MEMB      116             0.0000000000
     13308       116  OSM       H12A           17.7530705732        7.4296222718      -22.6809551714  MEMB      116             0.0000000000
     13309       116  OSM       H12B           16.9195505200        6.2889753071      -23.7205615958  MEMB      116             0.0000000000
     13310       116  OSM       C11            17.1823235595        5.5947796495      -21.7146147144  MEMB      116             0.0000000000
     13311       116  OSM       H11A           18.2194787527        5.2015905156      -21.9140134449  MEMB      116             0.0000000000
     13312       116  OSM       H11B           16.5085143653        4.7409574263      -21.9263901894  MEMB      116             0.0000000000
     13313       116  OSM       P              17.9602762578        5.5629013728      -19.2075050627  MEMB      116             0.0000000000
     13314       116  OSM       O13            18.6125639223        4.3242169440      -19.6808391583  MEMB      116             0.0000000000
     13315       116  OSM       O14            18.7938526620        6.7356357842      -18.8732702027  MEMB      116             0.0000000000
     13316       116  OSM       O11            17.0155361808        5.1671641172      -17.9925374347  MEMB      116             0.0000000000
     13317       116  OSM       O12            16.9572168151        6.0237963766      -20.3656464085  MEMB      116             0.0000000000
     13318       116  OSM       C1S            15.6584879757        5.6084245793      -17.9403799911  MEMB      116             0.0000000000
     13319       116  OSM       H1S            15.0628185311        4.9008219425      -18.5533702933  MEMB      116             0.0000000000
     13320       116  OSM       H1T            15.5417653553        6.6432622072      -18.3189749307  MEMB      116             0.0000000000
     13321       116  OSM       NF             15.5428867206        6.4436457931      -15.5502430687  MEMB      116             0.0000000000
     13322       116  OSM       HNF            15.6884730062        6.0558019647      -14.6530713521  MEMB      116             0.0000000000
     13323       116  OSM       C2S            14.9987855691        5.5311584273      -16.5290447930  MEMB      116             0.0000000000
     13324       116  OSM       H2S            13.9140372366        5.7810425026      -16.6215738240  MEMB      116             0.0000000000
     13325       116  OSM       C3S            15.1248357270        4.0620508984      -16.0661229400  MEMB      116             0.0000000000
     13326       116  OSM       H3S            16.1504910593        3.6718487257      -16.1740564272  MEMB      116             0.0000000000
     13327       116  OSM       O3             14.3036986290        3.1691666671      -16.8012171013  MEMB      116             0.0000000000
     13328       116  OSM       HO3            13.7067849737        3.7151047331      -17.3002744365  MEMB      116             0.0000000000
     13329       116  OSM       C4S            14.7879615588        3.9511574586      -14.6216187711  MEMB      116             0.0000000000
     13330       116  OSM       H4S            13.8725030800        4.4982388612      -14.3088788789  MEMB      116             0.0000000000
     13331       116  OSM       C5S            15.4769708862        3.1393900571      -13.7878445134  MEMB      116             0.0000000000
     13332       116  OSM       H5S            16.2480864592        2.4693314090      -14.1566747120  MEMB      116             0.0000000000
     13333       116  OSM       C6S            15.2744844877        2.9363266236      -12.3362254113  MEMB      116             0.0000000000
     13334       116  OSM       H6S            16.1950547411        3.0932705779      -11.7617050243  MEMB      116             0.0000000000
     13335       116  OSM       H6T            14.7598787693        1.9742039493      -12.0476744034  MEMB      116             0.0000000000
     13336       116  OSM       C7S            14.6266809938        4.0556236420      -11.6937981797  MEMB      116             0.0000000000
     13337       116  OSM       H7S            13.8100412994        3.9891596603      -12.3665319397  MEMB      116             0.0000000000
     13338       116  OSM       H7T            14.7176795502        5.1198239619      -11.8401131821  MEMB      116             0.0000000000
     13339       116  OSM       C8S            14.3532203029        3.6298394533      -10.2974884001  MEMB      116             0.0000000000
     13340       116  OSM       H8S            13.8990507245        2.6054995877      -10.2095094062  MEMB      116             0.0000000000
     13341       116  OSM       H8T            13.6273854797        4.3991999421      -10.1238620440  MEMB      116             0.0000000000
     13342       116  OSM       C9S            15.3527449335        3.9321081832       -9.2517030670  MEMB      116             0.0000000000
     13343       116  OSM       H9S            16.1696581641        3.2634206880       -9.5305122675  MEMB      116             0.0000000000
     13344       116  OSM       H9T            14.9160917924        3.6907552410       -8.2469997867  MEMB      116             0.0000000000
     13345       116  OSM       C10S           15.9878452934        5.2916401186       -9.4393163195  MEMB      116             0.0000000000
     13346       116  OSM       H10S           15.3613594442        6.1779131990       -9.4454853347  MEMB      116             0.0000000000
     13347       116  OSM       H10T           16.4227447293        5.3464450674      -10.4509924963  MEMB      116             0.0000000000
     13348       116  OSM       C11S           17.0320886308        5.5537806317       -8.3967861235  MEMB      116             0.0000000000
     13349       116  OSM       H11S           17.4704506734        6.5443463841       -8.6447999088  MEMB      116             0.0000000000
     13350       116  OSM       H11T           17.7855572333        4.7591149129       -8.5112184469  MEMB      116             0.0000000000
     13351       116  OSM       C12S           16.4739516482        5.5657173360       -6.9818807975  MEMB      116             0.0000000000
     13352       116  OSM       H12S           16.2458078989        4.5606715919       -6.5812177871  MEMB      116             0.0000000000
     13353       116  OSM       H12T           15.5148457084        6.0537278952       -6.9876559767  MEMB      116             0.0000000000
     13354       116  OSM       C13S           17.3378830203        6.3547880331       -6.0353558423  MEMB      116             0.0000000000
     13355       116  OSM       H13S           16.7921921263        6.4056852885       -5.0669490555  MEMB      116             0.0000000000
     13356       116  OSM       H13T           17.4925440912        7.4020750672       -6.3889836578  MEMB      116             0.0000000000
     13357       116  OSM       C14S           18.6691496737        5.6591178373       -5.8947766423  MEMB      116             0.0000000000
     13358       116  OSM       H14S           19.2741484270        5.8100873895       -6.8218978267  MEMB      116             0.0000000000
     13359       116  OSM       H14T           18.5652701196        4.5611139036       -5.7505618250  MEMB      116             0.0000000000
     13360       116  OSM       C15S           19.4073099305        6.2451148687       -4.7238050259  MEMB      116             0.0000000000
     13361       116  OSM       H15S           19.4443846783        7.3542915471       -4.8587806776  MEMB      116             0.0000000000
     13362       116  OSM       H15T           20.4083374190        5.7904283597       -4.8444352423  MEMB      116             0.0000000000
     13363       116  OSM       C16S           18.8695796164        5.8932467260       -3.3287385124  MEMB      116             0.0000000000
     13364       116  OSM       H16S           19.5058178104        5.1271287480       -2.8196053828  MEMB      116             0.0000000000
     13365       116  OSM       H16T           17.8668204706        5.4746273943       -3.4871872823  MEMB      116             0.0000000000
     13366       116  OSM       C17S           18.7726852823        7.0830839666       -2.3772201224  MEMB      116             0.0000000000
     13367       116  OSM       H17S           18.3925557023        8.0036453734       -2.8430507714  MEMB      116             0.0000000000
     13368       116  OSM       H17T           19.7494810946        7.4131451168       -2.1961412906  MEMB      116             0.0000000000
     13369       116  OSM       C18S           18.4090000457        6.7665417675       -0.9305335190  MEMB      116             0.0000000000
     13370       116  OSM       H18S           17.3309471259        6.6517338623       -0.8119431444  MEMB      116             0.0000000000
     13371       116  OSM       H18T           18.6997049844        7.5704756640       -0.2357546916  MEMB      116             0.0000000000
     13372       116  OSM       H18U           19.0029341329        5.8884880220       -0.5927021118  MEMB      116             0.0000000000
     13373       116  OSM       C1F            15.5949317108        7.7571089118      -15.6390236882  MEMB      116             0.0000000000
     13374       116  OSM       OF             15.3022658440        8.3767323568      -16.6496568031  MEMB      116             0.0000000000
     13375       116  OSM       C2F            15.9685361461        8.4501926753      -14.3764324095  MEMB      116             0.0000000000
     13376       116  OSM       H2F            15.2895157997        9.2543942270      -14.2201316734  MEMB      116             0.0000000000
     13377       116  OSM       H2G            16.9339887402        8.9617444012      -14.4728043905  MEMB      116             0.0000000000
     13378       116  OSM       C3F            15.8394675584        7.6123521705      -13.0978886837  MEMB      116             0.0000000000
     13379       116  OSM       H3F            16.4836179747        6.7180205709      -13.1783462372  MEMB      116             0.0000000000
     13380       116  OSM       H3G            14.7811047523        7.2948259814      -12.9366809413  MEMB      116             0.0000000000
     13381       116  OSM       C4F            16.2845921254        8.4028790654      -11.8847768016  MEMB      116             0.0000000000
     13382       116  OSM       H4F            17.1657364782        9.0561126517      -12.0734997699  MEMB      116             0.0000000000
     13383       116  OSM       H4G            16.5343369153        7.6934174049      -11.0683216148  MEMB      116             0.0000000000
     13384       116  OSM       C5F            15.2006904745        9.2669828474      -11.3275542639  MEMB      116             0.0000000000
     13385       116  OSM       H5F            14.3870958104        8.6196813256      -10.9163885170  MEMB      116             0.0000000000
     13386       116  OSM       H5G            14.7061343094        9.9219263619      -12.0657090275  MEMB      116             0.0000000000
     13387       116  OSM       C6F            15.8444976311       10.1523500400      -10.2735558876  MEMB      116             0.0000000000
     13388       116  OSM       H6F            15.0242445570       10.8711562528      -10.2552446125  MEMB      116             0.0000000000
     13389       116  OSM       H6G            16.7200205155       10.7664878820      -10.4877859707  MEMB      116             0.0000000000
     13390       116  OSM       C7F            16.2661388435        9.3493261382       -9.0435944693  MEMB      116             0.0000000000
     13391       116  OSM       H7F            17.0366017174        8.5910727656       -9.1913646052  MEMB      116             0.0000000000
     13392       116  OSM       H7G            15.4678843617        8.6091312188       -9.0516714749  MEMB      116             0.0000000000
     13393       116  OSM       C8F            16.7770536740       10.1454260634       -7.7898827067  MEMB      116             0.0000000000
     13394       116  OSM       H8F            17.3974915531       10.9214454012       -8.2218315586  MEMB      116             0.0000000000
     13395       116  OSM       H8G            17.2295465641        9.4828787480       -7.0391097495  MEMB      116             0.0000000000
     13396       116  OSM       C9F            15.9871563133       11.0563572060       -6.9759319839  MEMB      116             0.0000000000
     13397       116  OSM       H9F            15.8857958955       11.9537041230       -7.4905074133  MEMB      116             0.0000000000
     13398       116  OSM       C10F           15.9215732863       11.6075252400       -5.8308329318  MEMB      116             0.0000000000
     13399       116  OSM       H10F           15.1572165806       12.2615049738       -5.4093811685  MEMB      116             0.0000000000
     13400       116  OSM       C11F           16.8797395286       11.3443629079       -4.9693297019  MEMB      116             0.0000000000
     13401       116  OSM       H11F           16.8710587429       12.2816016944       -4.4170454330  MEMB      116             0.0000000000
     13402       116  OSM       H11G           17.8200853365       10.9979830301       -5.4865493163  MEMB      116             0.0000000000
     13403       116  OSM       C12F           15.8530212599       10.3991054535       -4.5254926789  MEMB      116             0.0000000000
     13404       116  OSM       H12F           16.9640902362       10.1009428600       -4.2232577845  MEMB      116             0.0000000000
     13405       116  OSM       H12G           15.8068486183        9.3611954378       -5.0128981532  MEMB      116             0.0000000000
     13406       116  OSM       C13F           14.6734945815       10.7800929519       -3.1414015753  MEMB      116             0.0000000000
     13407       116  OSM       H13F           13.7588078470       10.9921587354       -2.9207670745  MEMB      116             0.0000000000
     13408       116  OSM       H13G           15.1350414609       11.7333156163       -3.3072349116  MEMB      116             0.0000000000
     13409       116  OSM       C14F           14.6966879839        9.5046006937       -1.1400572191  MEMB      116             0.0000000000
     13410       116  OSM       H14F           15.7727930560        9.1075253705       -0.7852931288  MEMB      116             0.0000000000
     13411       116  OSM       H14G           14.6919058256        8.3389596241       -1.2800044683  MEMB      116             0.0000000000
     13412       116  OSM       C15F           14.4160392709        9.4080278674        0.0668824933  MEMB      116             0.0000000000
     13413       116  OSM       H15F           13.3977806420        9.5264937117       -0.3700097598  MEMB      116             0.0000000000
     13414       116  OSM       H15G           14.6573565415       10.2951644227        0.6107967032  MEMB      116             0.0000000000
     13415       116  OSM       C16F           14.8998942230        7.9555086320        0.6624578047  MEMB      116             0.0000000000
     13416       116  OSM       H16F           14.9886060927        8.0417652855        1.7244819843  MEMB      116             0.0000000000
     13417       116  OSM       H16G           15.9570130351        7.6626566802        0.7217834624  MEMB      116             0.0000000000
     13418       116  OSM       C17F           14.0085212003        6.7445772149        0.2138955533  MEMB      116             0.0000000000
     13419       116  OSM       H17F           13.9718744582        6.0591488673        1.0829238571  MEMB      116             0.0000000000
     13420       116  OSM       H17G           14.5871938908        6.2700966924       -0.6072041447  MEMB      116             0.0000000000
     13421       116  OSM       C18F           12.5332007523        7.0371709007       -0.2141898064  MEMB      116             0.0000000000
     13422       116  OSM       H18F           11.7504516873        7.0190988464        0.5653261283  MEMB      116             0.0000000000
     13423       116  OSM       H18G           12.1406235437        6.3123657522       -0.9001336965  MEMB      116             0.0000000000
     13424       116  OSM       H18H           12.3984307946        8.0059322054       -0.7047909315  MEMB      116             0.0000000000
     13425       117  OSM       N             -14.5898999231       -6.2937964042      -20.8404584177  MEMB      117             0.0000000000
     13426       117  OSM       C15           -14.1997547398       -6.8224241872      -22.1902653342  MEMB      117             0.0000000000
     13427       117  OSM       H15A          -13.1399090748       -7.0883903142      -22.2187087414  MEMB      117             0.0000000000
     13428       117  OSM       H15B          -14.3904401487       -6.0935630915      -22.9577178486  MEMB      117             0.0000000000
     13429       117  OSM       H15C          -14.7857789604       -7.7032378364      -22.4163113752  MEMB      117             0.0000000000
     13430       117  OSM       C14           -14.6851915374       -7.3944920642      -19.8207186878  MEMB      117             0.0000000000
     13431       117  OSM       H14A          -15.4456913769       -8.1255936949      -20.1053608384  MEMB      117             0.0000000000
     13432       117  OSM       H14B          -15.0262671190       -6.9762328660      -18.8805211788  MEMB      117             0.0000000000
     13433       117  OSM       H14C          -13.7365364315       -7.8840791145      -19.6395035596  MEMB      117             0.0000000000
     13434       117  OSM       C13           -13.5418407715       -5.3141313672      -20.4258975551  MEMB      117             0.0000000000
     13435       117  OSM       H13A          -12.5418983962       -5.7262555456      -20.5651551015  MEMB      117             0.0000000000
     13436       117  OSM       H13B          -13.6317505269       -5.0086914584      -19.3861800779  MEMB      117             0.0000000000
     13437       117  OSM       H13C          -13.5779127878       -4.4317502373      -21.0607244484  MEMB      117             0.0000000000
     13438       117  OSM       C12           -15.9465253644       -5.5864306147      -20.9026931920  MEMB      117             0.0000000000
     13439       117  OSM       H12A          -15.7844000840       -4.6085750707      -21.3161359143  MEMB      117             0.0000000000
     13440       117  OSM       H12B          -16.2921862253       -5.4044361334      -19.8879073774  MEMB      117             0.0000000000
     13441       117  OSM       C11           -17.1191133355       -6.2301330801      -21.6990720765  MEMB      117             0.0000000000
     13442       117  OSM       H11A          -16.9352544962       -6.1644311640      -22.7871411015  MEMB      117             0.0000000000
     13443       117  OSM       H11B          -18.0497109142       -5.6362015846      -21.5242440971  MEMB      117             0.0000000000
     13444       117  OSM       P             -18.7292914739       -8.2114134905      -21.1136932848  MEMB      117             0.0000000000
     13445       117  OSM       O13           -19.5531834983       -8.1627249752      -22.3343100841  MEMB      117             0.0000000000
     13446       117  OSM       O14           -18.4530095178       -9.5009746824      -20.4572488413  MEMB      117             0.0000000000
     13447       117  OSM       O11           -19.3793957598       -7.2179387405      -20.0527076608  MEMB      117             0.0000000000
     13448       117  OSM       O12           -17.2896109707       -7.5876514157      -21.3507828061  MEMB      117             0.0000000000
     13449       117  OSM       C1S           -18.6365193795       -6.6877915459      -18.9428900380  MEMB      117             0.0000000000
     13450       117  OSM       H1S           -18.6675958277       -5.5830089100      -18.9969853447  MEMB      117             0.0000000000
     13451       117  OSM       H1T           -17.5809044285       -7.0357354513      -18.9263582961  MEMB      117             0.0000000000
     13452       117  OSM       NF            -18.3399454568       -6.6457725517      -16.4645534354  MEMB      117             0.0000000000
     13453       117  OSM       HNF           -18.1191629685       -7.3384431085      -15.7916020905  MEMB      117             0.0000000000
     13454       117  OSM       C2S           -19.1629476752       -7.0866257984      -17.5358455952  MEMB      117             0.0000000000
     13455       117  OSM       H2S           -20.1923052208       -6.6526459879      -17.4068179161  MEMB      117             0.0000000000
     13456       117  OSM       C3S           -19.2104922677       -8.5670771832      -17.3999780713  MEMB      117             0.0000000000
     13457       117  OSM       H3S           -18.3062161610       -9.1224384907      -17.7054531771  MEMB      117             0.0000000000
     13458       117  OSM       O3            -20.2608950943       -9.0645814543      -18.2252726447  MEMB      117             0.0000000000
     13459       117  OSM       HO3           -20.6430305840       -8.3149086726      -18.6938563130  MEMB      117             0.0000000000
     13460       117  OSM       C4S           -19.4324610720       -8.8881954987      -15.9444202478  MEMB      117             0.0000000000
     13461       117  OSM       H4S           -20.2312248236       -8.2317317563      -15.5192699366  MEMB      117             0.0000000000
     13462       117  OSM       C5S           -19.0132900335       -9.9420619270      -15.2147810117  MEMB      117             0.0000000000
     13463       117  OSM       H5S           -18.2976152727      -10.6205946831      -15.6718294423  MEMB      117             0.0000000000
     13464       117  OSM       C6S           -19.3929143668      -10.2475337649      -13.7768251877  MEMB      117             0.0000000000
     13465       117  OSM       H6S           -18.9887318110      -11.2279245960      -13.4624592403  MEMB      117             0.0000000000
     13466       117  OSM       H6T           -20.4729529328      -10.5085596926      -13.7361467102  MEMB      117             0.0000000000
     13467       117  OSM       C7S           -19.3413077838       -9.1840344799      -12.7042893958  MEMB      117             0.0000000000
     13468       117  OSM       H7S           -20.0450675477       -8.3533612846      -12.9438981721  MEMB      117             0.0000000000
     13469       117  OSM       H7T           -18.2927862194       -8.8444340285      -12.7814942069  MEMB      117             0.0000000000
     13470       117  OSM       C8S           -19.7003184814       -9.7312009771      -11.3118357101  MEMB      117             0.0000000000
     13471       117  OSM       H8S           -19.2934186493      -10.7661610697      -11.2123508147  MEMB      117             0.0000000000
     13472       117  OSM       H8T           -20.8062298528       -9.8416817223      -11.2059014033  MEMB      117             0.0000000000
     13473       117  OSM       C9S           -19.1129135409       -8.8134979126      -10.2222908475  MEMB      117             0.0000000000
     13474       117  OSM       H9S           -19.6121683386       -7.8250446466      -10.2276248921  MEMB      117             0.0000000000
     13475       117  OSM       H9T           -18.0497300604       -8.6211277572      -10.4903796161  MEMB      117             0.0000000000
     13476       117  OSM       C10S          -19.2016175134       -9.4037187562       -8.8061754768  MEMB      117             0.0000000000
     13477       117  OSM       H10S          -18.7523599084      -10.4223650512       -8.8562399251  MEMB      117             0.0000000000
     13478       117  OSM       H10T          -20.2709860286       -9.5329512016       -8.5246927791  MEMB      117             0.0000000000
     13479       117  OSM       C11S          -18.3137924068       -8.7212834694       -7.7303428687  MEMB      117             0.0000000000
     13480       117  OSM       H11S          -17.3944108715       -8.3384913786       -8.2101497676  MEMB      117             0.0000000000
     13481       117  OSM       H11T          -18.0956206485       -9.5139803473       -6.9865762483  MEMB      117             0.0000000000
     13482       117  OSM       C12S          -18.8982234885       -7.5744057612       -6.9356941106  MEMB      117             0.0000000000
     13483       117  OSM       H12S          -19.7516646158       -7.9821047522       -6.3708880807  MEMB      117             0.0000000000
     13484       117  OSM       H12T          -19.1946860254       -6.8232799046       -7.6959562733  MEMB      117             0.0000000000
     13485       117  OSM       C13S          -18.1543833169       -6.8486301444       -5.8141934482  MEMB      117             0.0000000000
     13486       117  OSM       H13S          -17.8865603877       -5.8353170012       -6.1733087171  MEMB      117             0.0000000000
     13487       117  OSM       H13T          -17.2660913662       -7.4612257881       -5.5971374771  MEMB      117             0.0000000000
     13488       117  OSM       C14S          -18.9390725217       -6.7013728874       -4.4998547839  MEMB      117             0.0000000000
     13489       117  OSM       H14S          -19.1272354895       -7.7395154850       -4.1620165966  MEMB      117             0.0000000000
     13490       117  OSM       H14T          -19.9062134233       -6.1929514860       -4.6196513302  MEMB      117             0.0000000000
     13491       117  OSM       C15S          -18.1969305596       -5.9520246043       -3.3900048146  MEMB      117             0.0000000000
     13492       117  OSM       H15S          -18.0084895952       -4.8891540520       -3.6232490347  MEMB      117             0.0000000000
     13493       117  OSM       H15T          -17.2524062691       -6.4999122162       -3.1938660752  MEMB      117             0.0000000000
     13494       117  OSM       C16S          -19.0322664185       -5.9299777444       -2.1298171358  MEMB      117             0.0000000000
     13495       117  OSM       H16S          -19.3306998641       -6.9798393474       -2.0963774109  MEMB      117             0.0000000000
     13496       117  OSM       H16T          -19.8897311625       -5.3084078594       -2.2171655247  MEMB      117             0.0000000000
     13497       117  OSM       C17S          -18.3307304265       -5.4851063266       -0.8759630852  MEMB      117             0.0000000000
     13498       117  OSM       H17S          -17.6438833897       -4.6366543812       -1.0361982269  MEMB      117             0.0000000000
     13499       117  OSM       H17T          -17.6533313820       -6.3685301907       -0.9588880566  MEMB      117             0.0000000000
     13500       117  OSM       C18S          -19.1041035374       -5.3355447841        0.5094536739  MEMB      117             0.0000000000
     13501       117  OSM       H18S          -18.5278406567       -5.1030963904        1.4073258362  MEMB      117             0.0000000000
     13502       117  OSM       H18T          -19.7215630640       -6.1165112843        0.8262473935  MEMB      117             0.0000000000
     13503       117  OSM       H18U          -19.7915085868       -4.5682180082        0.6730243769  MEMB      117             0.0000000000
     13504       117  OSM       C1F           -18.0153662867       -5.4385975199      -16.2438450695  MEMB      117             0.0000000000
     13505       117  OSM       OF            -18.5615068510       -4.5684133090      -16.8810184195  MEMB      117             0.0000000000
     13506       117  OSM       C2F           -16.9308546401       -5.2268828149      -15.2503029765  MEMB      117             0.0000000000
     13507       117  OSM       H2F           -17.3640364781       -4.8602164691      -14.2928351318  MEMB      117             0.0000000000
     13508       117  OSM       H2G           -16.2977344241       -4.4221671146      -15.6800767219  MEMB      117             0.0000000000
     13509       117  OSM       C3F           -16.1997188391       -6.5399557716      -14.9089163862  MEMB      117             0.0000000000
     13510       117  OSM       H3F           -16.0515997924       -7.2254848674      -15.7697841125  MEMB      117             0.0000000000
     13511       117  OSM       H3G           -16.8353256862       -7.0566950523      -14.1477720138  MEMB      117             0.0000000000
     13512       117  OSM       C4F           -14.8323805203       -6.3201091047      -14.2957080214  MEMB      117             0.0000000000
     13513       117  OSM       H4F           -14.1150338474       -5.8627721460      -15.0163087184  MEMB      117             0.0000000000
     13514       117  OSM       H4G           -14.4187089271       -7.3063951415      -13.9743384631  MEMB      117             0.0000000000
     13515       117  OSM       C5F           -14.9042546156       -5.4302504157      -13.0864430102  MEMB      117             0.0000000000
     13516       117  OSM       H5F           -15.8771395293       -5.4764872598      -12.5423078294  MEMB      117             0.0000000000
     13517       117  OSM       H5G           -14.6975370836       -4.3697912851      -13.3685061930  MEMB      117             0.0000000000
     13518       117  OSM       C6F           -13.8845127072       -5.8932280002      -12.1196396374  MEMB      117             0.0000000000
     13519       117  OSM       H6F           -12.9044034841       -6.1594418744      -12.5852660680  MEMB      117             0.0000000000
     13520       117  OSM       H6G           -14.2081023156       -6.7930295018      -11.5343699140  MEMB      117             0.0000000000
     13521       117  OSM       C7F           -13.8131910751       -4.8367645856      -11.0994033693  MEMB      117             0.0000000000
     13522       117  OSM       H7F           -14.8153914118       -4.6053033241      -10.6691063909  MEMB      117             0.0000000000
     13523       117  OSM       H7G           -13.3231337281       -3.8767408298      -11.4458658090  MEMB      117             0.0000000000
     13524       117  OSM       C8F           -13.1304785475       -5.5574647402      -10.1464780673  MEMB      117             0.0000000000
     13525       117  OSM       H8F           -12.0083120366       -5.3855700489      -10.4704625118  MEMB      117             0.0000000000
     13526       117  OSM       H8G           -13.1321424738       -6.6049288363       -9.7590173216  MEMB      117             0.0000000000
     13527       117  OSM       C9F           -13.0013323615       -5.0382153747       -8.8287700898  MEMB      117             0.0000000000
     13528       117  OSM       H9F           -12.7061945150       -4.1086066223       -9.4632367124  MEMB      117             0.0000000000
     13529       117  OSM       C10F          -13.8922045391       -4.6300580568       -7.7574236835  MEMB      117             0.0000000000
     13530       117  OSM       H10F          -13.2569448358       -4.1540509489       -6.8673342966  MEMB      117             0.0000000000
     13531       117  OSM       C11F          -14.7874864752       -5.3918799084       -7.0395457566  MEMB      117             0.0000000000
     13532       117  OSM       H11F          -15.3492525251       -5.6020366092       -7.9741520016  MEMB      117             0.0000000000
     13533       117  OSM       H11G          -15.2181348203       -4.4702395748       -6.4980456250  MEMB      117             0.0000000000
     13534       117  OSM       C12F          -14.1116348584       -6.3679769389       -6.2580744871  MEMB      117             0.0000000000
     13535       117  OSM       H12F          -13.2802571526       -6.8321545724       -6.8319486766  MEMB      117             0.0000000000
     13536       117  OSM       H12G          -14.9047236196       -7.1235814488       -6.0947733412  MEMB      117             0.0000000000
     13537       117  OSM       C13F          -13.4808258667       -5.8947147080       -4.9364094381  MEMB      117             0.0000000000
     13538       117  OSM       H13F          -14.2088533912       -5.3606171870       -4.3089222715  MEMB      117             0.0000000000
     13539       117  OSM       H13G          -12.5783109865       -5.2869840629       -5.0326431178  MEMB      117             0.0000000000
     13540       117  OSM       C14F          -13.0745223580       -7.1018109392       -4.1848957124  MEMB      117             0.0000000000
     13541       117  OSM       H14F          -12.1880124818       -7.0849983844       -3.5311229886  MEMB      117             0.0000000000
     13542       117  OSM       H14G          -12.6484522905       -7.6184973745       -5.0462083361  MEMB      117             0.0000000000
     13543       117  OSM       C15F          -14.3527376594       -7.4857770525       -3.4308271543  MEMB      117             0.0000000000
     13544       117  OSM       H15F          -15.3003015178       -6.9967356676       -3.6939239945  MEMB      117             0.0000000000
     13545       117  OSM       H15G          -14.1249292393       -7.5186491887       -2.3410520554  MEMB      117             0.0000000000
     13546       117  OSM       C16F          -14.9541792565       -8.7330744261       -3.8450552892  MEMB      117             0.0000000000
     13547       117  OSM       H16F          -13.9012411064       -9.0589728548       -3.5719687503  MEMB      117             0.0000000000
     13548       117  OSM       H16G          -15.0709151565       -8.9908555430       -4.9200100262  MEMB      117             0.0000000000
     13549       117  OSM       C17F          -16.1092516535       -9.3544778342       -2.9611611359  MEMB      117             0.0000000000
     13550       117  OSM       H17F          -16.2581323335      -10.3573799660       -3.3703178247  MEMB      117             0.0000000000
     13551       117  OSM       H17G          -17.1173194730       -9.3876748201       -3.3305693833  MEMB      117             0.0000000000
     13552       117  OSM       C18F          -15.8194955159       -9.5511937480       -1.4279489963  MEMB      117             0.0000000000
     13553       117  OSM       H18F          -14.7701656271       -9.7031750633       -1.0737854368  MEMB      117             0.0000000000
     13554       117  OSM       H18G          -16.3539726514      -10.4212304499       -0.9653255992  MEMB      117             0.0000000000
     13555       117  OSM       H18H          -15.9761341998       -8.5682830948       -1.0221345460  MEMB      117             0.0000000000
     13556       118  CHL1      C3            -16.4724845374        8.8849231803      -17.3697139171  MEMB      118             0.0000000000
     13557       118  CHL1      H3            -16.9996329203        9.8425239160      -17.1502778637  MEMB      118             0.0000000000
     13558       118  CHL1      O3            -16.5414420379        8.5897590040      -18.7564050211  MEMB      118             0.0000000000
     13559       118  CHL1      H3'           -16.0012748201        7.7957172321      -18.8643484496  MEMB      118             0.0000000000
     13560       118  CHL1      C4            -15.0190076394        9.0653950490      -16.9570969483  MEMB      118             0.0000000000
     13561       118  CHL1      H4A           -14.3855807301        8.2071883182      -17.2921384595  MEMB      118             0.0000000000
     13562       118  CHL1      H4B           -14.5914241857        9.9583188723      -17.4658198469  MEMB      118             0.0000000000
     13563       118  CHL1      C5            -15.0472659732        9.2393812511      -15.4569428057  MEMB      118             0.0000000000
     13564       118  CHL1      C6            -14.3555941694       10.1598695283      -14.8513220705  MEMB      118             0.0000000000
     13565       118  CHL1      H6            -13.8201344968       10.8926796498      -15.4589578797  MEMB      118             0.0000000000
     13566       118  CHL1      C7            -14.1614045654       10.0767273372      -13.3792629706  MEMB      118             0.0000000000
     13567       118  CHL1      H7A           -13.0799950822       10.0944098324      -13.2009073389  MEMB      118             0.0000000000
     13568       118  CHL1      H7B           -14.7183038061       10.8992415555      -12.8871739395  MEMB      118             0.0000000000
     13569       118  CHL1      C8            -14.5484174982        8.8456551380      -12.5776782210  MEMB      118             0.0000000000
     13570       118  CHL1      H8            -13.9841737358        8.0016455394      -12.6949130575  MEMB      118             0.0000000000
     13571       118  CHL1      C14           -14.4402367174        9.0039013763      -11.1063272997  MEMB      118             0.0000000000
     13572       118  CHL1      H14           -15.3255339168        9.6500784115      -10.9029749931  MEMB      118             0.0000000000
     13573       118  CHL1      C15           -13.2374441597        9.6559157307      -10.5900121706  MEMB      118             0.0000000000
     13574       118  CHL1      H15A          -12.2616120131        9.5871904461      -11.0946362450  MEMB      118             0.0000000000
     13575       118  CHL1      H15B          -13.6644435108       10.6090401863      -10.9036530854  MEMB      118             0.0000000000
     13576       118  CHL1      C16           -13.1575374156        9.4305495817       -9.0810720531  MEMB      118             0.0000000000
     13577       118  CHL1      H16A          -12.1728232453        9.0313771864       -8.7597225594  MEMB      118             0.0000000000
     13578       118  CHL1      H16B          -13.3842499294       10.2558061938       -8.4125906460  MEMB      118             0.0000000000
     13579       118  CHL1      C17           -14.3122841672        8.4881353138       -8.8292252954  MEMB      118             0.0000000000
     13580       118  CHL1      H17           -15.2161010563        9.0665157148       -8.5937584810  MEMB      118             0.0000000000
     13581       118  CHL1      C13           -14.5729716246        7.8535376964      -10.2298636985  MEMB      118             0.0000000000
     13582       118  CHL1      C18           -13.5126325235        6.8721178696      -10.4417608305  MEMB      118             0.0000000000
     13583       118  CHL1      H18A          -12.8750273187        6.9270850252       -9.5852500928  MEMB      118             0.0000000000
     13584       118  CHL1      H18B          -13.7126203883        5.8690163670      -10.4611269086  MEMB      118             0.0000000000
     13585       118  CHL1      H18C          -12.8380662693        6.8740673067      -11.2458045601  MEMB      118             0.0000000000
     13586       118  CHL1      C12           -15.9208260754        7.3958064862      -10.6156788493  MEMB      118             0.0000000000
     13587       118  CHL1      H12A          -16.1431277560        6.6946234175       -9.8645781653  MEMB      118             0.0000000000
     13588       118  CHL1      H12B          -16.5924431501        8.2000281570      -10.3254760453  MEMB      118             0.0000000000
     13589       118  CHL1      C11           -16.0984086113        7.0502795032      -12.1221428546  MEMB      118             0.0000000000
     13590       118  CHL1      H11A          -15.5286860365        6.1435462232      -12.3595659883  MEMB      118             0.0000000000
     13591       118  CHL1      H11B          -17.1542478665        6.8209163465      -12.2851756365  MEMB      118             0.0000000000
     13592       118  CHL1      C9            -15.7776586993        8.2662065054      -13.0531251768  MEMB      118             0.0000000000
     13593       118  CHL1      H9            -16.4972714244        9.0434118184      -12.8056057815  MEMB      118             0.0000000000
     13594       118  CHL1      C10           -15.7981104964        8.1869746964      -14.6147081616  MEMB      118             0.0000000000
     13595       118  CHL1      C19           -15.1118346501        7.0342147227      -15.0359519860  MEMB      118             0.0000000000
     13596       118  CHL1      H19A          -14.0632715665        7.3125613075      -14.8607012533  MEMB      118             0.0000000000
     13597       118  CHL1      H19B          -15.4552176365        6.1744293880      -14.4330047229  MEMB      118             0.0000000000
     13598       118  CHL1      H19C          -15.1155909879        6.7085450050      -16.0856077693  MEMB      118             0.0000000000
     13599       118  CHL1      C1            -17.1511851749        7.8197110947      -15.0928445221  MEMB      118             0.0000000000
     13600       118  CHL1      H1A           -17.4631226359        6.8319501917      -14.6602140294  MEMB      118             0.0000000000
     13601       118  CHL1      H1B           -17.7558819701        8.6042470327      -14.6276792455  MEMB      118             0.0000000000
     13602       118  CHL1      C2            -17.1948008256        7.7550893482      -16.6283454084  MEMB      118             0.0000000000
     13603       118  CHL1      H2A           -18.2533599917        7.8744443688      -16.8790043659  MEMB      118             0.0000000000
     13604       118  CHL1      H2B           -16.8441801797        6.7649883354      -17.0136522233  MEMB      118             0.0000000000
     13605       118  CHL1      C20           -13.9868038212        7.7141719615       -7.5974408375  MEMB      118             0.0000000000
     13606       118  CHL1      H20           -13.0000204023        7.1969987443       -7.7846990848  MEMB      118             0.0000000000
     13607       118  CHL1      C21           -15.1430403404        6.7757603390       -7.3531822113  MEMB      118             0.0000000000
     13608       118  CHL1      H21A          -15.9495702089        6.7884821411       -6.6253296100  MEMB      118             0.0000000000
     13609       118  CHL1      H21B          -14.4887792564        6.0501542060       -6.9031206955  MEMB      118             0.0000000000
     13610       118  CHL1      H21C          -15.5328641747        6.2642699739       -8.2127425443  MEMB      118             0.0000000000
     13611       118  CHL1      C22           -13.6431933239        8.4197899282       -6.3077016193  MEMB      118             0.0000000000
     13612       118  CHL1      H22A          -12.6204678553        8.8557307023       -6.3059744757  MEMB      118             0.0000000000
     13613       118  CHL1      H22B          -14.4348468598        9.1182780244       -6.0175240873  MEMB      118             0.0000000000
     13614       118  CHL1      C23           -13.5600894908        7.3836505790       -5.2379383918  MEMB      118             0.0000000000
     13615       118  CHL1      H23A          -14.6370745376        7.1006267085       -5.0037133561  MEMB      118             0.0000000000
     13616       118  CHL1      H23B          -12.9211696438        6.6240769352       -5.7328218787  MEMB      118             0.0000000000
     13617       118  CHL1      C24           -12.7611613147        7.8948174950       -4.1050574604  MEMB      118             0.0000000000
     13618       118  CHL1      H24A          -11.7388464130        8.2549602347       -4.1524746930  MEMB      118             0.0000000000
     13619       118  CHL1      H24B          -13.3958211322        8.8304097917       -3.8764895799  MEMB      118             0.0000000000
     13620       118  CHL1      C25           -12.6032379406        7.0122666895       -2.8816854723  MEMB      118             0.0000000000
     13621       118  CHL1      H25           -13.7114596960        7.0926077595       -3.0725085305  MEMB      118             0.0000000000
     13622       118  CHL1      C26           -12.3025133210        5.2461746627       -2.5750321790  MEMB      118             0.0000000000
     13623       118  CHL1      H26A          -11.7258559521        4.2516505269       -2.6440422388  MEMB      118             0.0000000000
     13624       118  CHL1      H26B          -12.6525196632        4.7908497133       -1.6014939104  MEMB      118             0.0000000000
     13625       118  CHL1      H26C          -12.5267054229        4.8057463801       -3.5068384391  MEMB      118             0.0000000000
     13626       118  CHL1      C27           -12.6013045469        8.3007651458       -1.9161480835  MEMB      118             0.0000000000
     13627       118  CHL1      H27A          -12.0571105672        9.1945691972       -2.3728086747  MEMB      118             0.0000000000
     13628       118  CHL1      H27B          -12.0416691585        8.0805230840       -1.0449321102  MEMB      118             0.0000000000
     13629       118  CHL1      H27C          -13.6377563605        8.6370230312       -1.5733431194  MEMB      118             0.0000000000
     13630       119  OSM       N               3.2933185969      -19.2640978870      -23.0579047122  MEMB      119             0.0000000000
     13631       119  OSM       C15             3.7172572668      -19.7603228423      -24.3738300560  MEMB      119             0.0000000000
     13632       119  OSM       H15A            3.9925427035      -20.8067668983      -24.2192934913  MEMB      119             0.0000000000
     13633       119  OSM       H15B            4.6083935060      -19.2513761954      -24.7176977099  MEMB      119             0.0000000000
     13634       119  OSM       H15C            2.9042041915      -19.7165070674      -25.0823106574  MEMB      119             0.0000000000
     13635       119  OSM       C14             2.8167882143      -17.8493165394      -23.1503003500  MEMB      119             0.0000000000
     13636       119  OSM       H14A            1.8439935345      -17.7881897549      -23.6222119204  MEMB      119             0.0000000000
     13637       119  OSM       H14B            3.5627043568      -17.2552268431      -23.6558926911  MEMB      119             0.0000000000
     13638       119  OSM       H14C            2.7072789463      -17.4691538315      -22.1247335776  MEMB      119             0.0000000000
     13639       119  OSM       C13             2.1468244584      -20.1397465951      -22.6015085977  MEMB      119             0.0000000000
     13640       119  OSM       H13A            2.4196161438      -21.1862455419      -22.6713292601  MEMB      119             0.0000000000
     13641       119  OSM       H13B            1.2698568596      -19.9690113496      -23.2220388197  MEMB      119             0.0000000000
     13642       119  OSM       H13C            1.8277677084      -19.9375686303      -21.5747597335  MEMB      119             0.0000000000
     13643       119  OSM       C12             4.5291537741      -19.3703839905      -22.1522673878  MEMB      119             0.0000000000
     13644       119  OSM       H12A            5.1936234517      -18.5638677694      -22.4393162052  MEMB      119             0.0000000000
     13645       119  OSM       H12B            5.0679994544      -20.2863492135      -22.3384189503  MEMB      119             0.0000000000
     13646       119  OSM       C11             4.4517792948      -19.2099363520      -20.6454203060  MEMB      119             0.0000000000
     13647       119  OSM       H11A            5.4573823522      -18.9927872243      -20.2183528295  MEMB      119             0.0000000000
     13648       119  OSM       H11B            4.0195730563      -20.1001040544      -20.1218118440  MEMB      119             0.0000000000
     13649       119  OSM       P               3.1318331218      -17.8775326727      -19.0668314341  MEMB      119             0.0000000000
     13650       119  OSM       O13             2.8518320359      -16.4240387558      -19.0968363865  MEMB      119             0.0000000000
     13651       119  OSM       O14             2.0736883871      -18.8914457032      -18.9491605517  MEMB      119             0.0000000000
     13652       119  OSM       O11             4.2136284080      -18.2740422495      -17.9900144032  MEMB      119             0.0000000000
     13653       119  OSM       O12             3.7270583058      -18.0571868681      -20.4590590192  MEMB      119             0.0000000000
     13654       119  OSM       C1S             3.7298681526      -18.8793335603      -16.7648207584  MEMB      119             0.0000000000
     13655       119  OSM       H1S             3.2848164639      -19.8929823216      -16.9277961520  MEMB      119             0.0000000000
     13656       119  OSM       H1T             2.9428067960      -18.2679324227      -16.2602111015  MEMB      119             0.0000000000
     13657       119  OSM       NF              4.4947325861      -19.6058442979      -14.5428867606  MEMB      119             0.0000000000
     13658       119  OSM       HNF             4.3890124881      -19.0602468772      -13.7297472026  MEMB      119             0.0000000000
     13659       119  OSM       C2S             4.9145154634      -19.0199867040      -15.7797570485  MEMB      119             0.0000000000
     13660       119  OSM       H2S             5.6800243842      -19.6639675440      -16.2781817948  MEMB      119             0.0000000000
     13661       119  OSM       C3S             5.5526325584      -17.6698895574      -15.5166023188  MEMB      119             0.0000000000
     13662       119  OSM       H3S             4.7523126405      -16.9424301501      -15.3447767892  MEMB      119             0.0000000000
     13663       119  OSM       O3              6.3684718819      -17.3058510237      -16.5944676924  MEMB      119             0.0000000000
     13664       119  OSM       HO3             6.2819660012      -18.0040679393      -17.2401593777  MEMB      119             0.0000000000
     13665       119  OSM       C4S             6.4834761052      -17.7683666293      -14.3408608954  MEMB      119             0.0000000000
     13666       119  OSM       H4S             7.4913942445      -18.1170909304      -14.5884350700  MEMB      119             0.0000000000
     13667       119  OSM       C5S             6.2254349214      -17.4213750030      -13.0712332951  MEMB      119             0.0000000000
     13668       119  OSM       H5S             5.2383552343      -17.0457923871      -12.7875782270  MEMB      119             0.0000000000
     13669       119  OSM       C6S             7.2060630980      -17.5694383139      -11.9531701022  MEMB      119             0.0000000000
     13670       119  OSM       H6S             7.4157691476      -16.6333727479      -11.4164341310  MEMB      119             0.0000000000
     13671       119  OSM       H6T             8.1849695822      -17.9476235028      -12.3203151049  MEMB      119             0.0000000000
     13672       119  OSM       C7S             6.5375725765      -18.4979332621      -10.9403806304  MEMB      119             0.0000000000
     13673       119  OSM       H7S             6.2184743217      -19.4421400933      -11.4381016018  MEMB      119             0.0000000000
     13674       119  OSM       H7T             5.7004110228      -18.0168995351      -10.4082122876  MEMB      119             0.0000000000
     13675       119  OSM       C8S             7.4889682156      -18.9861839479       -9.9028746462  MEMB      119             0.0000000000
     13676       119  OSM       H8S             7.9473706369      -18.2250663549       -9.2352960314  MEMB      119             0.0000000000
     13677       119  OSM       H8T             8.2739304606      -19.2331596749      -10.6688478542  MEMB      119             0.0000000000
     13678       119  OSM       C9S             6.9919434837      -20.2713733352       -9.1818357645  MEMB      119             0.0000000000
     13679       119  OSM       H9S             7.7209970546      -20.9990984708       -8.8427412225  MEMB      119             0.0000000000
     13680       119  OSM       H9T             6.4802033807      -20.8907094693       -9.9263233975  MEMB      119             0.0000000000
     13681       119  OSM       C10S            6.2623555899      -20.1817448761       -7.8483116636  MEMB      119             0.0000000000
     13682       119  OSM       H10S            5.3814093429      -19.6258557434       -8.1092413282  MEMB      119             0.0000000000
     13683       119  OSM       H10T            6.7154534971      -19.5326956511       -7.0802429995  MEMB      119             0.0000000000
     13684       119  OSM       C11S            5.9907400106      -21.6077622989       -7.2971490747  MEMB      119             0.0000000000
     13685       119  OSM       H11S            6.8673745536      -22.2859927937       -7.2843308926  MEMB      119             0.0000000000
     13686       119  OSM       H11T            5.2684440696      -22.0889268106       -7.9804617684  MEMB      119             0.0000000000
     13687       119  OSM       C12S            5.4662361617      -21.6577271253       -5.8781812555  MEMB      119             0.0000000000
     13688       119  OSM       H12S            6.1771548796      -21.2114339776       -5.1733711404  MEMB      119             0.0000000000
     13689       119  OSM       H12T            5.3210603273      -22.7067585542       -5.5414540514  MEMB      119             0.0000000000
     13690       119  OSM       C13S            4.1873609223      -20.8818339119       -5.7277518688  MEMB      119             0.0000000000
     13691       119  OSM       H13S            4.2098248835      -19.8916218114       -6.2099051490  MEMB      119             0.0000000000
     13692       119  OSM       H13T            4.1599922280      -20.6302135602       -4.6842528383  MEMB      119             0.0000000000
     13693       119  OSM       C14S            2.9665410024      -21.6619629243       -6.1873515010  MEMB      119             0.0000000000
     13694       119  OSM       H14S            2.9439238371      -22.7357252572       -5.8995523977  MEMB      119             0.0000000000
     13695       119  OSM       H14T            3.1952671462      -21.8791982600       -7.2377848075  MEMB      119             0.0000000000
     13696       119  OSM       C15S            1.6036307966      -20.8643645146       -5.9377468823  MEMB      119             0.0000000000
     13697       119  OSM       H15S            0.9424532829      -21.3374190984       -6.6256168070  MEMB      119             0.0000000000
     13698       119  OSM       H15T            1.6472440303      -19.8533367301       -6.1799810831  MEMB      119             0.0000000000
     13699       119  OSM       C16S            0.9302804949      -20.6166547048       -4.5233168289  MEMB      119             0.0000000000
     13700       119  OSM       H16S            1.3379114226      -19.8228734029       -3.9820697960  MEMB      119             0.0000000000
     13701       119  OSM       H16T            1.5364008771      -21.5363398842       -4.5623187766  MEMB      119             0.0000000000
     13702       119  OSM       C17S           -0.4481973496      -20.7168813666       -3.6074744481  MEMB      119             0.0000000000
     13703       119  OSM       H17S           -1.2619566162      -21.4016054289       -3.7773083656  MEMB      119             0.0000000000
     13704       119  OSM       H17T           -0.9191247473      -20.1288595329       -4.3541734586  MEMB      119             0.0000000000
     13705       119  OSM       C18S           -0.8004502034      -21.1742958816       -2.0278528141  MEMB      119             0.0000000000
     13706       119  OSM       H18S           -1.8909105011      -21.3964141622       -1.9383520860  MEMB      119             0.0000000000
     13707       119  OSM       H18T           -0.1611723848      -20.6584415141       -1.3225490540  MEMB      119             0.0000000000
     13708       119  OSM       H18U           -0.5483939369      -22.2083462299       -1.5757064716  MEMB      119             0.0000000000
     13709       119  OSM       C1F             4.3535149280      -20.8758266127      -14.4155886669  MEMB      119             0.0000000000
     13710       119  OSM       OF              4.8611199118      -21.5781810934      -15.1981955952  MEMB      119             0.0000000000
     13711       119  OSM       C2F             3.6078042111      -21.3734420073      -13.3057247479  MEMB      119             0.0000000000
     13712       119  OSM       H2F             3.0837800012      -22.2865523310      -13.5541654271  MEMB      119             0.0000000000
     13713       119  OSM       H2G             2.9678856704      -20.5133004173      -13.3824738166  MEMB      119             0.0000000000
     13714       119  OSM       C3F             4.4312053941      -21.8194400008      -12.1075912036  MEMB      119             0.0000000000
     13715       119  OSM       H3F             4.9167071486      -20.9271644787      -11.7137792997  MEMB      119             0.0000000000
     13716       119  OSM       H3G             5.0786716451      -22.6013672617      -12.5721544334  MEMB      119             0.0000000000
     13717       119  OSM       C4F             3.8871350380      -22.6705338525      -10.9776676332  MEMB      119             0.0000000000
     13718       119  OSM       H4F             4.6081923547      -22.9125344242      -10.2050805049  MEMB      119             0.0000000000
     13719       119  OSM       H4G             3.3427867888      -23.6172760305      -11.3540425962  MEMB      119             0.0000000000
     13720       119  OSM       C5F             3.3089690511      -22.0411694583       -9.7007892923  MEMB      119             0.0000000000
     13721       119  OSM       H5F             2.5211433948      -22.8778712997       -9.6574905900  MEMB      119             0.0000000000
     13722       119  OSM       H5G             2.4485436130      -22.3519833636      -10.3588880036  MEMB      119             0.0000000000
     13723       119  OSM       C6F             3.2976260940      -20.2105657601       -9.1037663272  MEMB      119             0.0000000000
     13724       119  OSM       H6F             3.7505684042      -19.4716743116       -9.8447183259  MEMB      119             0.0000000000
     13725       119  OSM       H6G             3.8277469650      -20.4268799239       -8.2577715299  MEMB      119             0.0000000000
     13726       119  OSM       C7F             1.8788957080      -19.1911814850       -8.5691169451  MEMB      119             0.0000000000
     13727       119  OSM       H7F             1.1439231718      -19.4469732355       -7.7748004307  MEMB      119             0.0000000000
     13728       119  OSM       H7G             0.9728771934      -19.0850503884       -9.2960834991  MEMB      119             0.0000000000
     13729       119  OSM       C8F             1.4792406727      -17.9312702746       -8.8234819054  MEMB      119             0.0000000000
     13730       119  OSM       H8F             2.3073404795      -18.1934272106       -8.1277798401  MEMB      119             0.0000000000
     13731       119  OSM       H8G             0.5098315359      -17.5556806754       -8.3415086936  MEMB      119             0.0000000000
     13732       119  OSM       C9F             2.1265958978      -17.1101786949       -9.6626835137  MEMB      119             0.0000000000
     13733       119  OSM       H9F             1.4147712025      -16.8376468342      -10.4873633773  MEMB      119             0.0000000000
     13734       119  OSM       C10F            3.3114974765      -16.5897935421       -9.2680835926  MEMB      119             0.0000000000
     13735       119  OSM       H10F            3.3630836114      -15.6429255430       -9.4854040708  MEMB      119             0.0000000000
     13736       119  OSM       C11F            4.4037762582      -16.4277231831       -8.2660859873  MEMB      119             0.0000000000
     13737       119  OSM       H11F            5.0113601303      -15.5789279563       -8.6929488259  MEMB      119             0.0000000000
     13738       119  OSM       H11G            4.8834994219      -17.3797472196       -8.1132918547  MEMB      119             0.0000000000
     13739       119  OSM       C12F            4.4267371864      -15.6470241624       -6.9609535281  MEMB      119             0.0000000000
     13740       119  OSM       H12F            3.6759577205      -16.0568758656       -6.4377475738  MEMB      119             0.0000000000
     13741       119  OSM       H12G            4.0566518659      -14.6001233701       -6.8398198960  MEMB      119             0.0000000000
     13742       119  OSM       C13F            4.8264967478      -16.3492852302       -5.7987883370  MEMB      119             0.0000000000
     13743       119  OSM       H13F            5.5024343259      -15.5704946494       -6.1634466874  MEMB      119             0.0000000000
     13744       119  OSM       H13G            5.3189699757      -17.2839462271       -5.9509786133  MEMB      119             0.0000000000
     13745       119  OSM       C14F            3.9220887270      -16.2036805689       -4.5521487518  MEMB      119             0.0000000000
     13746       119  OSM       H14F            3.2196298939      -15.3381123973       -4.3667123697  MEMB      119             0.0000000000
     13747       119  OSM       H14G            4.7869048231      -16.1664185198       -4.0316660344  MEMB      119             0.0000000000
     13748       119  OSM       C15F            3.5566493253      -17.4282049772       -3.8772122242  MEMB      119             0.0000000000
     13749       119  OSM       H15F            4.0457876961      -18.3530034681       -4.1751808134  MEMB      119             0.0000000000
     13750       119  OSM       H15G            2.7464277650      -17.5824572219       -4.4679047251  MEMB      119             0.0000000000
     13751       119  OSM       C16F            3.3473507587      -17.0259180312       -2.4520957959  MEMB      119             0.0000000000
     13752       119  OSM       H16F            2.4558914115      -17.5016767007       -1.9514491935  MEMB      119             0.0000000000
     13753       119  OSM       H16G            3.2521858969      -15.9509570782       -2.1703007824  MEMB      119             0.0000000000
     13754       119  OSM       C17F            4.5311736734      -17.2924557713       -1.8045018361  MEMB      119             0.0000000000
     13755       119  OSM       H17F            5.5808000527      -17.2376384510       -1.9367946063  MEMB      119             0.0000000000
     13756       119  OSM       H17G            4.8008213426      -18.2035692618       -2.3143055673  MEMB      119             0.0000000000
     13757       119  OSM       C18F            4.4627974637      -16.7869975848       -0.4184730207  MEMB      119             0.0000000000
     13758       119  OSM       H18F            4.8264588367      -17.6351770038       -0.0606178415  MEMB      119             0.0000000000
     13759       119  OSM       H18G            3.5119028241      -17.2205569377       -0.3122923004  MEMB      119             0.0000000000
     13760       119  OSM       H18H            3.8349434383      -16.1632008538        0.2153109181  MEMB      119             0.0000000000
     13761       120  OSM       N               9.6294407104       20.0431375500      -22.5641130057  MEMB      120             0.0000000000
     13762       120  OSM       C15             9.0320051529       21.3777083053      -22.8329137607  MEMB      120             0.0000000000
     13763       120  OSM       H15A            8.0969665213       21.2184628928      -23.3563156620  MEMB      120             0.0000000000
     13764       120  OSM       H15B            9.6798742392       22.0046038748      -23.4416471792  MEMB      120             0.0000000000
     13765       120  OSM       H15C            8.8067993453       21.9152898844      -21.9182611944  MEMB      120             0.0000000000
     13766       120  OSM       C14             9.9518951853       19.3935392253      -23.8768706097  MEMB      120             0.0000000000
     13767       120  OSM       H14A            9.0456288452       19.2735195994      -24.4634385705  MEMB      120             0.0000000000
     13768       120  OSM       H14B           10.3040437944       18.3762581945      -23.7236117460  MEMB      120             0.0000000000
     13769       120  OSM       H14C           10.6617674338       19.9579340526      -24.4546273286  MEMB      120             0.0000000000
     13770       120  OSM       C13            10.7993922758       20.1014165199      -21.6195527549  MEMB      120             0.0000000000
     13771       120  OSM       H13A           11.5868383716       20.7493774581      -21.9466210703  MEMB      120             0.0000000000
     13772       120  OSM       H13B           11.2035211260       19.0969164280      -21.4346388260  MEMB      120             0.0000000000
     13773       120  OSM       H13C           10.4576815659       20.3997309772      -20.6324817724  MEMB      120             0.0000000000
     13774       120  OSM       C12             8.5422662650       19.1928565143      -21.9191966288  MEMB      120             0.0000000000
     13775       120  OSM       H12A            7.7160642361       19.1583573648      -22.6134522484  MEMB      120             0.0000000000
     13776       120  OSM       H12B            8.1762227013       19.6824484980      -21.0257588366  MEMB      120             0.0000000000
     13777       120  OSM       C11             8.9120811446       17.7297676317      -21.5926590103  MEMB      120             0.0000000000
     13778       120  OSM       H11A            9.3961049085       17.3000539227      -22.4786721178  MEMB      120             0.0000000000
     13779       120  OSM       H11B            7.9801249344       17.1279897507      -21.4334603164  MEMB      120             0.0000000000
     13780       120  OSM       P               9.5664439848       16.6680183286      -19.3290112416  MEMB      120             0.0000000000
     13781       120  OSM       O13             9.2111070092       15.3465893133      -19.8690712332  MEMB      120             0.0000000000
     13782       120  OSM       O14            10.6610056433       16.7266237809      -18.3545758558  MEMB      120             0.0000000000
     13783       120  OSM       O11             8.2648494587       17.3786178681      -18.7273746165  MEMB      120             0.0000000000
     13784       120  OSM       O12             9.8677880554       17.6362971125      -20.5410693514  MEMB      120             0.0000000000
     13785       120  OSM       C1S             7.7082933065       16.8435650826      -17.5163403259  MEMB      120             0.0000000000
     13786       120  OSM       H1S             7.6956422556       15.7245670105      -17.5480389737  MEMB      120             0.0000000000
     13787       120  OSM       H1T             6.6394518851       17.1434367206      -17.4750730757  MEMB      120             0.0000000000
     13788       120  OSM       NF              8.0427644886       16.9004763003      -14.9594587603  MEMB      120             0.0000000000
     13789       120  OSM       HNF             7.1950015079       17.3138543385      -14.6361791784  MEMB      120             0.0000000000
     13790       120  OSM       C2S             8.4960858899       17.3557373801      -16.2330618669  MEMB      120             0.0000000000
     13791       120  OSM       H2S             9.5112497194       16.9363154505      -16.3310926994  MEMB      120             0.0000000000
     13792       120  OSM       C3S             8.5191400357       18.8964834126      -16.1566311424  MEMB      120             0.0000000000
     13793       120  OSM       H3S             7.4722977814       19.2836804486      -16.2151275549  MEMB      120             0.0000000000
     13794       120  OSM       O3              9.2288332009       19.4750879254      -17.2223690915  MEMB      120             0.0000000000
     13795       120  OSM       HO3             9.2568264074       18.7349568440      -17.8399943327  MEMB      120             0.0000000000
     13796       120  OSM       C4S             9.1566251727       19.3751770652      -14.8647886658  MEMB      120             0.0000000000
     13797       120  OSM       H4S            10.1006230974       18.8698861720      -14.6099835609  MEMB      120             0.0000000000
     13798       120  OSM       C5S             8.6749618126       20.3469489718      -14.0611664813  MEMB      120             0.0000000000
     13799       120  OSM       H5S             7.8091978047       20.9333688857      -14.4040709331  MEMB      120             0.0000000000
     13800       120  OSM       C6S             9.3045770009       20.8287211261      -12.7797984835  MEMB      120             0.0000000000
     13801       120  OSM       H6S             9.4846798692       21.9223440251      -12.8666254101  MEMB      120             0.0000000000
     13802       120  OSM       H6T            10.2817296932       20.3398249321      -12.5705809486  MEMB      120             0.0000000000
     13803       120  OSM       C7S             8.4934132223       20.6056824060      -11.5082996063  MEMB      120             0.0000000000
     13804       120  OSM       H7S             7.5206518663       21.1515220593      -11.5225585034  MEMB      120             0.0000000000
     13805       120  OSM       H7T             9.0837901198       20.9928686019      -10.6440194000  MEMB      120             0.0000000000
     13806       120  OSM       C8S             8.2316767336       19.1572356263      -11.1895499416  MEMB      120             0.0000000000
     13807       120  OSM       H8S             9.1505715488       18.5720828020      -10.9593700892  MEMB      120             0.0000000000
     13808       120  OSM       H8T             7.7186577941       18.6366976449      -12.0391241433  MEMB      120             0.0000000000
     13809       120  OSM       C9S             7.2730012142       19.1955831687      -10.0165461334  MEMB      120             0.0000000000
     13810       120  OSM       H9S             7.3671242134       18.2040098531       -9.6209131200  MEMB      120             0.0000000000
     13811       120  OSM       H9T             6.2456018413       19.4413025326      -10.3619284631  MEMB      120             0.0000000000
     13812       120  OSM       C10S            7.6227446386       19.5526310145       -8.5872786857  MEMB      120             0.0000000000
     13813       120  OSM       H10S            6.8125224591       19.1198161046       -7.9396760991  MEMB      120             0.0000000000
     13814       120  OSM       H10T            7.5789620747       20.6456021641       -8.5466774182  MEMB      120             0.0000000000
     13815       120  OSM       C11S            8.9818296782       18.9596607475       -8.1794168835  MEMB      120             0.0000000000
     13816       120  OSM       H11S            9.7307525297       19.6483304805       -8.6254293717  MEMB      120             0.0000000000
     13817       120  OSM       H11T            9.1994459904       17.9351597243       -8.5620325572  MEMB      120             0.0000000000
     13818       120  OSM       C12S            9.2602407136       18.8716610677       -6.6871251388  MEMB      120             0.0000000000
     13819       120  OSM       H12S           10.3515119678       18.6563556469       -6.6576882150  MEMB      120             0.0000000000
     13820       120  OSM       H12T            8.7199785308       18.0454121515       -6.1692748284  MEMB      120             0.0000000000
     13821       120  OSM       C13S            9.0122857957       20.1875926687       -5.9740751236  MEMB      120             0.0000000000
     13822       120  OSM       H13S            7.9228699058       20.2827446214       -5.7761798271  MEMB      120             0.0000000000
     13823       120  OSM       H13T            9.2797960084       21.0198158852       -6.6584174247  MEMB      120             0.0000000000
     13824       120  OSM       C14S            9.8082462610       20.2792802847       -4.6714147038  MEMB      120             0.0000000000
     13825       120  OSM       H14S            9.6976918403       21.2998017682       -4.2570200847  MEMB      120             0.0000000000
     13826       120  OSM       H14T           10.8917831610       20.0532730313       -4.8011375446  MEMB      120             0.0000000000
     13827       120  OSM       C15S            9.2797345429       19.3234626457       -3.6269934147  MEMB      120             0.0000000000
     13828       120  OSM       H15S            9.8686573325       19.4168131529       -2.7300117286  MEMB      120             0.0000000000
     13829       120  OSM       H15T            9.5703871432       18.3162039368       -3.9913452295  MEMB      120             0.0000000000
     13830       120  OSM       C16S            7.8196750668       19.6654909032       -3.2609381310  MEMB      120             0.0000000000
     13831       120  OSM       H16S            7.1639582426       19.3361717492       -4.1071674511  MEMB      120             0.0000000000
     13832       120  OSM       H16T            7.6275814213       20.7047602500       -2.9703083624  MEMB      120             0.0000000000
     13833       120  OSM       C17S            7.2569333217       19.0342915378       -2.0328587707  MEMB      120             0.0000000000
     13834       120  OSM       H17S            7.9575862756       18.5508336434       -1.2930040187  MEMB      120             0.0000000000
     13835       120  OSM       H17T            6.6209427111       18.3323478985       -2.5607879227  MEMB      120             0.0000000000
     13836       120  OSM       C18S            5.9037278362       19.2376999534       -1.5875404452  MEMB      120             0.0000000000
     13837       120  OSM       H18S            5.8826420690       18.2611700930       -0.9932654877  MEMB      120             0.0000000000
     13838       120  OSM       H18T            4.9292750054       18.9064611197       -2.0025117394  MEMB      120             0.0000000000
     13839       120  OSM       H18U            5.9988655456       20.1507976955       -0.9793271215  MEMB      120             0.0000000000
     13840       120  OSM       C1F             8.4582684471       15.7646617893      -14.4232807118  MEMB      120             0.0000000000
     13841       120  OSM       OF              9.2887696248       15.0071924278      -14.8738747588  MEMB      120             0.0000000000
     13842       120  OSM       C2F             7.6892300645       15.4214383481      -13.2693154652  MEMB      120             0.0000000000
     13843       120  OSM       H2F             6.6875179901       15.5398502052      -13.5396168453  MEMB      120             0.0000000000
     13844       120  OSM       H2G             7.6270678369       16.2361134870      -12.5275253206  MEMB      120             0.0000000000
     13845       120  OSM       C3F             7.9203091823       14.0232736548      -12.7212082413  MEMB      120             0.0000000000
     13846       120  OSM       H3F             8.1091611824       13.3286938982      -13.5357736681  MEMB      120             0.0000000000
     13847       120  OSM       H3G             7.3456492629       13.2765471236      -12.0979299544  MEMB      120             0.0000000000
     13848       120  OSM       C4F             8.6977124401       14.6055183209      -11.6257370418  MEMB      120             0.0000000000
     13849       120  OSM       H4F             9.6084833012       14.9684262475      -12.0678304816  MEMB      120             0.0000000000
     13850       120  OSM       H4G             8.8223835576       13.7244674903      -11.1682316183  MEMB      120             0.0000000000
     13851       120  OSM       C5F             8.3981343895       14.6812665010      -10.1389007591  MEMB      120             0.0000000000
     13852       120  OSM       H5F             7.7708566831       13.9315756360       -9.5967424980  MEMB      120             0.0000000000
     13853       120  OSM       H5G             7.7136594799       15.4240429960      -10.2612921905  MEMB      120             0.0000000000
     13854       120  OSM       C6F             9.6097484748       14.8674845922       -9.2248594120  MEMB      120             0.0000000000
     13855       120  OSM       H6F            10.0758593606       15.7500988158       -9.6661918638  MEMB      120             0.0000000000
     13856       120  OSM       H6G            10.2870405259       14.0022672195       -9.1995965490  MEMB      120             0.0000000000
     13857       120  OSM       C7F             9.4604505900       15.0351178102       -7.7352207928  MEMB      120             0.0000000000
     13858       120  OSM       H7F             9.0010707143       16.0258424361       -7.7822204254  MEMB      120             0.0000000000
     13859       120  OSM       H7G            10.3728323516       15.1890042997       -7.1623394591  MEMB      120             0.0000000000
     13860       120  OSM       C8F             8.6447010593       14.0592177887       -6.9475041097  MEMB      120             0.0000000000
     13861       120  OSM       H8F             7.8866937109       13.4056327125       -7.4425644465  MEMB      120             0.0000000000
     13862       120  OSM       H8G             8.0796641939       14.4938485634       -6.1406484710  MEMB      120             0.0000000000
     13863       120  OSM       C9F             9.0036924310       12.9378733695       -6.4643803305  MEMB      120             0.0000000000
     13864       120  OSM       H9F             9.8997636755       12.7109909334       -7.0182445255  MEMB      120             0.0000000000
     13865       120  OSM       C10F            9.2268133396       12.5792702446       -5.3519300216  MEMB      120             0.0000000000
     13866       120  OSM       H10F            9.8887203054       11.6961075267       -5.5182553348  MEMB      120             0.0000000000
     13867       120  OSM       C11F            9.1828663567       13.6317430839       -4.2946831026  MEMB      120             0.0000000000
     13868       120  OSM       H11F            8.7031269434       12.8202585271       -3.7530820629  MEMB      120             0.0000000000
     13869       120  OSM       H11G            8.4202618487       14.3208815388       -4.4324790089  MEMB      120             0.0000000000
     13870       120  OSM       C12F           10.3606478395       14.6578984742       -3.6231876151  MEMB      120             0.0000000000
     13871       120  OSM       H12F           11.0234009596       15.3085265179       -4.2460801219  MEMB      120             0.0000000000
     13872       120  OSM       H12G           11.3802813056       14.2188863592       -3.3493750905  MEMB      120             0.0000000000
     13873       120  OSM       C13F           10.3062452743       15.1617441942       -2.2765889116  MEMB      120             0.0000000000
     13874       120  OSM       H13F            9.8841449992       16.0567318120       -2.3567806631  MEMB      120             0.0000000000
     13875       120  OSM       H13G           11.3472065177       15.5616373654       -2.3326203869  MEMB      120             0.0000000000
     13876       120  OSM       C14F            9.7073322436       14.5036059626       -1.0068899672  MEMB      120             0.0000000000
     13877       120  OSM       H14F           10.5096512261       13.8851632899       -0.8693617332  MEMB      120             0.0000000000
     13878       120  OSM       H14G            8.8903058409       13.8253687734       -1.1175466256  MEMB      120             0.0000000000
     13879       120  OSM       C15F            9.5951755361       14.9257564036        0.4080645639  MEMB      120             0.0000000000
     13880       120  OSM       H15F            9.2668889164       15.9437044186        0.2139286281  MEMB      120             0.0000000000
     13881       120  OSM       H15G           10.4593796275       14.8998693156        1.1437446382  MEMB      120             0.0000000000
     13882       120  OSM       C16F            9.0607641425       13.9492507827        1.2907870670  MEMB      120             0.0000000000
     13883       120  OSM       H16F            9.5660448901       12.9753327336        1.2889830513  MEMB      120             0.0000000000
     13884       120  OSM       H16G            8.1360057060       13.8791399010        0.6958523816  MEMB      120             0.0000000000
     13885       120  OSM       C17F            9.1547455895       14.5148916542        2.7069260688  MEMB      120             0.0000000000
     13886       120  OSM       H17F           10.1092724101       14.2048017598        3.1130495478  MEMB      120             0.0000000000
     13887       120  OSM       H17G            8.4795145551       14.0397737584        3.3804196283  MEMB      120             0.0000000000
     13888       120  OSM       C18F            8.8534986372       15.9934126153        2.7434754848  MEMB      120             0.0000000000
     13889       120  OSM       H18F            9.2834373313       16.6747651035        2.1858702446  MEMB      120             0.0000000000
     13890       120  OSM       H18G            8.1752114161       16.5090843969        3.4017097851  MEMB      120             0.0000000000
     13891       120  OSM       H18H            8.4503408054       16.2304415761        1.7715969359  MEMB      120             0.0000000000
     13892       121  OSM       N             -11.4652406936      -18.0135698627      -21.8984114238  MEMB      121             0.0000000000
     13893       121  OSM       C15           -11.6122131826      -17.4880987540      -20.5260184560  MEMB      121             0.0000000000
     13894       121  OSM       H15A          -11.8554389562      -16.4362968267      -20.5364053555  MEMB      121             0.0000000000
     13895       121  OSM       H15B          -10.6708991324      -17.6485382143      -20.0028865705  MEMB      121             0.0000000000
     13896       121  OSM       H15C          -12.3983454483      -18.0353945008      -20.0138710934  MEMB      121             0.0000000000
     13897       121  OSM       C14           -12.5374339790      -17.4355043248      -22.7527494333  MEMB      121             0.0000000000
     13898       121  OSM       H14A          -13.4886012466      -17.4463937005      -22.2277391185  MEMB      121             0.0000000000
     13899       121  OSM       H14B          -12.6292866032      -18.0272892539      -23.6601724299  MEMB      121             0.0000000000
     13900       121  OSM       H14C          -12.2488690812      -16.4253013159      -23.0089954153  MEMB      121             0.0000000000
     13901       121  OSM       C13           -10.1176932757      -17.6190855209      -22.4510065532  MEMB      121             0.0000000000
     13902       121  OSM       H13A          -10.0337947896      -17.8113345170      -23.5191562528  MEMB      121             0.0000000000
     13903       121  OSM       H13B           -9.3238600218      -18.2134416029      -21.9880428649  MEMB      121             0.0000000000
     13904       121  OSM       H13C           -9.8926220823      -16.5864615539      -22.2664039300  MEMB      121             0.0000000000
     13905       121  OSM       C12           -11.5952334147      -19.5308254880      -21.8265746160  MEMB      121             0.0000000000
     13906       121  OSM       H12A          -11.5041917479      -19.9379759058      -22.8232035543  MEMB      121             0.0000000000
     13907       121  OSM       H12B          -12.5970807617      -19.7756477155      -21.4825929946  MEMB      121             0.0000000000
     13908       121  OSM       C11           -10.6352320383      -20.3194394445      -20.8887062375  MEMB      121             0.0000000000
     13909       121  OSM       H11A          -10.9192598308      -21.3937750729      -20.9516633045  MEMB      121             0.0000000000
     13910       121  OSM       H11B          -10.8611633340      -20.0277217964      -19.8448002544  MEMB      121             0.0000000000
     13911       121  OSM       P              -8.1426026393      -19.8810480755      -20.1453519629  MEMB      121             0.0000000000
     13912       121  OSM       O13            -7.5913438839      -21.1714906822      -19.6641313507  MEMB      121             0.0000000000
     13913       121  OSM       O14            -7.2349576356      -18.8476040134      -20.7054041379  MEMB      121             0.0000000000
     13914       121  OSM       O11            -9.0246592125      -19.1549469122      -19.0192085152  MEMB      121             0.0000000000
     13915       121  OSM       O12            -9.2577645942      -20.1619220843      -21.2312798069  MEMB      121             0.0000000000
     13916       121  OSM       C1S            -8.4191205676      -18.7282372868      -17.8013866734  MEMB      121             0.0000000000
     13917       121  OSM       H1S            -7.7014878333      -17.9053242504      -18.0146523041  MEMB      121             0.0000000000
     13918       121  OSM       H1T            -7.8639164429      -19.5589606326      -17.3066425959  MEMB      121             0.0000000000
     13919       121  OSM       NF             -8.7972748008      -17.6362314515      -15.6230078812  MEMB      121             0.0000000000
     13920       121  OSM       HNF            -8.9091262333      -18.1650776842      -14.7938125092  MEMB      121             0.0000000000
     13921       121  OSM       C2S            -9.4715251096      -18.2201707298      -16.7758883608  MEMB      121             0.0000000000
     13922       121  OSM       H2S           -10.0902762157      -17.4325468206      -17.2665002480  MEMB      121             0.0000000000
     13923       121  OSM       C3S           -10.4344427611      -19.3586334412      -16.3217344041  MEMB      121             0.0000000000
     13924       121  OSM       H3S            -9.8010509476      -20.1531776287      -15.8616765307  MEMB      121             0.0000000000
     13925       121  OSM       O3            -11.2212838731      -19.9544256952      -17.3482802119  MEMB      121             0.0000000000
     13926       121  OSM       HO3           -10.8178670279      -19.6681349977      -18.1726847619  MEMB      121             0.0000000000
     13927       121  OSM       C4S           -11.3955672931      -18.8261730633      -15.2833793165  MEMB      121             0.0000000000
     13928       121  OSM       H4S           -12.2624292430      -18.2384376576      -15.6170930264  MEMB      121             0.0000000000
     13929       121  OSM       C5S           -11.2514124018      -19.0343221002      -13.9745813167  MEMB      121             0.0000000000
     13930       121  OSM       H5S           -10.4865845422      -19.7327464945      -13.6003864762  MEMB      121             0.0000000000
     13931       121  OSM       C6S           -12.1917035987      -18.5500138253      -12.9298945036  MEMB      121             0.0000000000
     13932       121  OSM       H6S           -12.1056713883      -19.3873417946      -12.2116643639  MEMB      121             0.0000000000
     13933       121  OSM       H6T           -13.2623139325      -18.4326208003      -13.2722514600  MEMB      121             0.0000000000
     13934       121  OSM       C7S           -11.7981045101      -17.4706555333      -12.0237139522  MEMB      121             0.0000000000
     13935       121  OSM       H7S           -11.8694546911      -16.5415513031      -12.6305591052  MEMB      121             0.0000000000
     13936       121  OSM       H7T           -10.7684184279      -17.6817235568      -11.6675320749  MEMB      121             0.0000000000
     13937       121  OSM       C8S           -12.6848966274      -17.4390740747      -10.8037710512  MEMB      121             0.0000000000
     13938       121  OSM       H8S           -12.3132064604      -17.9899157960       -9.9200117725  MEMB      121             0.0000000000
     13939       121  OSM       H8T           -13.7583007533      -17.7146765024      -10.9683351155  MEMB      121             0.0000000000
     13940       121  OSM       C9S           -12.6753748392      -16.0488137036      -10.4062884694  MEMB      121             0.0000000000
     13941       121  OSM       H9S           -13.6525531248      -15.7840688756      -10.8531579797  MEMB      121             0.0000000000
     13942       121  OSM       H9T           -11.8147268141      -15.4490499838      -10.8102217099  MEMB      121             0.0000000000
     13943       121  OSM       C10S          -12.8419431572      -15.9185895538       -8.9404350210  MEMB      121             0.0000000000
     13944       121  OSM       H10S          -13.8213349213      -16.2454439470       -8.5531642775  MEMB      121             0.0000000000
     13945       121  OSM       H10T          -12.9263632184      -14.8973623104       -9.0646043582  MEMB      121             0.0000000000
     13946       121  OSM       C11S          -11.5893237685      -15.9484672350       -8.0947257447  MEMB      121             0.0000000000
     13947       121  OSM       H11S          -10.8452809283      -15.1803988642       -8.4408904412  MEMB      121             0.0000000000
     13948       121  OSM       H11T          -11.1502764518      -16.9078446132       -8.2789635876  MEMB      121             0.0000000000
     13949       121  OSM       C12S          -11.8398719880      -15.7584590169       -6.6137894126  MEMB      121             0.0000000000
     13950       121  OSM       H12S          -12.6695517307      -16.3465802252       -6.2020990088  MEMB      121             0.0000000000
     13951       121  OSM       H12T          -12.2595228630      -14.8400074036       -6.5129973790  MEMB      121             0.0000000000
     13952       121  OSM       C13S          -10.6020375855      -15.5098317653       -5.7686889296  MEMB      121             0.0000000000
     13953       121  OSM       H13S          -10.9471830201      -15.3061970110       -4.7268061816  MEMB      121             0.0000000000
     13954       121  OSM       H13T          -10.0410061041      -14.6115370779       -6.1279791408  MEMB      121             0.0000000000
     13955       121  OSM       C14S           -9.8077974855      -16.7815956100       -5.8220033071  MEMB      121             0.0000000000
     13956       121  OSM       H14S           -9.6186850462      -17.0716629317       -6.8788826207  MEMB      121             0.0000000000
     13957       121  OSM       H14T          -10.4907958717      -17.5082330329       -5.3305190972  MEMB      121             0.0000000000
     13958       121  OSM       C15S           -8.4821332433      -16.7968260084       -5.0904271923  MEMB      121             0.0000000000
     13959       121  OSM       H15S           -7.7505448845      -16.2347057173       -5.7058454769  MEMB      121             0.0000000000
     13960       121  OSM       H15T           -8.1484625061      -17.8577607230       -5.0107339842  MEMB      121             0.0000000000
     13961       121  OSM       C16S           -8.5834752444      -16.1927558603       -3.7022183902  MEMB      121             0.0000000000
     13962       121  OSM       H16S           -9.5086139132      -16.5644214342       -3.2008619888  MEMB      121             0.0000000000
     13963       121  OSM       H16T           -8.6377356045      -15.0855723207       -3.7916997737  MEMB      121             0.0000000000
     13964       121  OSM       C17S           -7.4184855567      -16.5529484351       -2.8168488412  MEMB      121             0.0000000000
     13965       121  OSM       H17S           -6.4344002871      -16.4012008651       -3.3248458902  MEMB      121             0.0000000000
     13966       121  OSM       H17T           -7.4926870183      -17.6318733588       -2.5454294179  MEMB      121             0.0000000000
     13967       121  OSM       C18S           -7.4542739179      -15.7256400816       -1.5618136464  MEMB      121             0.0000000000
     13968       121  OSM       H18S           -8.2941409778      -15.9231464261       -0.8728914327  MEMB      121             0.0000000000
     13969       121  OSM       H18T           -7.3598432800      -14.6299580372       -1.7334255038  MEMB      121             0.0000000000
     13970       121  OSM       H18U           -6.5850707744      -16.1200003747       -1.0619587327  MEMB      121             0.0000000000
     13971       121  OSM       C1F            -7.9933053173      -16.5629898901      -15.5805338040  MEMB      121             0.0000000000
     13972       121  OSM       OF             -7.6764330400      -15.9516228619      -16.5924117473  MEMB      121             0.0000000000
     13973       121  OSM       C2F            -7.5238456686      -16.1655214913      -14.2045385418  MEMB      121             0.0000000000
     13974       121  OSM       H2F            -6.6625267414      -15.4775045191      -14.2480974248  MEMB      121             0.0000000000
     13975       121  OSM       H2G            -7.2047580506      -16.9921136495      -13.5795068870  MEMB      121             0.0000000000
     13976       121  OSM       C3F            -8.7025014732      -15.7626309272      -13.3307992963  MEMB      121             0.0000000000
     13977       121  OSM       H3F            -9.4243861345      -16.6032913110      -13.2364639240  MEMB      121             0.0000000000
     13978       121  OSM       H3G            -9.2228778705      -15.0043802104      -13.8931353310  MEMB      121             0.0000000000
     13979       121  OSM       C4F            -8.3187990861      -15.1829668961      -11.9617264364  MEMB      121             0.0000000000
     13980       121  OSM       H4F            -9.2693315431      -15.0076978019      -11.4212908684  MEMB      121             0.0000000000
     13981       121  OSM       H4G            -7.8135927101      -14.1984711434      -12.1077039830  MEMB      121             0.0000000000
     13982       121  OSM       C5F            -7.3936906080      -16.0175877877      -11.0777676141  MEMB      121             0.0000000000
     13983       121  OSM       H5F            -7.0590552618      -15.3797955209      -10.2233226556  MEMB      121             0.0000000000
     13984       121  OSM       H5G            -6.4838080598      -16.2916992035      -11.6559175412  MEMB      121             0.0000000000
     13985       121  OSM       C6F            -8.0291041310      -17.2748749212      -10.4780620459  MEMB      121             0.0000000000
     13986       121  OSM       H6F            -8.5616545477      -17.8780639471      -11.2449751608  MEMB      121             0.0000000000
     13987       121  OSM       H6G            -8.7612404850      -16.9883182638       -9.6929211015  MEMB      121             0.0000000000
     13988       121  OSM       C7F            -6.9370182052      -18.1493171145       -9.8708016785  MEMB      121             0.0000000000
     13989       121  OSM       H7F            -6.2338069466      -17.5505438009       -9.2547939300  MEMB      121             0.0000000000
     13990       121  OSM       H7G            -6.3971218184      -18.6450827774      -10.6697772904  MEMB      121             0.0000000000
     13991       121  OSM       C8F            -7.3599197122      -19.3571757601       -9.0741425614  MEMB      121             0.0000000000
     13992       121  OSM       H8F            -7.9485998386      -18.9757543441       -8.2159658359  MEMB      121             0.0000000000
     13993       121  OSM       H8G            -6.4242816913      -19.8354658111       -8.7157952817  MEMB      121             0.0000000000
     13994       121  OSM       C9F            -8.0785963411      -20.3825448534       -9.8807069096  MEMB      121             0.0000000000
     13995       121  OSM       H9F            -7.4833948175      -21.0365542765      -10.5424402418  MEMB      121             0.0000000000
     13996       121  OSM       C10F           -9.3889918669      -20.5131114131       -9.7843958589  MEMB      121             0.0000000000
     13997       121  OSM       H10F           -9.8498056213      -21.4577734403      -10.0698366053  MEMB      121             0.0000000000
     13998       121  OSM       C11F          -10.3205445842      -19.7178456616       -8.9161228262  MEMB      121             0.0000000000
     13999       121  OSM       H11F          -11.1943192112      -19.5843356043       -9.5751697075  MEMB      121             0.0000000000
     14000       121  OSM       H11G          -10.0015163821      -18.7246399000       -8.5910734687  MEMB      121             0.0000000000
     14001       121  OSM       C12F          -10.5980608158      -20.4390883123       -7.5810999627  MEMB      121             0.0000000000
     14002       121  OSM       H12F           -9.7447227821      -20.7729854064       -6.9852694533  MEMB      121             0.0000000000
     14003       121  OSM       H12G          -10.5963060479      -21.3944065159       -8.0110977432  MEMB      121             0.0000000000
     14004       121  OSM       C13F          -11.8770382954      -19.9986188389       -6.7697450414  MEMB      121             0.0000000000
     14005       121  OSM       H13F          -12.7370696810      -19.6078740470       -7.3581178168  MEMB      121             0.0000000000
     14006       121  OSM       H13G          -11.4988913349      -19.1254615206       -6.2368827424  MEMB      121             0.0000000000
     14007       121  OSM       C14F          -12.6376686587      -20.9848516281       -5.8372645682  MEMB      121             0.0000000000
     14008       121  OSM       H14F          -13.2976790805      -21.6849505862       -6.4070702581  MEMB      121             0.0000000000
     14009       121  OSM       H14G          -13.4258093246      -20.4754691491       -5.2625691671  MEMB      121             0.0000000000
     14010       121  OSM       C15F          -11.7372474841      -21.8129514434       -4.9300763107  MEMB      121             0.0000000000
     14011       121  OSM       H15F          -11.1016831608      -22.5124848913       -5.5275016673  MEMB      121             0.0000000000
     14012       121  OSM       H15G          -12.4204850392      -22.3745565116       -4.2480043817  MEMB      121             0.0000000000
     14013       121  OSM       C16F          -10.6513104523      -21.1384091651       -4.1558377261  MEMB      121             0.0000000000
     14014       121  OSM       H16F           -9.8759819596      -20.8296108609       -4.8898981301  MEMB      121             0.0000000000
     14015       121  OSM       H16G          -10.1929358065      -21.9147994291       -3.5021484908  MEMB      121             0.0000000000
     14016       121  OSM       C17F          -11.1833988317      -19.9349174088       -3.4092875028  MEMB      121             0.0000000000
     14017       121  OSM       H17F          -11.6480516531      -19.2368515175       -4.1245954243  MEMB      121             0.0000000000
     14018       121  OSM       H17G          -10.2913178957      -19.4285593744       -2.9708838148  MEMB      121             0.0000000000
     14019       121  OSM       C18F          -12.2056937905      -20.2441317580       -2.3241111730  MEMB      121             0.0000000000
     14020       121  OSM       H18F          -11.5533924545      -20.2676959132       -1.4624687279  MEMB      121             0.0000000000
     14021       121  OSM       H18G          -12.8029111364      -21.1818848814       -2.4537664513  MEMB      121             0.0000000000
     14022       121  OSM       H18H          -12.8223574962      -19.4345575848       -1.9254520753  MEMB      121             0.0000000000
     14023       122  OSM       N              16.5758977617       16.0530804315      -22.9070459149  MEMB      122             0.0000000000
     14024       122  OSM       C15            15.3403637957       15.3854603526      -22.3449681245  MEMB      122             0.0000000000
     14025       122  OSM       H15A           14.9186143230       14.7229786954      -23.0846010513  MEMB      122             0.0000000000
     14026       122  OSM       H15B           14.5625685207       16.0661251082      -22.0289172773  MEMB      122             0.0000000000
     14027       122  OSM       H15C           15.6015387961       14.7770015872      -21.4671052489  MEMB      122             0.0000000000
     14028       122  OSM       C14            17.5505228532       14.9477931171      -23.1893927696  MEMB      122             0.0000000000
     14029       122  OSM       H14A           17.1403830803       14.3600760404      -23.9976352774  MEMB      122             0.0000000000
     14030       122  OSM       H14B           17.6596226876       14.3067811502      -22.3006735600  MEMB      122             0.0000000000
     14031       122  OSM       H14C           18.5368634185       15.3124776501      -23.4307483846  MEMB      122             0.0000000000
     14032       122  OSM       C13            16.2243934064       16.7424280365      -24.1661534436  MEMB      122             0.0000000000
     14033       122  OSM       H13A           15.5846829812       17.6002594520      -23.9811080568  MEMB      122             0.0000000000
     14034       122  OSM       H13B           15.7127817436       16.0630463663      -24.8434326418  MEMB      122             0.0000000000
     14035       122  OSM       H13C           17.1199163686       17.1139622424      -24.6369428262  MEMB      122             0.0000000000
     14036       122  OSM       C12            17.1350660332       17.0455738806      -21.9160684521  MEMB      122             0.0000000000
     14037       122  OSM       H12A           16.3779408855       17.7592325170      -21.6348205932  MEMB      122             0.0000000000
     14038       122  OSM       H12B           17.9050730876       17.6568871950      -22.3848443868  MEMB      122             0.0000000000
     14039       122  OSM       C11            17.6949883021       16.4468576282      -20.6193898469  MEMB      122             0.0000000000
     14040       122  OSM       H11A           17.8996488213       17.2932780620      -19.9091778358  MEMB      122             0.0000000000
     14041       122  OSM       H11B           18.6207212061       15.9586129637      -20.9253314290  MEMB      122             0.0000000000
     14042       122  OSM       P              17.7235568730       14.2429400090      -19.2593323814  MEMB      122             0.0000000000
     14043       122  OSM       O13            16.8837408286       13.8632458884      -18.1130516879  MEMB      122             0.0000000000
     14044       122  OSM       O14            18.1935934259       13.2080215831      -20.2088030960  MEMB      122             0.0000000000
     14045       122  OSM       O11            18.9766362387       15.1325764534      -18.8124839145  MEMB      122             0.0000000000
     14046       122  OSM       O12            16.9293432505       15.3995193874      -20.0357447048  MEMB      122             0.0000000000
     14047       122  OSM       C1S            18.7307964892       16.0695825685      -17.7915828941  MEMB      122             0.0000000000
     14048       122  OSM       H1S            17.7222253979       16.5594025161      -17.8850516453  MEMB      122             0.0000000000
     14049       122  OSM       H1T            19.4866501394       16.9037321329      -17.8007540644  MEMB      122             0.0000000000
     14050       122  OSM       NF             18.1296495087       16.5119051822      -15.7877331441  MEMB      122             0.0000000000
     14051       122  OSM       HNF            18.7937906845       17.1058730696      -15.3405284813  MEMB      122             0.0000000000
     14052       122  OSM       C2S            18.8118318354       15.3191559513      -16.4931693545  MEMB      122             0.0000000000
     14053       122  OSM       H2S            18.2070491007       14.4491083942      -16.3014919451  MEMB      122             0.0000000000
     14054       122  OSM       C3S            20.5117861328       14.8461006893      -16.3815658514  MEMB      122             0.0000000000
     14055       122  OSM       H3S            21.0548078935       15.6292777470      -16.8775168872  MEMB      122             0.0000000000
     14056       122  OSM       O3             20.5960015717       13.7659882466      -17.2587949127  MEMB      122             0.0000000000
     14057       122  OSM       HO3            19.6845917877       13.4916083732      -17.1792340099  MEMB      122             0.0000000000
     14058       122  OSM       C4S            21.0653244788       14.4958473116      -14.8010766264  MEMB      122             0.0000000000
     14059       122  OSM       H4S            20.5049144866       13.6596364413      -14.4326912555  MEMB      122             0.0000000000
     14060       122  OSM       C5S            21.7491394426       15.2149491886      -13.7446745299  MEMB      122             0.0000000000
     14061       122  OSM       H5S            22.0074326962       16.2753924689      -13.5726058764  MEMB      122             0.0000000000
     14062       122  OSM       C6S            22.3026828959       15.4517248339      -12.4541796850  MEMB      122             0.0000000000
     14063       122  OSM       H6S            22.4296114573       16.4535187114      -11.9701579971  MEMB      122             0.0000000000
     14064       122  OSM       H6T            23.3603024548       15.5405278742      -12.2254440291  MEMB      122             0.0000000000
     14065       122  OSM       C7S            20.8776838511       14.6449201376      -12.3452023754  MEMB      122             0.0000000000
     14066       122  OSM       H7S            21.6924348105       14.7455635454      -11.7389523318  MEMB      122             0.0000000000
     14067       122  OSM       H7T            20.6985116261       13.5485671829      -12.3633328338  MEMB      122             0.0000000000
     14068       122  OSM       C8S            19.5188268602       14.7107735409      -11.5708927466  MEMB      122             0.0000000000
     14069       122  OSM       H8S            18.9629734182       14.7007523250      -12.5419215266  MEMB      122             0.0000000000
     14070       122  OSM       H8T            19.3773250942       15.5716413118      -10.9442848755  MEMB      122             0.0000000000
     14071       122  OSM       C9S            18.8425611081       13.4806065348      -10.8245230145  MEMB      122             0.0000000000
     14072       122  OSM       H9S            19.1051740002       12.5697542010      -11.3932575800  MEMB      122             0.0000000000
     14073       122  OSM       H9T            17.7582526899       13.7237402607      -10.9617282210  MEMB      122             0.0000000000
     14074       122  OSM       C10S           19.0861448472       13.1178215126       -9.3078562523  MEMB      122             0.0000000000
     14075       122  OSM       H10S           20.0689665493       12.7103295145       -9.0074317203  MEMB      122             0.0000000000
     14076       122  OSM       H10T           18.5312107349       12.2198869579       -9.0242009826  MEMB      122             0.0000000000
     14077       122  OSM       C11S           18.8061077615       14.2510940590       -8.3516395252  MEMB      122             0.0000000000
     14078       122  OSM       H11S           17.7231030883       14.2216875349       -8.1650492897  MEMB      122             0.0000000000
     14079       122  OSM       H11T           18.9566751633       15.1871164101       -8.8976102455  MEMB      122             0.0000000000
     14080       122  OSM       C12S           19.5867709113       14.1950956631       -7.0228635581  MEMB      122             0.0000000000
     14081       122  OSM       H12S           19.3408746458       15.1120945117       -6.4587233585  MEMB      122             0.0000000000
     14082       122  OSM       H12T           20.6857061213       14.2075189667       -7.1700827402  MEMB      122             0.0000000000
     14083       122  OSM       C13S           19.0825626791       13.0838098097       -6.1121507716  MEMB      122             0.0000000000
     14084       122  OSM       H13S           19.0192241890       12.1377694165       -6.6903624816  MEMB      122             0.0000000000
     14085       122  OSM       H13T           18.0419950519       13.3787812702       -5.8567431788  MEMB      122             0.0000000000
     14086       122  OSM       C14S           19.9075021286       12.7092431689       -4.8637583600  MEMB      122             0.0000000000
     14087       122  OSM       H14S           20.9904364087       12.6783457887       -5.1006431674  MEMB      122             0.0000000000
     14088       122  OSM       H14T           19.5917688384       11.6956885629       -4.5452823118  MEMB      122             0.0000000000
     14089       122  OSM       C15S           19.7005012070       13.4872393027       -3.5895127002  MEMB      122             0.0000000000
     14090       122  OSM       H15S           20.2568502011       13.0427670404       -2.7379018728  MEMB      122             0.0000000000
     14091       122  OSM       H15T           18.6442945505       13.6660097686       -3.2868787793  MEMB      122             0.0000000000
     14092       122  OSM       C16S           20.2549175442       14.8149808719       -3.6806990234  MEMB      122             0.0000000000
     14093       122  OSM       H16S           19.3521014109       15.2767441803       -4.1340823460  MEMB      122             0.0000000000
     14094       122  OSM       H16T           21.0765725244       14.9794168899       -4.4332660909  MEMB      122             0.0000000000
     14095       122  OSM       C17S           20.6196794307       15.2384922209       -2.2542434583  MEMB      122             0.0000000000
     14096       122  OSM       H17S           21.5631269293       15.7343222338       -2.2695451272  MEMB      122             0.0000000000
     14097       122  OSM       H17T           20.9997901590       14.5072418885       -1.5515901837  MEMB      122             0.0000000000
     14098       122  OSM       C18S           19.5729276831       15.9413536014       -1.4947353356  MEMB      122             0.0000000000
     14099       122  OSM       H18S           18.5450280480       15.6667884084       -1.6369829545  MEMB      122             0.0000000000
     14100       122  OSM       H18T           19.5968546591       16.8292962810       -1.9889632198  MEMB      122             0.0000000000
     14101       122  OSM       H18U           19.7853915594       16.6195488649       -0.7029603038  MEMB      122             0.0000000000
     14102       122  OSM       C1F            16.9751210516       16.4969913890      -15.1134970044  MEMB      122             0.0000000000
     14103       122  OSM       OF             16.2743302773       15.5148588081      -15.1142268541  MEMB      122             0.0000000000
     14104       122  OSM       C2F            16.5916710946       17.7027548278      -14.2732898481  MEMB      122             0.0000000000
     14105       122  OSM       H2F            15.8686936509       18.2253531710      -14.9285875005  MEMB      122             0.0000000000
     14106       122  OSM       H2G            17.4481821516       18.3664419747      -14.0630732359  MEMB      122             0.0000000000
     14107       122  OSM       C3F            15.8766349159       17.4138713739      -12.9073771419  MEMB      122             0.0000000000
     14108       122  OSM       H3F            15.0763481026       16.6797702320      -13.0739656557  MEMB      122             0.0000000000
     14109       122  OSM       H3G            15.4283402784       18.3717087439      -12.5592925920  MEMB      122             0.0000000000
     14110       122  OSM       C4F            16.8450247435       16.9387741570      -11.8206033816  MEMB      122             0.0000000000
     14111       122  OSM       H4F            17.5748140608       17.7324898836      -11.9797951194  MEMB      122             0.0000000000
     14112       122  OSM       H4G            17.2828928911       15.9587859544      -12.0955565597  MEMB      122             0.0000000000
     14113       122  OSM       C5F            16.5014991265       16.9030604974      -10.3181639738  MEMB      122             0.0000000000
     14114       122  OSM       H5F            17.4073039630       16.7053261729       -9.6879641539  MEMB      122             0.0000000000
     14115       122  OSM       H5G            15.8131576601       16.0490222752      -10.1891400149  MEMB      122             0.0000000000
     14116       122  OSM       C6F            15.8168607221       18.1549900475       -9.7762788250  MEMB      122             0.0000000000
     14117       122  OSM       H6F            14.8672812736       18.2591497161      -10.3416320279  MEMB      122             0.0000000000
     14118       122  OSM       H6G            16.4516881148       19.0364805764       -9.9792716721  MEMB      122             0.0000000000
     14119       122  OSM       C7F            15.5278043953       18.1026370051       -8.2642950181  MEMB      122             0.0000000000
     14120       122  OSM       H7F            15.0832938646       19.0729983236       -7.9512225497  MEMB      122             0.0000000000
     14121       122  OSM       H7G            16.4869704419       18.0056985804       -7.7120245650  MEMB      122             0.0000000000
     14122       122  OSM       C8F            14.6203761606       16.9216970443       -7.8818778657  MEMB      122             0.0000000000
     14123       122  OSM       H8F            15.2560386246       16.0026938277       -7.8529883618  MEMB      122             0.0000000000
     14124       122  OSM       H8G            13.8746086916       16.7839014107       -8.6883238655  MEMB      122             0.0000000000
     14125       122  OSM       C9F            13.8373655525       17.0832467983       -6.6172147570  MEMB      122             0.0000000000
     14126       122  OSM       H9F            12.8300465849       17.5085323564       -6.7002859871  MEMB      122             0.0000000000
     14127       122  OSM       C10F           14.2621089605       16.7090096147       -5.4271120792  MEMB      122             0.0000000000
     14128       122  OSM       H10F           13.5964467159       16.8573064622       -4.5902489456  MEMB      122             0.0000000000
     14129       122  OSM       C11F           15.5924624594       16.0777718001       -5.1367629595  MEMB      122             0.0000000000
     14130       122  OSM       H11F           16.3570914132       16.2696724610       -5.9153764846  MEMB      122             0.0000000000
     14131       122  OSM       H11G           15.4740582951       15.0167849554       -4.8663324896  MEMB      122             0.0000000000
     14132       122  OSM       C12F           16.2374849334       16.7723711831       -4.0013685460  MEMB      122             0.0000000000
     14133       122  OSM       H12F           16.1023961641       17.8295054838       -4.4292775581  MEMB      122             0.0000000000
     14134       122  OSM       H12G           17.3241207927       16.7762235339       -3.9005388190  MEMB      122             0.0000000000
     14135       122  OSM       C13F           15.6992871559       16.0994430101       -2.6803428914  MEMB      122             0.0000000000
     14136       122  OSM       H13F           16.1004170924       15.1329512087       -2.3834721589  MEMB      122             0.0000000000
     14137       122  OSM       H13G           14.5996918809       16.1542623827       -2.6708894689  MEMB      122             0.0000000000
     14138       122  OSM       C14F           16.0039739215       16.8654378235       -1.5330247465  MEMB      122             0.0000000000
     14139       122  OSM       H14F           17.1296781412       16.8130019212       -1.3403856066  MEMB      122             0.0000000000
     14140       122  OSM       H14G           15.5829565136       16.6004385426       -0.4829014075  MEMB      122             0.0000000000
     14141       122  OSM       C15F           15.3298970397       18.0879293081       -2.4747117721  MEMB      122             0.0000000000
     14142       122  OSM       H15F           15.8436414555       18.9720297991       -2.8237452922  MEMB      122             0.0000000000
     14143       122  OSM       H15G           15.8070334971       18.0263779454       -1.5467968738  MEMB      122             0.0000000000
     14144       122  OSM       C16F           13.7013669345       18.6934997227       -2.6900204220  MEMB      122             0.0000000000
     14145       122  OSM       H16F           13.5474337256       18.0550173818       -3.4318254385  MEMB      122             0.0000000000
     14146       122  OSM       H16G           13.5255886836       19.6604580293       -3.1585846456  MEMB      122             0.0000000000
     14147       122  OSM       C17F           12.3709293447       19.0852383566       -1.5752592492  MEMB      122             0.0000000000
     14148       122  OSM       H17F           12.5769384077       18.2785843055       -0.9648554984  MEMB      122             0.0000000000
     14149       122  OSM       H17G           11.4021881108       18.8382714031       -1.7991537526  MEMB      122             0.0000000000
     14150       122  OSM       C18F           12.1910009750       19.7989139181       -0.0750355094  MEMB      122             0.0000000000
     14151       122  OSM       H18F           12.3436012568       19.0873555478        0.6469814500  MEMB      122             0.0000000000
     14152       122  OSM       H18G           12.0454012761       20.7854768913        0.3659336262  MEMB      122             0.0000000000
     14153       122  OSM       H18H           12.9825669823       20.4206824075        0.3375270179  MEMB      122             0.0000000000
     14154       123  CHL1      C3            -16.3384604480      -15.1656636568      -17.3311723558  MEMB      123             0.0000000000
     14155       123  CHL1      H3            -16.0962851893      -16.1607888530      -16.8781637480  MEMB      123             0.0000000000
     14156       123  CHL1      O3            -16.7734907542      -15.3318230186      -18.6755824032  MEMB      123             0.0000000000
     14157       123  CHL1      H3'           -17.0237705280      -14.4598896155      -19.0186972569  MEMB      123             0.0000000000
     14158       123  CHL1      C4            -17.4647573512      -14.5262299275      -16.5059229786  MEMB      123             0.0000000000
     14159       123  CHL1      H4A           -17.7383961058      -13.5661749680      -16.9918606272  MEMB      123             0.0000000000
     14160       123  CHL1      H4B           -18.3489009660      -15.1921065442      -16.6067981110  MEMB      123             0.0000000000
     14161       123  CHL1      C5            -17.0999937671      -14.2685355171      -15.0594674891  MEMB      123             0.0000000000
     14162       123  CHL1      C6            -17.8769308692      -14.6380084365      -14.0139838642  MEMB      123             0.0000000000
     14163       123  CHL1      H6            -18.8247123302      -15.1459826266      -14.1814448906  MEMB      123             0.0000000000
     14164       123  CHL1      C7            -17.6403053577      -14.3007107485      -12.5717392090  MEMB      123             0.0000000000
     14165       123  CHL1      H7A           -18.4532614286      -13.6859318201      -12.1168333290  MEMB      123             0.0000000000
     14166       123  CHL1      H7B           -17.4844628185      -15.2022194326      -11.9365875714  MEMB      123             0.0000000000
     14167       123  CHL1      C8            -16.4325852187      -13.4378433082      -12.4244484377  MEMB      123             0.0000000000
     14168       123  CHL1      H8            -16.7440043237      -12.3952577675      -12.6194768707  MEMB      123             0.0000000000
     14169       123  CHL1      C14           -15.9838474790      -13.6609779282      -11.0028551999  MEMB      123             0.0000000000
     14170       123  CHL1      H14           -15.5717968412      -14.7089332429      -10.9626863999  MEMB      123             0.0000000000
     14171       123  CHL1      C15           -16.9101493931      -13.4978725529       -9.7752302019  MEMB      123             0.0000000000
     14172       123  CHL1      H15A          -17.5801095490      -12.6197291423       -9.8483719092  MEMB      123             0.0000000000
     14173       123  CHL1      H15B          -17.3808454527      -14.4830953007       -9.6924531337  MEMB      123             0.0000000000
     14174       123  CHL1      C16           -16.0587570168      -13.3090015861       -8.5402214086  MEMB      123             0.0000000000
     14175       123  CHL1      H16A          -16.2424618442      -12.3945369129       -7.9294698311  MEMB      123             0.0000000000
     14176       123  CHL1      H16B          -15.8735607686      -14.2113899785       -7.9008188442  MEMB      123             0.0000000000
     14177       123  CHL1      C17           -14.7415399709      -13.1614475900       -9.1824701221  MEMB      123             0.0000000000
     14178       123  CHL1      H17           -14.4745701961      -14.1761004314       -9.3447837944  MEMB      123             0.0000000000
     14179       123  CHL1      C13           -14.9093004024      -12.8011309238      -10.7107494423  MEMB      123             0.0000000000
     14180       123  CHL1      C18           -15.5470682544      -11.3060506659      -10.9366360201  MEMB      123             0.0000000000
     14181       123  CHL1      H18A          -15.8829891542      -10.8805050484       -9.9754719672  MEMB      123             0.0000000000
     14182       123  CHL1      H18B          -14.9464413873      -10.3869690395      -10.9908797220  MEMB      123             0.0000000000
     14183       123  CHL1      H18C          -15.6117750713      -10.9236654232      -11.9748459712  MEMB      123             0.0000000000
     14184       123  CHL1      C12           -13.8087467759      -13.4697830015      -11.6476414663  MEMB      123             0.0000000000
     14185       123  CHL1      H12A          -12.7994374356      -13.3757440978      -11.2439369244  MEMB      123             0.0000000000
     14186       123  CHL1      H12B          -13.5248074552      -14.4579469294      -11.9454011689  MEMB      123             0.0000000000
     14187       123  CHL1      C11           -14.0938070409      -13.1823295543      -13.0621239739  MEMB      123             0.0000000000
     14188       123  CHL1      H11A          -14.0976101461      -12.0845569788      -13.0460559907  MEMB      123             0.0000000000
     14189       123  CHL1      H11B          -13.2463466452      -13.5785383723      -13.6997956679  MEMB      123             0.0000000000
     14190       123  CHL1      C9            -15.3595160383      -13.7984439252      -13.4484289339  MEMB      123             0.0000000000
     14191       123  CHL1      H9            -15.0805227374      -14.8777564951      -13.3352905889  MEMB      123             0.0000000000
     14192       123  CHL1      C10           -15.7511428522      -13.5671536643      -14.9055898251  MEMB      123             0.0000000000
     14193       123  CHL1      C19           -16.1432494238      -12.0952722570      -15.2135421883  MEMB      123             0.0000000000
     14194       123  CHL1      H19A          -16.5310063067      -11.9849042458      -16.2359857715  MEMB      123             0.0000000000
     14195       123  CHL1      H19B          -16.7515756269      -11.6331122545      -14.4211422371  MEMB      123             0.0000000000
     14196       123  CHL1      H19C          -15.4110693423      -11.3391808982      -15.3060083502  MEMB      123             0.0000000000
     14197       123  CHL1      C1            -14.6379002164      -14.1507631882      -15.8491818940  MEMB      123             0.0000000000
     14198       123  CHL1      H1A           -13.6988956284      -13.5753583508      -15.8428767695  MEMB      123             0.0000000000
     14199       123  CHL1      H1B           -14.3457657605      -15.1440660791      -15.4430878623  MEMB      123             0.0000000000
     14200       123  CHL1      C2            -15.0736491121      -14.3130961072      -17.3061222142  MEMB      123             0.0000000000
     14201       123  CHL1      H2A           -14.2833870694      -14.8183692185      -17.8999826491  MEMB      123             0.0000000000
     14202       123  CHL1      H2B           -15.2527258799      -13.3259516782      -17.7844361811  MEMB      123             0.0000000000
     14203       123  CHL1      C20           -13.8663777739      -12.5907376563       -8.0869208313  MEMB      123             0.0000000000
     14204       123  CHL1      H20           -14.1220108323      -11.5095212501       -8.0710691500  MEMB      123             0.0000000000
     14205       123  CHL1      C21           -12.5219372055      -12.9154667904       -8.2129505849  MEMB      123             0.0000000000
     14206       123  CHL1      H21A          -11.9310114626      -12.2061877371       -7.7699394107  MEMB      123             0.0000000000
     14207       123  CHL1      H21B          -12.2663914654      -12.9280070771       -9.1719974120  MEMB      123             0.0000000000
     14208       123  CHL1      H21C          -11.8846685984      -13.7255412718       -8.2711896210  MEMB      123             0.0000000000
     14209       123  CHL1      C22           -13.7239317907      -13.1371609887       -6.6817953436  MEMB      123             0.0000000000
     14210       123  CHL1      H22A          -14.6634332976      -12.6122889389       -6.4549341980  MEMB      123             0.0000000000
     14211       123  CHL1      H22B          -13.9096456519      -14.1733673884       -6.8351339219  MEMB      123             0.0000000000
     14212       123  CHL1      C23           -12.2999205340      -12.8895972508       -5.7664006257  MEMB      123             0.0000000000
     14213       123  CHL1      H23A          -11.2487164094      -12.9038082489       -6.1000156021  MEMB      123             0.0000000000
     14214       123  CHL1      H23B          -12.4847937190      -11.9527149401       -6.1283698507  MEMB      123             0.0000000000
     14215       123  CHL1      C24           -12.2106491636      -13.1612402635       -4.2088975120  MEMB      123             0.0000000000
     14216       123  CHL1      H24A          -13.2353914881      -13.2055771205       -4.1128013001  MEMB      123             0.0000000000
     14217       123  CHL1      H24B          -12.6235473330      -14.1153735131       -3.9714290129  MEMB      123             0.0000000000
     14218       123  CHL1      C25           -11.3975618407      -12.2944664704       -3.0425802936  MEMB      123             0.0000000000
     14219       123  CHL1      H25           -11.4464300378      -11.2030991733       -3.1687844191  MEMB      123             0.0000000000
     14220       123  CHL1      C26           -11.4240542705      -12.4280202597       -1.3712572135  MEMB      123             0.0000000000
     14221       123  CHL1      H26A          -12.1451902935      -11.8542566895       -0.7148302362  MEMB      123             0.0000000000
     14222       123  CHL1      H26B          -12.2041384538      -13.1931482559       -1.1307406648  MEMB      123             0.0000000000
     14223       123  CHL1      H26C          -11.1889461452      -11.4030357310       -0.9767333023  MEMB      123             0.0000000000
     14224       123  CHL1      C27           -10.1065043487      -12.7822596718       -3.2159818414  MEMB      123             0.0000000000
     14225       123  CHL1      H27A           -9.6102423132      -12.0911439870       -2.4937606602  MEMB      123             0.0000000000
     14226       123  CHL1      H27B          -10.4733054541      -13.8012312787       -2.8876722930  MEMB      123             0.0000000000
     14227       123  CHL1      H27C           -9.8463299749      -12.6750887807       -4.2857933323  MEMB      123             0.0000000000
     14228       124  CHL1      C3              3.4853818595       21.9096983854      -17.3834279742  MEMB      124             0.0000000000
     14229       124  CHL1      H3              2.7455013700       21.0918612807      -17.2644306600  MEMB      124             0.0000000000
     14230       124  CHL1      O3              3.7947524881       22.1637515373      -18.7436615576  MEMB      124             0.0000000000
     14231       124  CHL1      H3'             3.6814478374       21.3144773361      -19.1490554492  MEMB      124             0.0000000000
     14232       124  CHL1      C4              2.7620666152       23.0475163409      -16.8467117779  MEMB      124             0.0000000000
     14233       124  CHL1      H4A             3.5065515401       23.8279218505      -17.2150454024  MEMB      124             0.0000000000
     14234       124  CHL1      H4B             1.9251110028       23.3882721861      -17.4984328429  MEMB      124             0.0000000000
     14235       124  CHL1      C5              2.4713252542       22.6889623146      -15.3127313938  MEMB      124             0.0000000000
     14236       124  CHL1      C6              1.2253146001       22.5622929816      -14.6852203026  MEMB      124             0.0000000000
     14237       124  CHL1      H6              0.3511468782       22.8714610009      -15.2932759563  MEMB      124             0.0000000000
     14238       124  CHL1      C7              0.9793832622       22.8066097979      -13.1554642204  MEMB      124             0.0000000000
     14239       124  CHL1      H7A             0.3237130482       23.6384260261      -12.7435084282  MEMB      124             0.0000000000
     14240       124  CHL1      H7B             0.2032418285       22.1435906165      -12.7766092665  MEMB      124             0.0000000000
     14241       124  CHL1      C8              2.2851485900       23.1485085997      -12.3759497329  MEMB      124             0.0000000000
     14242       124  CHL1      H8              2.8725511160       24.0813749054      -12.3260892192  MEMB      124             0.0000000000
     14243       124  CHL1      C14             1.9849826905       22.9502107033      -10.9523450564  MEMB      124             0.0000000000
     14244       124  CHL1      H14             1.5255447097       21.9280072520      -10.9793946294  MEMB      124             0.0000000000
     14245       124  CHL1      C15             0.9706630650       23.7268574063      -10.2917798419  MEMB      124             0.0000000000
     14246       124  CHL1      H15A            0.9892565273       24.8408510948      -10.4211285389  MEMB      124             0.0000000000
     14247       124  CHL1      H15B            0.0563681549       23.1357970639      -10.5619851900  MEMB      124             0.0000000000
     14248       124  CHL1      C16             0.9896494186       23.6118720881       -8.8428987296  MEMB      124             0.0000000000
     14249       124  CHL1      H16A            0.9805117789       24.6521478480       -8.4059114360  MEMB      124             0.0000000000
     14250       124  CHL1      H16B            0.0906928867       23.0079957577       -8.5641262126  MEMB      124             0.0000000000
     14251       124  CHL1      C17             2.2124455142       22.8117550793       -8.7336079909  MEMB      124             0.0000000000
     14252       124  CHL1      H17             1.8177691753       21.7793236213       -8.9270369469  MEMB      124             0.0000000000
     14253       124  CHL1      C13             3.0369780741       23.2293723450       -9.9729946056  MEMB      124             0.0000000000
     14254       124  CHL1      C18             3.4248364124       24.7752303263       -9.8785819595  MEMB      124             0.0000000000
     14255       124  CHL1      H18A            2.6396589950       25.5557459785       -9.9653863840  MEMB      124             0.0000000000
     14256       124  CHL1      H18B            3.8342063934       24.9799125588       -8.8778152126  MEMB      124             0.0000000000
     14257       124  CHL1      H18C            4.1380557721       25.0708244277      -10.6650796174  MEMB      124             0.0000000000
     14258       124  CHL1      C12             4.0942183168       22.2689699002      -10.4635658301  MEMB      124             0.0000000000
     14259       124  CHL1      H12A            4.9684736156       22.4206693192       -9.8263885339  MEMB      124             0.0000000000
     14260       124  CHL1      H12B            3.6685802606       21.2454458647      -10.3542600671  MEMB      124             0.0000000000
     14261       124  CHL1      C11             4.5041887809       22.4443990325      -11.9394976053  MEMB      124             0.0000000000
     14262       124  CHL1      H11A            5.0129553752       23.4336129755      -11.9743895789  MEMB      124             0.0000000000
     14263       124  CHL1      H11B            5.1718454767       21.6274739630      -12.2417833644  MEMB      124             0.0000000000
     14264       124  CHL1      C9              3.3645081315       22.3718931664      -12.9547107782  MEMB      124             0.0000000000
     14265       124  CHL1      H9              2.8688625626       21.3843472710      -12.9913220393  MEMB      124             0.0000000000
     14266       124  CHL1      C10             3.7467738050       22.7534885961      -14.4166088289  MEMB      124             0.0000000000
     14267       124  CHL1      C19             4.7601066001       23.9758950577      -14.3823515495  MEMB      124             0.0000000000
     14268       124  CHL1      H19A            5.1230037780       24.2459976369      -15.3998645024  MEMB      124             0.0000000000
     14269       124  CHL1      H19B            4.2994211570       24.8715065241      -13.9227892200  MEMB      124             0.0000000000
     14270       124  CHL1      H19C            5.6924654581       23.8262992878      -13.8305106410  MEMB      124             0.0000000000
     14271       124  CHL1      C1              4.4806357348       21.5777515126      -15.0512798173  MEMB      124             0.0000000000
     14272       124  CHL1      H1A             5.4129984224       21.4701922968      -14.4696968508  MEMB      124             0.0000000000
     14273       124  CHL1      H1B             3.8671724156       20.6628437749      -14.9040653422  MEMB      124             0.0000000000
     14274       124  CHL1      C2              4.7703055250       21.7258085255      -16.5609557997  MEMB      124             0.0000000000
     14275       124  CHL1      H2A             5.1933258192       20.7986038693      -16.9731959178  MEMB      124             0.0000000000
     14276       124  CHL1      H2B             5.4974024531       22.5633436755      -16.7097052795  MEMB      124             0.0000000000
     14277       124  CHL1      C20             2.6572510167       23.0114134465       -7.3320225655  MEMB      124             0.0000000000
     14278       124  CHL1      H20             2.7989411210       24.1093828906       -7.1761924155  MEMB      124             0.0000000000
     14279       124  CHL1      C21             3.9398365783       22.2378636565       -7.0888211353  MEMB      124             0.0000000000
     14280       124  CHL1      H21A            4.7938827527       22.7241297764       -7.5939924302  MEMB      124             0.0000000000
     14281       124  CHL1      H21B            3.8033688661       21.1882013607       -7.4276710289  MEMB      124             0.0000000000
     14282       124  CHL1      H21C            4.1711126615       22.2377604054       -6.0089573245  MEMB      124             0.0000000000
     14283       124  CHL1      C22             1.5791183583       22.5616593898       -6.3211918639  MEMB      124             0.0000000000
     14284       124  CHL1      H22A            0.6342276594       23.1048653794       -6.4821161422  MEMB      124             0.0000000000
     14285       124  CHL1      H22B            1.3652886611       21.4798678945       -6.4683776200  MEMB      124             0.0000000000
     14286       124  CHL1      C23             2.0295333175       22.8753947903       -4.8914075618  MEMB      124             0.0000000000
     14287       124  CHL1      H23A            2.5629825227       21.9882466810       -4.4985952459  MEMB      124             0.0000000000
     14288       124  CHL1      H23B            2.7690917712       23.7090666336       -4.9402008008  MEMB      124             0.0000000000
     14289       124  CHL1      C24             0.8931561161       23.2873864539       -3.9474932679  MEMB      124             0.0000000000
     14290       124  CHL1      H24A            0.4800527046       24.2153064333       -4.3520124150  MEMB      124             0.0000000000
     14291       124  CHL1      H24B            0.0869166377       22.5223146004       -3.9927240823  MEMB      124             0.0000000000
     14292       124  CHL1      C25             1.3667221114       23.5422032923       -2.4935321295  MEMB      124             0.0000000000
     14293       124  CHL1      H25             2.0416289856       22.6848963979       -2.2676783215  MEMB      124             0.0000000000
     14294       124  CHL1      C26             2.1613673881       24.8512731270       -2.2947915157  MEMB      124             0.0000000000
     14295       124  CHL1      H26A            1.5305933671       25.7658845037       -2.3428371518  MEMB      124             0.0000000000
     14296       124  CHL1      H26B            2.6185442626       24.8260880337       -1.2818699695  MEMB      124             0.0000000000
     14297       124  CHL1      H26C            2.9593279982       24.9560747542       -3.0563582731  MEMB      124             0.0000000000
     14298       124  CHL1      C27             0.2434952082       23.4863666709       -1.4503154595  MEMB      124             0.0000000000
     14299       124  CHL1      H27A            0.6406434517       23.1809324001       -0.4632250764  MEMB      124             0.0000000000
     14300       124  CHL1      H27B           -0.1995796320       24.4925125416       -1.3112829325  MEMB      124             0.0000000000
     14301       124  CHL1      H27C           -0.5211211935       22.7392582746       -1.7421316566  MEMB      124             0.0000000000
     14302       125  OSM       N              -2.7009471868      -25.4477327917      -21.5730779903  MEMB      125             0.0000000000
     14303       125  OSM       C15            -3.2425117500      -26.7478953945      -22.0653163803  MEMB      125             0.0000000000
     14304       125  OSM       H15A           -4.0927045412      -27.1297211455      -21.5194463879  MEMB      125             0.0000000000
     14305       125  OSM       H15B           -2.5051621370      -27.5532331191      -22.0013574910  MEMB      125             0.0000000000
     14306       125  OSM       H15C           -3.4665557339      -26.7467904212      -23.1280492688  MEMB      125             0.0000000000
     14307       125  OSM       C14            -2.2998922785      -25.4059904930      -20.1522300019  MEMB      125             0.0000000000
     14308       125  OSM       H14A           -1.8404719272      -26.3473802336      -19.8734188614  MEMB      125             0.0000000000
     14309       125  OSM       H14B           -3.2695754259      -25.3861614821      -19.6487663009  MEMB      125             0.0000000000
     14310       125  OSM       H14C           -1.8166691208      -24.5871610225      -19.6740519953  MEMB      125             0.0000000000
     14311       125  OSM       C13            -1.4369842923      -25.1263499930      -22.2600421078  MEMB      125             0.0000000000
     14312       125  OSM       H13A           -1.6224434479      -24.9381198810      -23.3002035396  MEMB      125             0.0000000000
     14313       125  OSM       H13B           -0.7112009562      -25.9207907283      -22.1115639206  MEMB      125             0.0000000000
     14314       125  OSM       H13C           -1.0645146698      -24.2128484314      -21.7939388980  MEMB      125             0.0000000000
     14315       125  OSM       C12            -3.8036540967      -24.4501923686      -21.8197388816  MEMB      125             0.0000000000
     14316       125  OSM       H12A           -4.7771648780      -24.9033596408      -21.6403498962  MEMB      125             0.0000000000
     14317       125  OSM       H12B           -3.7598855778      -24.2088368268      -22.8679107725  MEMB      125             0.0000000000
     14318       125  OSM       C11            -3.7906968588      -23.1529590990      -21.0209195762  MEMB      125             0.0000000000
     14319       125  OSM       H11A           -4.0534226915      -23.3470721592      -19.9578743944  MEMB      125             0.0000000000
     14320       125  OSM       H11B           -4.5979408131      -22.5007223495      -21.4327809252  MEMB      125             0.0000000000
     14321       125  OSM       P              -2.4503861405      -21.0327707272      -20.7084187042  MEMB      125             0.0000000000
     14322       125  OSM       O13            -1.4359160817      -20.3401268580      -21.5285402862  MEMB      125             0.0000000000
     14323       125  OSM       O14            -3.7743601351      -20.3983092926      -20.6158499749  MEMB      125             0.0000000000
     14324       125  OSM       O11            -2.0579116370      -21.2989724238      -19.2369592689  MEMB      125             0.0000000000
     14325       125  OSM       O12            -2.5242890156      -22.5363300369      -21.1659788935  MEMB      125             0.0000000000
     14326       125  OSM       C1S            -1.3610021198      -22.2883776673      -18.5716884743  MEMB      125             0.0000000000
     14327       125  OSM       H1S            -0.2765614737      -22.0481564962      -18.5856214713  MEMB      125             0.0000000000
     14328       125  OSM       H1T            -1.5110221830      -23.2197217578      -19.0933833097  MEMB      125             0.0000000000
     14329       125  OSM       NF             -1.0966794406      -23.3548770285      -16.5167347781  MEMB      125             0.0000000000
     14330       125  OSM       HNF            -1.4673302955      -24.0144075725      -15.8497163922  MEMB      125             0.0000000000
     14331       125  OSM       C2S            -1.9369662453      -22.5296166230      -17.1662087559  MEMB      125             0.0000000000
     14332       125  OSM       H2S            -1.9597275429      -21.6899097226      -16.4225626884  MEMB      125             0.0000000000
     14333       125  OSM       C3S            -3.3278358117      -23.0883195960      -17.1748364723  MEMB      125             0.0000000000
     14334       125  OSM       H3S            -3.2629536759      -24.0683601089      -17.7022895958  MEMB      125             0.0000000000
     14335       125  OSM       O3             -4.3096480028      -22.3462318247      -17.8423468385  MEMB      125             0.0000000000
     14336       125  OSM       HO3            -3.8328434307      -21.6207975135      -18.2760334048  MEMB      125             0.0000000000
     14337       125  OSM       C4S            -3.5822140906      -23.2036409724      -15.7206826913  MEMB      125             0.0000000000
     14338       125  OSM       H4S            -3.8388613535      -22.3467675885      -15.1090070508  MEMB      125             0.0000000000
     14339       125  OSM       C5S            -3.4556190848      -24.3318655042      -15.1258343207  MEMB      125             0.0000000000
     14340       125  OSM       H5S            -3.8462104310      -25.0677707635      -15.8977792694  MEMB      125             0.0000000000
     14341       125  OSM       C6S            -3.6966978978      -24.3637575450      -13.6135316968  MEMB      125             0.0000000000
     14342       125  OSM       H6S            -3.0484242897      -24.9432110253      -12.9713999062  MEMB      125             0.0000000000
     14343       125  OSM       H6T            -4.0932726882      -25.1891874758      -13.7943910004  MEMB      125             0.0000000000
     14344       125  OSM       C7S            -4.7105486103      -23.7070919592      -12.6432311894  MEMB      125             0.0000000000
     14345       125  OSM       H7S            -5.7361244802      -23.8627168661      -12.8468862308  MEMB      125             0.0000000000
     14346       125  OSM       H7T            -4.4881353853      -22.6728023171      -12.5515616258  MEMB      125             0.0000000000
     14347       125  OSM       C8S            -5.4445882265      -24.0939851556      -11.4245472010  MEMB      125             0.0000000000
     14348       125  OSM       H8S            -6.1513605923      -24.9678710556      -11.4879708718  MEMB      125             0.0000000000
     14349       125  OSM       H8T            -6.0115007086      -23.0877099881      -11.2474173559  MEMB      125             0.0000000000
     14350       125  OSM       C9S            -4.5952075842      -24.0562340490      -10.3444943211  MEMB      125             0.0000000000
     14351       125  OSM       H9S            -4.2689261396      -22.9965456899      -10.4744937050  MEMB      125             0.0000000000
     14352       125  OSM       H9T            -3.8796235717      -24.8108935905      -10.7248311077  MEMB      125             0.0000000000
     14353       125  OSM       C10S           -5.3478706235      -24.1492201105       -9.0452292079  MEMB      125             0.0000000000
     14354       125  OSM       H10S           -6.3982628287      -23.7638610612       -9.0249444444  MEMB      125             0.0000000000
     14355       125  OSM       H10T           -4.6168538945      -23.7958417954       -8.3110489192  MEMB      125             0.0000000000
     14356       125  OSM       C11S           -5.5486738922      -25.4817661589       -8.5373820345  MEMB      125             0.0000000000
     14357       125  OSM       H11S           -4.5507087825      -25.9876340614       -8.5110456882  MEMB      125             0.0000000000
     14358       125  OSM       H11T           -6.3483839040      -25.8342359471       -9.2212370294  MEMB      125             0.0000000000
     14359       125  OSM       C12S           -6.3759201221      -25.8052457284       -7.3444540907  MEMB      125             0.0000000000
     14360       125  OSM       H12S           -6.1272952460      -26.8240562127       -6.9924973742  MEMB      125             0.0000000000
     14361       125  OSM       H12T           -7.4565953216      -25.8005371400       -7.5988520395  MEMB      125             0.0000000000
     14362       125  OSM       C13S           -5.9793422247      -25.1074637697       -6.1589970697  MEMB      125             0.0000000000
     14363       125  OSM       H13S           -6.5751745236      -25.3645796666       -5.2639640151  MEMB      125             0.0000000000
     14364       125  OSM       H13T           -6.1226492837      -24.0729495045       -6.4123550572  MEMB      125             0.0000000000
     14365       125  OSM       C14S           -4.5937374285      -25.4441987601       -5.8612912539  MEMB      125             0.0000000000
     14366       125  OSM       H14S           -3.8293521595      -25.4065085009       -6.6694118012  MEMB      125             0.0000000000
     14367       125  OSM       H14T           -4.5673650211      -26.4218194901       -5.4529172324  MEMB      125             0.0000000000
     14368       125  OSM       C15S           -4.3109576680      -24.7792976576       -4.6066565248  MEMB      125             0.0000000000
     14369       125  OSM       H15S           -4.9639201620      -25.0331761839       -3.7445616539  MEMB      125             0.0000000000
     14370       125  OSM       H15T           -4.2392134537      -23.7130087781       -4.7722188609  MEMB      125             0.0000000000
     14371       125  OSM       C16S           -3.0126309711      -25.2256940682       -4.3065023004  MEMB      125             0.0000000000
     14372       125  OSM       H16S           -2.4304027487      -25.3235585179       -5.1854788052  MEMB      125             0.0000000000
     14373       125  OSM       H16T           -2.9459973962      -26.3242004229       -4.3560727531  MEMB      125             0.0000000000
     14374       125  OSM       C17S           -2.5227027809      -24.3376510390       -3.1751467896  MEMB      125             0.0000000000
     14375       125  OSM       H17S           -2.5468174631      -23.2608819957       -3.2505364142  MEMB      125             0.0000000000
     14376       125  OSM       H17T           -1.4870947687      -24.5513386065       -2.9826028168  MEMB      125             0.0000000000
     14377       125  OSM       C18S           -3.0854747558      -24.6184863489       -1.8647013861  MEMB      125             0.0000000000
     14378       125  OSM       H18S           -2.6641692639      -25.5311625310       -1.5294956030  MEMB      125             0.0000000000
     14379       125  OSM       H18T           -4.1625705919      -24.6746489880       -1.7378037266  MEMB      125             0.0000000000
     14380       125  OSM       H18U           -2.4539584820      -24.2370308641       -1.1130505074  MEMB      125             0.0000000000
     14381       125  OSM       C1F            -0.0257054997      -22.7708998485      -16.1719570024  MEMB      125             0.0000000000
     14382       125  OSM       OF              0.5387237662      -21.7504664172      -16.5361825996  MEMB      125             0.0000000000
     14383       125  OSM       C2F             0.3234236468      -23.5531667485      -15.1821904134  MEMB      125             0.0000000000
     14384       125  OSM       H2F             1.3465382912      -23.3643364370      -15.5130161964  MEMB      125             0.0000000000
     14385       125  OSM       H2G            -0.1094142576      -24.6018824975      -15.2450621616  MEMB      125             0.0000000000
     14386       125  OSM       C3F             0.6108089887      -23.1890675869      -13.8657654692  MEMB      125             0.0000000000
     14387       125  OSM       H3F             1.7104111303      -23.5273057812      -13.6802324390  MEMB      125             0.0000000000
     14388       125  OSM       H3G            -0.1969375803      -23.7255909635      -13.3136579751  MEMB      125             0.0000000000
     14389       125  OSM       C4F             0.6378178266      -21.8536094696      -13.6165516682  MEMB      125             0.0000000000
     14390       125  OSM       H4F            -0.3155409775      -21.3936540252      -13.8403315208  MEMB      125             0.0000000000
     14391       125  OSM       H4G             1.4616304966      -21.5349669575      -14.3067316931  MEMB      125             0.0000000000
     14392       125  OSM       C5F             0.8615189707      -21.9734736367      -12.1881950984  MEMB      125             0.0000000000
     14393       125  OSM       H5F             1.7414094831      -22.6297076467      -12.0743171015  MEMB      125             0.0000000000
     14394       125  OSM       H5G             0.1489533041      -22.5315808034      -11.5505361699  MEMB      125             0.0000000000
     14395       125  OSM       C6F             1.0065017166      -20.5762722247      -11.9027670987  MEMB      125             0.0000000000
     14396       125  OSM       H6F             0.2260938713      -19.8796601382      -11.7951265190  MEMB      125             0.0000000000
     14397       125  OSM       H6G             1.7197273264      -19.9262556275      -12.4420500335  MEMB      125             0.0000000000
     14398       125  OSM       C7F             1.5113174212      -20.5213142896      -10.7140054368  MEMB      125             0.0000000000
     14399       125  OSM       H7F             1.8538206353      -19.4216938180      -10.7397891797  MEMB      125             0.0000000000
     14400       125  OSM       H7G             2.6113654982      -20.5933919732      -11.0753406247  MEMB      125             0.0000000000
     14401       125  OSM       C8F             0.9293285074      -21.3995074799       -9.2304735037  MEMB      125             0.0000000000
     14402       125  OSM       H8F             1.6042537743      -21.2495369415       -8.3262992098  MEMB      125             0.0000000000
     14403       125  OSM       H8G             1.1928623716      -22.3246230119       -8.7298486393  MEMB      125             0.0000000000
     14404       125  OSM       C9F            -0.2826916269      -21.1204050883       -8.7077671689  MEMB      125             0.0000000000
     14405       125  OSM       H9F            -0.2790339755      -20.1403272161       -8.7239055877  MEMB      125             0.0000000000
     14406       125  OSM       C10F           -1.2333705931      -21.6493303846       -8.1632311789  MEMB      125             0.0000000000
     14407       125  OSM       H10F           -2.1237825435      -21.0296574980       -8.0823098511  MEMB      125             0.0000000000
     14408       125  OSM       C11F           -1.0532129084      -23.0516367927       -7.9708360941  MEMB      125             0.0000000000
     14409       125  OSM       H11F           -0.0186819980      -23.2719999010       -7.6079273645  MEMB      125             0.0000000000
     14410       125  OSM       H11G           -1.2899989733      -23.5330252141       -8.9222065486  MEMB      125             0.0000000000
     14411       125  OSM       C12F           -1.9024418581      -23.3050120427       -6.8123768008  MEMB      125             0.0000000000
     14412       125  OSM       H12F           -1.7271668022      -24.3455231467       -6.5702513410  MEMB      125             0.0000000000
     14413       125  OSM       H12G           -2.9650764185      -23.0742847724       -7.0095657289  MEMB      125             0.0000000000
     14414       125  OSM       C13F           -1.4968232595      -22.5244290132       -5.6027487923  MEMB      125             0.0000000000
     14415       125  OSM       H13F           -2.3443210796      -22.6210988019       -4.9338637058  MEMB      125             0.0000000000
     14416       125  OSM       H13G           -1.5196964713      -21.4275334421       -5.8378135712  MEMB      125             0.0000000000
     14417       125  OSM       C14F           -0.1295313695      -22.9496212557       -4.9573647192  MEMB      125             0.0000000000
     14418       125  OSM       H14F            0.4363493882      -22.7536892733       -5.7980945025  MEMB      125             0.0000000000
     14419       125  OSM       H14G            0.6533679346      -23.4976132583       -5.2035856931  MEMB      125             0.0000000000
     14420       125  OSM       C15F            0.4729898872      -23.1154512501       -3.4639916188  MEMB      125             0.0000000000
     14421       125  OSM       H15F           -0.4162825104      -23.2626712107       -3.0061006029  MEMB      125             0.0000000000
     14422       125  OSM       H15G            0.8246827690      -22.2974823884       -2.9310055090  MEMB      125             0.0000000000
     14423       125  OSM       C16F            1.8124735420      -23.5500895274       -2.8535934538  MEMB      125             0.0000000000
     14424       125  OSM       H16F            2.0535986261      -24.4872027437       -3.3005145288  MEMB      125             0.0000000000
     14425       125  OSM       H16G            1.6822974410      -23.5051985263       -1.7210086650  MEMB      125             0.0000000000
     14426       125  OSM       C17F            3.0206818593      -22.7366408016       -3.1433822851  MEMB      125             0.0000000000
     14427       125  OSM       H17F            3.3452268652      -22.7166116564       -4.1591880406  MEMB      125             0.0000000000
     14428       125  OSM       H17G            3.8936839870      -23.1060649493       -2.5687910176  MEMB      125             0.0000000000
     14429       125  OSM       C18F            2.7952243779      -21.3649625498       -2.8070367784  MEMB      125             0.0000000000
     14430       125  OSM       H18F            3.8326872636      -21.2699765146       -3.0225796764  MEMB      125             0.0000000000
     14431       125  OSM       H18G            2.2978329763      -21.2796653229       -1.8181742910  MEMB      125             0.0000000000
     14432       125  OSM       H18H            2.8564576553      -20.3757002463       -3.3168967191  MEMB      125             0.0000000000
     14433       126  CHL1      C3             -9.6985652018       21.1858582468      -17.3284589912  MEMB      126             0.0000000000
     14434       126  CHL1      H3             -8.7401831712       21.6219303425      -16.9216203381  MEMB      126             0.0000000000
     14435       126  CHL1      O3             -9.6603469466       21.2924747903      -18.7502535043  MEMB      126             0.0000000000
     14436       126  CHL1      H3'           -10.5766225677       21.0725769234      -19.0098923345  MEMB      126             0.0000000000
     14437       126  CHL1      C4             -9.9894613306       19.8025834087      -16.7434418988  MEMB      126             0.0000000000
     14438       126  CHL1      H4A           -11.0067323891       19.5849874918      -17.1355564108  MEMB      126             0.0000000000
     14439       126  CHL1      H4B            -9.2600828908       19.0907907244      -17.1509611481  MEMB      126             0.0000000000
     14440       126  CHL1      C5            -10.0448687007       19.7690962466      -15.2183166402  MEMB      126             0.0000000000
     14441       126  CHL1      C6             -9.1354078179       19.1218503899      -14.4898223862  MEMB      126             0.0000000000
     14442       126  CHL1      H6             -8.4139429381       18.4863205349      -15.0024630707  MEMB      126             0.0000000000
     14443       126  CHL1      C7             -9.0584620046       19.1606991451      -12.9940473623  MEMB      126             0.0000000000
     14444       126  CHL1      H7A            -8.8512617025       18.1551730318      -12.5809316586  MEMB      126             0.0000000000
     14445       126  CHL1      H7B            -8.2016059499       19.8181149341      -12.6986143046  MEMB      126             0.0000000000
     14446       126  CHL1      C8            -10.3858520295       19.6546504163      -12.3604778645  MEMB      126             0.0000000000
     14447       126  CHL1      H8            -11.2058362700       18.9403252743      -12.5245876304  MEMB      126             0.0000000000
     14448       126  CHL1      C14           -10.1831374262       19.8330191511      -10.8734319694  MEMB      126             0.0000000000
     14449       126  CHL1      H14            -9.2832028705       20.4891674261      -10.7121616172  MEMB      126             0.0000000000
     14450       126  CHL1      C15            -9.8510118642       18.5824674619      -10.1044000572  MEMB      126             0.0000000000
     14451       126  CHL1      H15A          -10.5795897436       17.8455200328      -10.4928210383  MEMB      126             0.0000000000
     14452       126  CHL1      H15B           -8.8111787050       18.2716229796      -10.2826587709  MEMB      126             0.0000000000
     14453       126  CHL1      C16           -10.1712572304       18.9172294501       -8.6488451291  MEMB      126             0.0000000000
     14454       126  CHL1      H16A          -10.9004359058       18.1690937955       -8.2821107870  MEMB      126             0.0000000000
     14455       126  CHL1      H16B           -9.2663130466       18.8982525692       -8.0070186772  MEMB      126             0.0000000000
     14456       126  CHL1      C17           -10.8480795495       20.3235229070       -8.6529660945  MEMB      126             0.0000000000
     14457       126  CHL1      H17            -9.9624084033       20.9711724492       -8.4541439468  MEMB      126             0.0000000000
     14458       126  CHL1      C13           -11.4031017514       20.3744590147      -10.1159416986  MEMB      126             0.0000000000
     14459       126  CHL1      C18           -12.6920176351       19.6282203208      -10.2699389595  MEMB      126             0.0000000000
     14460       126  CHL1      H18A          -12.6108277958       18.6538335084       -9.8017766528  MEMB      126             0.0000000000
     14461       126  CHL1      H18B          -13.4876245643       20.2675262926       -9.8058513298  MEMB      126             0.0000000000
     14462       126  CHL1      H18C          -12.9373366475       19.5451856344      -11.3502346269  MEMB      126             0.0000000000
     14463       126  CHL1      C12           -11.9463273925       21.5854813508      -10.8089411865  MEMB      126             0.0000000000
     14464       126  CHL1      H12A          -12.6122995381       22.2418267756      -10.2330932226  MEMB      126             0.0000000000
     14465       126  CHL1      H12B          -10.9542843939       21.7884755419      -10.7166403907  MEMB      126             0.0000000000
     14466       126  CHL1      C11           -12.0565281562       21.6167375134      -12.3241813371  MEMB      126             0.0000000000
     14467       126  CHL1      H11A          -13.0488944144       21.2122190601      -12.4451164932  MEMB      126             0.0000000000
     14468       126  CHL1      H11B          -12.3304041951       22.5743141062      -12.7850512984  MEMB      126             0.0000000000
     14469       126  CHL1      C9            -10.8601371056       20.9099761794      -13.0513429533  MEMB      126             0.0000000000
     14470       126  CHL1      H9             -9.9100143227       21.4319824834      -12.9312919048  MEMB      126             0.0000000000
     14471       126  CHL1      C10           -11.0763069924       20.6935475749      -14.5650542822  MEMB      126             0.0000000000
     14472       126  CHL1      C19           -12.5479376246       20.3964275313      -14.7524522958  MEMB      126             0.0000000000
     14473       126  CHL1      H19A          -13.1926664532       21.2442844425      -14.4121587126  MEMB      126             0.0000000000
     14474       126  CHL1      H19B          -12.7461726013       20.2933871786      -15.8308776686  MEMB      126             0.0000000000
     14475       126  CHL1      H19C          -12.7393343973       19.4849956711      -14.1715323358  MEMB      126             0.0000000000
     14476       126  CHL1      C1            -10.9613326267       21.9331902145      -15.3650309887  MEMB      126             0.0000000000
     14477       126  CHL1      H1A           -11.7226420077       22.6354199389      -14.9675569237  MEMB      126             0.0000000000
     14478       126  CHL1      H1B            -9.9048364670       22.1873435327      -15.2388349851  MEMB      126             0.0000000000
     14479       126  CHL1      C2            -10.9579595006       21.8858692106      -16.8650465460  MEMB      126             0.0000000000
     14480       126  CHL1      H2A           -10.7757460815       22.7558524690      -17.3623601461  MEMB      126             0.0000000000
     14481       126  CHL1      H2B           -11.9579431224       21.8735574565      -17.2862843543  MEMB      126             0.0000000000
     14482       126  CHL1      C20           -11.8181932742       20.5502678598       -7.4923799022  MEMB      126             0.0000000000
     14483       126  CHL1      H20           -12.7330308809       19.9573238169       -7.7050115403  MEMB      126             0.0000000000
     14484       126  CHL1      C21           -12.2577719264       22.0142013580       -7.3213905647  MEMB      126             0.0000000000
     14485       126  CHL1      H21A          -13.1200852596       22.0559691320       -6.6257417030  MEMB      126             0.0000000000
     14486       126  CHL1      H21B          -12.5336180665       22.4788516639       -8.2792518357  MEMB      126             0.0000000000
     14487       126  CHL1      H21C          -11.4594756949       22.6176320441       -6.8634892474  MEMB      126             0.0000000000
     14488       126  CHL1      C22           -11.2571826021       20.0525598457       -6.1492539570  MEMB      126             0.0000000000
     14489       126  CHL1      H22A          -10.6936527158       19.1125122951       -6.3052581198  MEMB      126             0.0000000000
     14490       126  CHL1      H22B          -10.5517372845       20.7791767647       -5.6900037088  MEMB      126             0.0000000000
     14491       126  CHL1      C23           -12.3643135833       19.7424043430       -5.1473434056  MEMB      126             0.0000000000
     14492       126  CHL1      H23A          -12.6884177758       20.6921450868       -4.6665625835  MEMB      126             0.0000000000
     14493       126  CHL1      H23B          -13.2490503936       19.3323443248       -5.6843899371  MEMB      126             0.0000000000
     14494       126  CHL1      C24           -11.8388693657       18.7186287250       -4.1265654814  MEMB      126             0.0000000000
     14495       126  CHL1      H24A          -11.4980135992       17.8068399077       -4.6579506194  MEMB      126             0.0000000000
     14496       126  CHL1      H24B          -10.9948588653       19.1655751626       -3.5613431022  MEMB      126             0.0000000000
     14497       126  CHL1      C25           -12.8108134379       18.2841911586       -3.0483163625  MEMB      126             0.0000000000
     14498       126  CHL1      H25           -12.4449522331       17.4422624982       -2.4384236321  MEMB      126             0.0000000000
     14499       126  CHL1      C26           -12.9863619752       19.3823827888       -2.0719465045  MEMB      126             0.0000000000
     14500       126  CHL1      H26A          -13.6921574816       19.1721940742       -1.2363886318  MEMB      126             0.0000000000
     14501       126  CHL1      H26B          -12.2397040335       20.1595535306       -1.8815816466  MEMB      126             0.0000000000
     14502       126  CHL1      H26C          -13.4704834167       19.9025238815       -2.8708277585  MEMB      126             0.0000000000
     14503       126  CHL1      C27           -14.1582407056       17.9271671589       -3.6268644202  MEMB      126             0.0000000000
     14504       126  CHL1      H27A          -14.7686956909       18.6287265552       -4.2386746590  MEMB      126             0.0000000000
     14505       126  CHL1      H27B          -13.9892920870       17.0055202833       -4.2316061246  MEMB      126             0.0000000000
     14506       126  CHL1      H27C          -14.8023609089       17.7330510337       -2.7416554839  MEMB      126             0.0000000000
     14507       127  CHL1      C3            -16.0737384727       16.7957878266      -17.3814432838  MEMB      127             0.0000000000
     14508       127  CHL1      H3            -15.0487639101       16.3787679184      -17.3077588661  MEMB      127             0.0000000000
     14509       127  CHL1      O3            -16.3699822024       16.9892699738      -18.7453731613  MEMB      127             0.0000000000
     14510       127  CHL1      H3'           -16.5988855289       16.1151870047      -19.1049766204  MEMB      127             0.0000000000
     14511       127  CHL1      C4            -17.0480638502       15.7666867567      -16.7943846754  MEMB      127             0.0000000000
     14512       127  CHL1      H4A           -18.1054090839       16.0958178825      -17.0062851031  MEMB      127             0.0000000000
     14513       127  CHL1      H4B           -16.9160999878       14.8282118050      -17.3477673463  MEMB      127             0.0000000000
     14514       127  CHL1      C5            -16.6942044569       15.5643272162      -15.3310577797  MEMB      127             0.0000000000
     14515       127  CHL1      C6            -16.6107080538       14.4001467410      -14.6632982738  MEMB      127             0.0000000000
     14516       127  CHL1      H6            -16.7673192227       13.4686638525      -15.2130049327  MEMB      127             0.0000000000
     14517       127  CHL1      C7            -16.4310994407       14.2645583393      -13.1641796049  MEMB      127             0.0000000000
     14518       127  CHL1      H7A           -16.9987870200       13.3798164575      -12.7827208911  MEMB      127             0.0000000000
     14519       127  CHL1      H7B           -15.3660576163       14.1620940597      -12.8981841876  MEMB      127             0.0000000000
     14520       127  CHL1      C8            -16.8468740668       15.4912788303      -12.3305385208  MEMB      127             0.0000000000
     14521       127  CHL1      H8            -17.9204239931       15.2060999298      -12.2595093217  MEMB      127             0.0000000000
     14522       127  CHL1      C14           -16.2979353155       15.4757154479      -10.9073294825  MEMB      127             0.0000000000
     14523       127  CHL1      H14           -15.2060842072       15.3903758440      -11.0377691912  MEMB      127             0.0000000000
     14524       127  CHL1      C15           -16.8136452213       14.3365942951      -10.0056363252  MEMB      127             0.0000000000
     14525       127  CHL1      H15A          -17.9320076439       14.3184531490       -9.9125439094  MEMB      127             0.0000000000
     14526       127  CHL1      H15B          -16.5223301302       13.3355018802      -10.3711009156  MEMB      127             0.0000000000
     14527       127  CHL1      C16           -16.2586809695       14.7472157992       -8.6244061626  MEMB      127             0.0000000000
     14528       127  CHL1      H16A          -17.0605539486       14.4173299274       -7.9173055760  MEMB      127             0.0000000000
     14529       127  CHL1      H16B          -15.3362955836       14.2128182917       -8.3973523027  MEMB      127             0.0000000000
     14530       127  CHL1      C17           -15.8840753296       16.3140122894       -8.6531748271  MEMB      127             0.0000000000
     14531       127  CHL1      H17           -14.8461094649       16.5770433379       -8.7337228627  MEMB      127             0.0000000000
     14532       127  CHL1      C13           -16.2509210423       16.7466769934      -10.0496119338  MEMB      127             0.0000000000
     14533       127  CHL1      C18           -17.4172550586       16.9984414694       -9.5285470500  MEMB      127             0.0000000000
     14534       127  CHL1      H18A          -17.7159416344       18.0079268360       -9.2809301987  MEMB      127             0.0000000000
     14535       127  CHL1      H18B          -17.8062613151       17.1817787550      -10.5010260526  MEMB      127             0.0000000000
     14536       127  CHL1      H18C          -18.0225072758       16.2043679939       -9.0500489271  MEMB      127             0.0000000000
     14537       127  CHL1      C12           -16.0108546790       18.1032558528      -10.7744932575  MEMB      127             0.0000000000
     14538       127  CHL1      H12A          -16.4178002810       19.0056434477      -10.2300443986  MEMB      127             0.0000000000
     14539       127  CHL1      H12B          -14.9347590943       18.0596021494      -10.7749649195  MEMB      127             0.0000000000
     14540       127  CHL1      C11           -16.5778054383       18.1611808732      -12.2234638826  MEMB      127             0.0000000000
     14541       127  CHL1      H11A          -17.6220713974       18.5051803125      -12.2827859522  MEMB      127             0.0000000000
     14542       127  CHL1      H11B          -16.1004831508       19.0260777891      -12.6910416903  MEMB      127             0.0000000000
     14543       127  CHL1      C9            -16.3660069893       16.8155505483      -13.0262922768  MEMB      127             0.0000000000
     14544       127  CHL1      H9            -15.2711089046       16.7287767193      -12.9768571705  MEMB      127             0.0000000000
     14545       127  CHL1      C10           -16.5715129565       16.9032275467      -14.5849001522  MEMB      127             0.0000000000
     14546       127  CHL1      C19           -17.8420003039       17.4328083757      -14.8249299952  MEMB      127             0.0000000000
     14547       127  CHL1      H19A          -17.9930014491       18.4385000229      -14.3692123883  MEMB      127             0.0000000000
     14548       127  CHL1      H19B          -18.5153439615       17.4123298004      -15.7026716038  MEMB      127             0.0000000000
     14549       127  CHL1      H19C          -18.2504870913       16.6277069326      -14.1940124160  MEMB      127             0.0000000000
     14550       127  CHL1      C1            -15.9096770915       18.1101643013      -15.1888540059  MEMB      127             0.0000000000
     14551       127  CHL1      H1A           -16.2848342488       19.0791086802      -14.7524548363  MEMB      127             0.0000000000
     14552       127  CHL1      H1B           -14.8888657475       17.9557177251      -14.8621518335  MEMB      127             0.0000000000
     14553       127  CHL1      C2            -16.1219430958       18.1727660744      -16.7021587364  MEMB      127             0.0000000000
     14554       127  CHL1      H2A           -15.2875955120       18.8004177871      -17.0509294681  MEMB      127             0.0000000000
     14555       127  CHL1      H2B           -17.0817275992       18.6627000810      -17.0079516557  MEMB      127             0.0000000000
     14556       127  CHL1      C20           -16.2693804769       17.0545931831       -7.3393250417  MEMB      127             0.0000000000
     14557       127  CHL1      H20           -17.2003260932       16.7117845704       -7.0376266984  MEMB      127             0.0000000000
     14558       127  CHL1      C21           -16.4041854052       18.6171773282       -7.2330638329  MEMB      127             0.0000000000
     14559       127  CHL1      H21A          -15.4083638389       19.0284304086       -7.3472013165  MEMB      127             0.0000000000
     14560       127  CHL1      H21B          -16.9481714266       18.8629055435       -6.2819643969  MEMB      127             0.0000000000
     14561       127  CHL1      H21C          -17.0725153468       19.0906775890       -7.9865070014  MEMB      127             0.0000000000
     14562       127  CHL1      C22           -15.6865702665       16.4037772774       -6.1130001549  MEMB      127             0.0000000000
     14563       127  CHL1      H22A          -14.9862593055       15.6455571391       -6.5074879261  MEMB      127             0.0000000000
     14564       127  CHL1      H22B          -15.1844339144       17.2940690958       -5.7290214193  MEMB      127             0.0000000000
     14565       127  CHL1      C23           -16.7375360876       15.7934707646       -5.1237111462  MEMB      127             0.0000000000
     14566       127  CHL1      H23A          -17.5433773465       16.5125752701       -4.8632193203  MEMB      127             0.0000000000
     14567       127  CHL1      H23B          -17.1930462933       14.8654169778       -5.5234121798  MEMB      127             0.0000000000
     14568       127  CHL1      C24           -16.1922402255       15.4315912376       -3.7827830100  MEMB      127             0.0000000000
     14569       127  CHL1      H24A          -15.6899708989       16.2984705274       -3.4285227419  MEMB      127             0.0000000000
     14570       127  CHL1      H24B          -16.8330413495       15.2421906516       -2.9159091224  MEMB      127             0.0000000000
     14571       127  CHL1      C25           -15.1378055959       14.4382732864       -3.8152800087  MEMB      127             0.0000000000
     14572       127  CHL1      H25           -14.4629485619       14.6568854614       -4.6827508666  MEMB      127             0.0000000000
     14573       127  CHL1      C26           -14.5015881394       14.7624179567       -2.4459954921  MEMB      127             0.0000000000
     14574       127  CHL1      H26A          -13.8769761865       13.9813919905       -2.5794371454  MEMB      127             0.0000000000
     14575       127  CHL1      H26B          -13.7323494220       15.5462437910       -2.3293986806  MEMB      127             0.0000000000
     14576       127  CHL1      H26C          -14.5076820838       14.0819475946       -1.6307665921  MEMB      127             0.0000000000
     14577       127  CHL1      C27           -15.6042672904       12.9788239982       -3.9992050229  MEMB      127             0.0000000000
     14578       127  CHL1      H27A          -14.8573513144       12.2744619915       -4.4215248015  MEMB      127             0.0000000000
     14579       127  CHL1      H27B          -15.7920321467       12.5536045504       -3.0147751592  MEMB      127             0.0000000000
     14580       127  CHL1      H27C          -16.4873012960       12.9493420792       -4.6586060234  MEMB      127             0.0000000000
     14581       128  CHL1      C3             22.6350894582       -5.3212652675      -17.4014008371  MEMB      128             0.0000000000
     14582       128  CHL1      H3             22.0901141562       -6.2982608303      -17.5221886628  MEMB      128             0.0000000000
     14583       128  CHL1      O3             23.1697322745       -4.8594067821      -18.6301442086  MEMB      128             0.0000000000
     14584       128  CHL1      H3'            22.7046825394       -5.3848343127      -19.2871720958  MEMB      128             0.0000000000
     14585       128  CHL1      C4             21.8429384513       -4.2579368557      -16.7373156861  MEMB      128             0.0000000000
     14586       128  CHL1      H4A            22.4948234990       -3.3536911048      -16.7760647454  MEMB      128             0.0000000000
     14587       128  CHL1      H4B            20.9574880404       -4.1093380772      -17.3818870461  MEMB      128             0.0000000000
     14588       128  CHL1      C5             21.5279876845       -4.6977892108      -15.3106851309  MEMB      128             0.0000000000
     14589       128  CHL1      C6             20.2783224618       -4.8880935701      -14.9073978338  MEMB      128             0.0000000000
     14590       128  CHL1      H6             19.4620391193       -4.6751349238      -15.5977694620  MEMB      128             0.0000000000
     14591       128  CHL1      C7             19.9209334446       -5.3457180105      -13.5225078098  MEMB      128             0.0000000000
     14592       128  CHL1      H7A            19.0715237133       -4.7785108646      -13.1169139398  MEMB      128             0.0000000000
     14593       128  CHL1      H7B            19.7001720784       -6.4386257957      -13.5427276817  MEMB      128             0.0000000000
     14594       128  CHL1      C8             21.0589725048       -5.2036999671      -12.5250830792  MEMB      128             0.0000000000
     14595       128  CHL1      H8             21.3437304440       -4.1350031754      -12.3776802454  MEMB      128             0.0000000000
     14596       128  CHL1      C14            20.7644644000       -5.8755301952      -11.1854218047  MEMB      128             0.0000000000
     14597       128  CHL1      H14            20.6515778099       -6.9773958798      -11.3991441743  MEMB      128             0.0000000000
     14598       128  CHL1      C15            19.5189337163       -5.4604319562      -10.4897145501  MEMB      128             0.0000000000
     14599       128  CHL1      H15A           19.5388859449       -4.3547533119      -10.4137072470  MEMB      128             0.0000000000
     14600       128  CHL1      H15B           18.6724474765       -5.8310114159      -11.0974814569  MEMB      128             0.0000000000
     14601       128  CHL1      C16            19.6771781532       -6.0615971211       -9.0842120389  MEMB      128             0.0000000000
     14602       128  CHL1      H16A           19.4132940869       -5.2837711000       -8.3468637959  MEMB      128             0.0000000000
     14603       128  CHL1      H16B           19.0053725970       -6.9320909398       -8.9942093386  MEMB      128             0.0000000000
     14604       128  CHL1      C17            21.1714109821       -6.4530330879       -8.8839034515  MEMB      128             0.0000000000
     14605       128  CHL1      H17            21.2667121050       -7.5524659044       -9.0550529081  MEMB      128             0.0000000000
     14606       128  CHL1      C13            21.8080005691       -5.8334880870      -10.0987075858  MEMB      128             0.0000000000
     14607       128  CHL1      C18            22.2623145116       -4.3657726500       -9.7201660736  MEMB      128             0.0000000000
     14608       128  CHL1      H18A           21.4731730416       -3.8379575936       -9.1457774014  MEMB      128             0.0000000000
     14609       128  CHL1      H18B           23.1927182682       -4.3645803889       -9.1104935764  MEMB      128             0.0000000000
     14610       128  CHL1      H18C           22.4507315054       -3.7204441705      -10.5945243583  MEMB      128             0.0000000000
     14611       128  CHL1      C12            22.7443762296       -6.8167903697      -10.7200899431  MEMB      128             0.0000000000
     14612       128  CHL1      H12A           23.4246347499       -6.9824558077       -9.8724007727  MEMB      128             0.0000000000
     14613       128  CHL1      H12B           22.5300132071       -7.8571896170      -10.9702688848  MEMB      128             0.0000000000
     14614       128  CHL1      C11            23.0953267176       -6.2250279512      -12.0870458465  MEMB      128             0.0000000000
     14615       128  CHL1      H11A           23.2654986711       -5.1538104236      -11.8197996162  MEMB      128             0.0000000000
     14616       128  CHL1      H11B           23.9319425063       -6.7799616027      -12.5638429121  MEMB      128             0.0000000000
     14617       128  CHL1      C9             22.1698617341       -5.8991603773      -13.1733510344  MEMB      128             0.0000000000
     14618       128  CHL1      H9             21.9167081273       -6.9307416026      -13.5223807255  MEMB      128             0.0000000000
     14619       128  CHL1      C10            22.6982077192       -5.0585293226      -14.3797229972  MEMB      128             0.0000000000
     14620       128  CHL1      C19            23.5222664822       -3.7517571847      -14.1403996648  MEMB      128             0.0000000000
     14621       128  CHL1      H19A           24.6102597736       -3.8628972182      -13.9712349894  MEMB      128             0.0000000000
     14622       128  CHL1      H19B           23.5745636592       -3.1143707736      -15.0399892626  MEMB      128             0.0000000000
     14623       128  CHL1      H19C           23.0976466356       -3.2251514402      -13.2781941191  MEMB      128             0.0000000000
     14624       128  CHL1      C1             23.5869122313       -5.9662248463      -15.0842778591  MEMB      128             0.0000000000
     14625       128  CHL1      H1A            24.5973925751       -5.9366635475      -14.6012088327  MEMB      128             0.0000000000
     14626       128  CHL1      H1B            23.2040288932       -7.0256345385      -15.0699812054  MEMB      128             0.0000000000
     14627       128  CHL1      C2             23.7630884384       -5.4986417368      -16.4812343389  MEMB      128             0.0000000000
     14628       128  CHL1      H2A            23.8689207822       -6.5443519151      -16.7570451434  MEMB      128             0.0000000000
     14629       128  CHL1      H2B            24.6098051652       -4.7753601508      -16.6036643958  MEMB      128             0.0000000000
     14630       128  CHL1      C20            21.7722929589       -6.1413618186       -7.4816203817  MEMB      128             0.0000000000
     14631       128  CHL1      H20            21.7870026546       -5.0420150026       -7.3250665700  MEMB      128             0.0000000000
     14632       128  CHL1      C21            23.2352029945       -6.6374132451       -7.2899752173  MEMB      128             0.0000000000
     14633       128  CHL1      H21A           23.9283312048       -6.1161309643       -7.9786856467  MEMB      128             0.0000000000
     14634       128  CHL1      H21B           23.3300195791       -7.7351620449       -7.4265939190  MEMB      128             0.0000000000
     14635       128  CHL1      H21C           23.5944994643       -6.3715431889       -6.2720524056  MEMB      128             0.0000000000
     14636       128  CHL1      C22            20.8513237042       -6.7159816565       -6.3847531635  MEMB      128             0.0000000000
     14637       128  CHL1      H22A           19.8784537223       -6.1797953474       -6.3977365508  MEMB      128             0.0000000000
     14638       128  CHL1      H22B           20.6785774654       -7.7603634107       -6.6767429806  MEMB      128             0.0000000000
     14639       128  CHL1      C23            21.3577689831       -6.7393753523       -4.9300225144  MEMB      128             0.0000000000
     14640       128  CHL1      H23A           22.2129961718       -7.4532849468       -4.8827579482  MEMB      128             0.0000000000
     14641       128  CHL1      H23B           21.6444776637       -5.7176125623       -4.6186647057  MEMB      128             0.0000000000
     14642       128  CHL1      C24            20.2624000803       -7.2652305783       -3.9970545731  MEMB      128             0.0000000000
     14643       128  CHL1      H24A           19.2857394547       -6.8200168071       -4.2819797690  MEMB      128             0.0000000000
     14644       128  CHL1      H24B           20.2366666407       -8.3199329434       -4.2348873641  MEMB      128             0.0000000000
     14645       128  CHL1      C25            20.4513143676       -7.2956152825       -2.4684739955  MEMB      128             0.0000000000
     14646       128  CHL1      H25            20.6227698488       -6.2660719933       -2.1111222234  MEMB      128             0.0000000000
     14647       128  CHL1      C26            19.1739011364       -7.8190856507       -1.8066835840  MEMB      128             0.0000000000
     14648       128  CHL1      H26A           19.2876686612       -8.9075958481       -1.7503359301  MEMB      128             0.0000000000
     14649       128  CHL1      H26B           19.0847432989       -7.5312054203       -0.7481762288  MEMB      128             0.0000000000
     14650       128  CHL1      H26C           18.2563492236       -7.5409377490       -2.3739333934  MEMB      128             0.0000000000
     14651       128  CHL1      C27            21.5987077512       -8.2154329737       -2.0162427272  MEMB      128             0.0000000000
     14652       128  CHL1      H27A           21.7223445330       -8.1634874215       -0.9171063365  MEMB      128             0.0000000000
     14653       128  CHL1      H27B           21.3558351107       -9.2640808179       -2.2456494586  MEMB      128             0.0000000000
     14654       128  CHL1      H27C           22.5514888826       -7.9682410733       -2.5155814000  MEMB      128             0.0000000000
     14655       129  SAPE      N             -24.3811360622        6.4093786403      -21.8084540418  MEMB      129             0.0000000000
     14656       129  SAPE      HN1           -24.8297960852        6.9837019484      -22.5519106511  MEMB      129             0.0000000000
     14657       129  SAPE      HN2           -24.9759791080        6.4195833307      -20.9530352226  MEMB      129             0.0000000000
     14658       129  SAPE      HN3           -23.4789820689        6.8685372513      -21.5697634050  MEMB      129             0.0000000000
     14659       129  SAPE      C12           -24.3674684954        4.9932861523      -22.2694576159  MEMB      129             0.0000000000
     14660       129  SAPE      H12A          -24.0053607424        4.9673127076      -23.3167345862  MEMB      129             0.0000000000
     14661       129  SAPE      H12B          -25.4104032937        4.5973968794      -22.2332654551  MEMB      129             0.0000000000
     14662       129  SAPE      C11           -23.4640157196        4.2181776155      -21.3292976287  MEMB      129             0.0000000000
     14663       129  SAPE      H11A          -22.4344574007        4.6407882998      -21.4510877258  MEMB      129             0.0000000000
     14664       129  SAPE      H11B          -23.4728365071        3.1501531749      -21.6537531222  MEMB      129             0.0000000000
     14665       129  SAPE      P             -22.8274085200        3.8766263423      -18.8617833617  MEMB      129             0.0000000000
     14666       129  SAPE      O13           -23.4647228645        3.8907686138      -17.5283361366  MEMB      129             0.0000000000
     14667       129  SAPE      O14           -22.1109235309        2.6755664965      -19.3346850702  MEMB      129             0.0000000000
     14668       129  SAPE      O12           -23.9109538468        4.3277647985      -19.9689293782  MEMB      129             0.0000000000
     14669       129  SAPE      O11           -21.8665200685        5.1354768166      -19.0176312715  MEMB      129             0.0000000000
     14670       129  SAPE      C1            -20.4611565773        4.9704878510      -19.2163920935  MEMB      129             0.0000000000
     14671       129  SAPE      HA            -20.1814865605        4.0314431649      -19.7569946841  MEMB      129             0.0000000000
     14672       129  SAPE      HB            -20.0756776159        5.8114805006      -19.8226797337  MEMB      129             0.0000000000
     14673       129  SAPE      C2            -19.6943035144        4.9091250245      -17.9011148027  MEMB      129             0.0000000000
     14674       129  SAPE      HS            -18.6119007630        4.9734067062      -18.1591178492  MEMB      129             0.0000000000
     14675       129  SAPE      O21           -19.9853343688        3.5797228334      -17.3961706293  MEMB      129             0.0000000000
     14676       129  SAPE      C21           -19.4612421449        3.4692479373      -16.2235242136  MEMB      129             0.0000000000
     14677       129  SAPE      O22           -18.7586253668        4.3309256478      -15.7298581824  MEMB      129             0.0000000000
     14678       129  SAPE      C22           -19.8762887822        2.1796707912      -15.5250447248  MEMB      129             0.0000000000
     14679       129  SAPE      H2R           -20.4388734554        1.6093534748      -16.2669481233  MEMB      129             0.0000000000
     14680       129  SAPE      H2S           -19.1135525524        1.4932329935      -15.1703267947  MEMB      129             0.0000000000
     14681       129  SAPE      C3            -20.0870251856        6.0939097600      -16.9028547796  MEMB      129             0.0000000000
     14682       129  SAPE      HX            -20.3737036953        7.0255443360      -17.4018504890  MEMB      129             0.0000000000
     14683       129  SAPE      HY            -19.1387188853        6.3106663285      -16.3704668939  MEMB      129             0.0000000000
     14684       129  SAPE      O31           -21.0193539108        5.7143805710      -15.8806213111  MEMB      129             0.0000000000
     14685       129  SAPE      C31           -21.0757919621        6.5287669316      -14.8642889125  MEMB      129             0.0000000000
     14686       129  SAPE      O32           -20.4076707713        7.5338356790      -14.6748439191  MEMB      129             0.0000000000
     14687       129  SAPE      C32           -22.1063217173        6.0255959637      -13.9136129631  MEMB      129             0.0000000000
     14688       129  SAPE      H2X           -21.5948288067        5.4923667247      -13.0873277827  MEMB      129             0.0000000000
     14689       129  SAPE      H2Y           -22.8227881160        5.3332757795      -14.4098851643  MEMB      129             0.0000000000
     14690       129  SAPE      C23           -20.6575922850        2.5243045549      -14.2786079276  MEMB      129             0.0000000000
     14691       129  SAPE      H3R           -21.4909443034        3.1324019703      -14.6931991083  MEMB      129             0.0000000000
     14692       129  SAPE      H3S           -20.0235255435        3.1414974138      -13.5977858841  MEMB      129             0.0000000000
     14693       129  SAPE      C24           -21.1402557634        1.2911280322      -13.5127424978  MEMB      129             0.0000000000
     14694       129  SAPE      H4R           -20.3429583715        1.0220594304      -12.7878135451  MEMB      129             0.0000000000
     14695       129  SAPE      H4S           -21.2451914240        0.4091802744      -14.1801684634  MEMB      129             0.0000000000
     14696       129  SAPE      C25           -22.4593158798        1.6405191545      -12.8728675093  MEMB      129             0.0000000000
     14697       129  SAPE      H5R           -23.2982075323        1.7082951008      -13.5770895516  MEMB      129             0.0000000000
     14698       129  SAPE      C26           -22.6783396650        1.9075317311      -11.5751972726  MEMB      129             0.0000000000
     14699       129  SAPE      H6R           -23.6886667517        2.0719475642      -11.1991509344  MEMB      129             0.0000000000
     14700       129  SAPE      C27           -21.6594019651        1.9016298217      -10.4980015023  MEMB      129             0.0000000000
     14701       129  SAPE      H7R           -21.3619279252        0.8716128673      -10.6279966790  MEMB      129             0.0000000000
     14702       129  SAPE      H7S           -22.0942223975        1.9554509584       -9.4762567659  MEMB      129             0.0000000000
     14703       129  SAPE      C28           -20.4741944526        2.8060558127      -10.5815074491  MEMB      129             0.0000000000
     14704       129  SAPE      H8R           -20.5402740361        3.6744079911      -11.2382435091  MEMB      129             0.0000000000
     14705       129  SAPE      C29           -19.4079751529        2.7432851235       -9.8043236419  MEMB      129             0.0000000000
     14706       129  SAPE      H9R           -18.6769357801        3.4867527424      -10.0045184918  MEMB      129             0.0000000000
     14707       129  SAPE      C210          -19.1160142502        1.7964557627       -8.6859018409  MEMB      129             0.0000000000
     14708       129  SAPE      H10R          -18.5378343077        0.9643447114       -9.0468584487  MEMB      129             0.0000000000
     14709       129  SAPE      H10S          -20.0571227721        1.3675830088       -8.4201367918  MEMB      129             0.0000000000
     14710       129  SAPE      C211          -18.4832194240        2.1232253223       -7.3968290958  MEMB      129             0.0000000000
     14711       129  SAPE      H11R          -17.5819512254        1.5699931378       -7.1049619026  MEMB      129             0.0000000000
     14712       129  SAPE      C212          -18.9605057631        2.9678687228       -6.5423816245  MEMB      129             0.0000000000
     14713       129  SAPE      H12R          -18.2836920500        3.2781966767       -5.7419206514  MEMB      129             0.0000000000
     14714       129  SAPE      C213          -20.2423033382        3.6662422490       -6.8327616129  MEMB      129             0.0000000000
     14715       129  SAPE      H13R          -20.9758924296        2.9383230924       -7.2587569378  MEMB      129             0.0000000000
     14716       129  SAPE      H13S          -20.1064439254        4.4899163084       -7.5611579123  MEMB      129             0.0000000000
     14717       129  SAPE      C214          -20.6857102875        4.2996279081       -5.5706105654  MEMB      129             0.0000000000
     14718       129  SAPE      H14R          -20.1096310281        5.2023028407       -5.3729615387  MEMB      129             0.0000000000
     14719       129  SAPE      C215          -21.6127621217        3.8954677442       -4.7013942880  MEMB      129             0.0000000000
     14720       129  SAPE      H15R          -21.7689340404        4.4612369728       -3.7776248788  MEMB      129             0.0000000000
     14721       129  SAPE      C216          -22.4344506304        2.6667516472       -4.8076089116  MEMB      129             0.0000000000
     14722       129  SAPE      H16R          -22.4141372752        2.1774687663       -5.8118841475  MEMB      129             0.0000000000
     14723       129  SAPE      H16S          -23.5153015386        2.8106344777       -4.5702094440  MEMB      129             0.0000000000
     14724       129  SAPE      C217          -21.7279545558        1.7639188654       -3.8031856915  MEMB      129             0.0000000000
     14725       129  SAPE      H17R          -20.6735613450        1.4943156678       -3.9553021737  MEMB      129             0.0000000000
     14726       129  SAPE      H17S          -22.2034946164        0.8967211251       -4.3065535363  MEMB      129             0.0000000000
     14727       129  SAPE      C218          -21.9591943429        2.1698536109       -2.2725791860  MEMB      129             0.0000000000
     14728       129  SAPE      H18R          -23.0466375478        2.3794362664       -2.1622362240  MEMB      129             0.0000000000
     14729       129  SAPE      H18S          -21.4337084780        3.0697796211       -1.9829354793  MEMB      129             0.0000000000
     14730       129  SAPE      C219          -21.6480440963        1.1670147521       -1.1218639855  MEMB      129             0.0000000000
     14731       129  SAPE      H19R          -20.8445676665        0.5251851850       -1.5170742788  MEMB      129             0.0000000000
     14732       129  SAPE      H19S          -22.3041657863        0.3401877890       -0.7952524293  MEMB      129             0.0000000000
     14733       129  SAPE      C220          -21.9340431157        1.5948380483        0.2899202120  MEMB      129             0.0000000000
     14734       129  SAPE      H20R          -21.7265736423        0.7675349684        1.0168115522  MEMB      129             0.0000000000
     14735       129  SAPE      H20S          -23.0217287923        1.8033854575        0.3846178634  MEMB      129             0.0000000000
     14736       129  SAPE      H20T          -21.2888472805        2.4436574086        0.4404598690  MEMB      129             0.0000000000
     14737       129  SAPE      C33           -22.7889439635        7.2524824783      -13.3437830818  MEMB      129             0.0000000000
     14738       129  SAPE      H3X           -23.2741460230        7.8469120418      -14.1617435659  MEMB      129             0.0000000000
     14739       129  SAPE      H3Y           -22.0504961251        7.9639990061      -12.9151178500  MEMB      129             0.0000000000
     14740       129  SAPE      C34           -23.7614815752        6.7364227736      -12.2927822435  MEMB      129             0.0000000000
     14741       129  SAPE      H4X           -23.3270966112        6.2072250069      -11.4400764380  MEMB      129             0.0000000000
     14742       129  SAPE      H4Y           -24.4399924985        6.0104309954      -12.8199623886  MEMB      129             0.0000000000
     14743       129  SAPE      C35           -24.7490737837        7.7648974794      -11.8752239292  MEMB      129             0.0000000000
     14744       129  SAPE      H5X           -25.6121469831        7.2080433840      -11.5167210559  MEMB      129             0.0000000000
     14745       129  SAPE      H5Y           -24.7783525622        8.2193447095      -12.8980759574  MEMB      129             0.0000000000
     14746       129  SAPE      C36           -24.6488519719        8.7826609316      -10.7749392906  MEMB      129             0.0000000000
     14747       129  SAPE      H6X           -25.1245016149        9.6633252561      -10.1883680765  MEMB      129             0.0000000000
     14748       129  SAPE      H6Y           -24.2701033297        9.3173863777      -11.6214222961  MEMB      129             0.0000000000
     14749       129  SAPE      C37           -23.9305073461        7.9932154021       -9.9080713355  MEMB      129             0.0000000000
     14750       129  SAPE      H7X           -23.3454324901        8.7974793566      -10.1250024216  MEMB      129             0.0000000000
     14751       129  SAPE      H7Y           -23.0043413337        7.4479685007      -10.0310971001  MEMB      129             0.0000000000
     14752       129  SAPE      C38           -24.7443100740        7.9798433701       -8.7291190182  MEMB      129             0.0000000000
     14753       129  SAPE      H8X           -25.6898441038        7.5861546586       -9.1757269148  MEMB      129             0.0000000000
     14754       129  SAPE      H8Y           -24.9811616194        9.0042825013       -8.3077085719  MEMB      129             0.0000000000
     14755       129  SAPE      C39           -23.9528077761        7.1463067276       -7.7638316564  MEMB      129             0.0000000000
     14756       129  SAPE      H9X           -23.1217145005        7.7194852545       -7.2727693817  MEMB      129             0.0000000000
     14757       129  SAPE      H9Y           -23.5476306654        6.2845486273       -8.2851948900  MEMB      129             0.0000000000
     14758       129  SAPE      C310          -24.9363933471        6.8193302035       -6.7248388085  MEMB      129             0.0000000000
     14759       129  SAPE      H10X          -25.9432142318        6.6073867052       -7.1341794598  MEMB      129             0.0000000000
     14760       129  SAPE      H10Y          -24.8577389870        7.8865588726       -6.6021219120  MEMB      129             0.0000000000
     14761       129  SAPE      C311          -24.4844217108        6.1382394902       -5.4469446153  MEMB      129             0.0000000000
     14762       129  SAPE      H11X          -23.4913456552        6.5325810747       -5.1345215218  MEMB      129             0.0000000000
     14763       129  SAPE      H11Y          -24.4038093981        5.0975986418       -5.7834752947  MEMB      129             0.0000000000
     14764       129  SAPE      C312          -25.4218625407        6.1381707936       -4.2266249154  MEMB      129             0.0000000000
     14765       129  SAPE      H12X          -26.4526779674        5.7989676472       -4.4877504481  MEMB      129             0.0000000000
     14766       129  SAPE      H12Y          -25.4934338873        7.1221868485       -3.7752320523  MEMB      129             0.0000000000
     14767       129  SAPE      C313          -24.9288905909        5.3473167689       -3.0137658346  MEMB      129             0.0000000000
     14768       129  SAPE      H13X          -24.5962205260        4.3543711534       -3.3402943575  MEMB      129             0.0000000000
     14769       129  SAPE      H13Y          -25.8348159324        5.2866221794       -2.3631650387  MEMB      129             0.0000000000
     14770       129  SAPE      C314          -23.7642662491        5.8909049017       -2.1663015696  MEMB      129             0.0000000000
     14771       129  SAPE      H14X          -23.9659054762        6.8992671302       -1.8950396605  MEMB      129             0.0000000000
     14772       129  SAPE      H14Y          -22.8675359584        6.1484520141       -2.7538072828  MEMB      129             0.0000000000
     14773       129  SAPE      C315          -23.5995293015        5.0559154912       -0.8436423899  MEMB      129             0.0000000000
     14774       129  SAPE      H15X          -23.3133443432        4.0576981294       -1.0722399651  MEMB      129             0.0000000000
     14775       129  SAPE      H15Y          -24.5324997262        5.0202067607       -0.2672913083  MEMB      129             0.0000000000
     14776       129  SAPE      C316          -22.7134484609        5.4636025581        0.3180110587  MEMB      129             0.0000000000
     14777       129  SAPE      H16X          -22.9398985227        5.3125623889        1.3978350860  MEMB      129             0.0000000000
     14778       129  SAPE      H16Y          -23.2494169655        6.3600225952        0.2321179018  MEMB      129             0.0000000000
     14779       129  SAPE      C317          -21.2127872309        5.5170044012        0.1269060465  MEMB      129             0.0000000000
     14780       129  SAPE      H17X          -21.2258252210        4.4104442675        0.0456867389  MEMB      129             0.0000000000
     14781       129  SAPE      H17Y          -20.7096182236        5.8512766956        1.0685663997  MEMB      129             0.0000000000
     14782       129  SAPE      C318          -20.4034455948        6.0931731737       -1.0521099093  MEMB      129             0.0000000000
     14783       129  SAPE      H18X          -20.7681135706        5.5994946062       -1.9676792156  MEMB      129             0.0000000000
     14784       129  SAPE      H18Y          -19.3305667075        6.0122955583       -0.9318277104  MEMB      129             0.0000000000
     14785       129  SAPE      H18Z          -20.1644421078        7.1417399761       -1.1122630059  MEMB      129             0.0000000000
     14786       130  CHL1      C3             23.4835601551        3.2078606923      -17.2640361535  MEMB      130             0.0000000000
     14787       130  CHL1      H3             22.4364310333        3.5505263841      -17.0872015309  MEMB      130             0.0000000000
     14788       130  CHL1      O3             23.6239805446        2.8371595752      -18.6276948701  MEMB      130             0.0000000000
     14789       130  CHL1      H3'            24.5276951121        3.0378741821      -18.8662673513  MEMB      130             0.0000000000
     14790       130  CHL1      C4             24.4664416998        4.3386268552      -16.9090960375  MEMB      130             0.0000000000
     14791       130  CHL1      H4A            25.4983012334        4.1318340876      -17.2410464592  MEMB      130             0.0000000000
     14792       130  CHL1      H4B            24.1153565971        5.2332407261      -17.4815052299  MEMB      130             0.0000000000
     14793       130  CHL1      C5             24.5483595596        4.6110837092      -15.4283118337  MEMB      130             0.0000000000
     14794       130  CHL1      C6             24.4221676750        5.8691474845      -15.0325043968  MEMB      130             0.0000000000
     14795       130  CHL1      H6             24.2688450022        6.6727080043      -15.7749481900  MEMB      130             0.0000000000
     14796       130  CHL1      C7             24.5047806545        6.2450015913      -13.6061187520  MEMB      130             0.0000000000
     14797       130  CHL1      H7A            25.1494318838        7.1427973884      -13.5075701513  MEMB      130             0.0000000000
     14798       130  CHL1      H7B            23.4552096885        6.4695059606      -13.3555610240  MEMB      130             0.0000000000
     14799       130  CHL1      C8             24.9936887979        5.1677116825      -12.6155430957  MEMB      130             0.0000000000
     14800       130  CHL1      H8             26.0979753294        5.1507110409      -12.6935340159  MEMB      130             0.0000000000
     14801       130  CHL1      C14            24.5862083334        5.4959153554      -11.1834452088  MEMB      130             0.0000000000
     14802       130  CHL1      H14            23.4620979564        5.5081554639      -11.2163396495  MEMB      130             0.0000000000
     14803       130  CHL1      C15            25.1008197249        6.7766320050      -10.5133927480  MEMB      130             0.0000000000
     14804       130  CHL1      H15A           25.9242567848        7.2952665024      -11.0113759077  MEMB      130             0.0000000000
     14805       130  CHL1      H15B           24.4083322281        7.5463982576      -10.4435929582  MEMB      130             0.0000000000
     14806       130  CHL1      C16            24.9634977062        6.6069313484       -9.0004639419  MEMB      130             0.0000000000
     14807       130  CHL1      H16A           25.8752926332        7.0204214735       -8.5531529796  MEMB      130             0.0000000000
     14808       130  CHL1      H16B           24.0841362972        7.0974068962       -8.5269843723  MEMB      130             0.0000000000
     14809       130  CHL1      C17            24.5142429239        5.1587810741       -8.8661392009  MEMB      130             0.0000000000
     14810       130  CHL1      H17            23.3937305496        5.2004544582       -8.9695312346  MEMB      130             0.0000000000
     14811       130  CHL1      C13            24.9784605455        4.4754386272      -10.1447408494  MEMB      130             0.0000000000
     14812       130  CHL1      C18            26.5113758713        4.3254574591      -10.0835060049  MEMB      130             0.0000000000
     14813       130  CHL1      H18A           27.0693750159        5.2379770383       -9.8014376063  MEMB      130             0.0000000000
     14814       130  CHL1      H18B           26.7299485297        3.5342200239       -9.3418751381  MEMB      130             0.0000000000
     14815       130  CHL1      H18C           26.8964707332        4.0057178050      -11.0677568156  MEMB      130             0.0000000000
     14816       130  CHL1      C12            24.3140801466        3.1469946713      -10.4666595534  MEMB      130             0.0000000000
     14817       130  CHL1      H12A           24.6138121204        2.4257025715       -9.6788462509  MEMB      130             0.0000000000
     14818       130  CHL1      H12B           23.2128725223        3.2725761121      -10.4041359152  MEMB      130             0.0000000000
     14819       130  CHL1      C11            24.7128103935        2.7124662404      -11.8955073185  MEMB      130             0.0000000000
     14820       130  CHL1      H11A           25.8027398144        2.5081552808      -11.9059787952  MEMB      130             0.0000000000
     14821       130  CHL1      H11B           24.2134560920        1.7556249049      -12.1302090524  MEMB      130             0.0000000000
     14822       130  CHL1      C9             24.3941489114        3.8031760071      -12.9765360095  MEMB      130             0.0000000000
     14823       130  CHL1      H9             23.2862188768        3.9656894119      -12.9228505390  MEMB      130             0.0000000000
     14824       130  CHL1      C10            24.6725477583        3.4029670858      -14.4558038751  MEMB      130             0.0000000000
     14825       130  CHL1      C19            26.0788582058        2.7553291470      -14.5649921891  MEMB      130             0.0000000000
     14826       130  CHL1      H19A           26.0784778725        1.7260024689      -14.1480867574  MEMB      130             0.0000000000
     14827       130  CHL1      H19B           26.3683301083        2.6489235064      -15.6286505286  MEMB      130             0.0000000000
     14828       130  CHL1      H19C           26.8508829964        3.3395024120      -14.0314184287  MEMB      130             0.0000000000
     14829       130  CHL1      C1             23.6492729669        2.3299214780      -14.9007512253  MEMB      130             0.0000000000
     14830       130  CHL1      H1A            23.8364297588        1.4100936225      -14.3125035322  MEMB      130             0.0000000000
     14831       130  CHL1      H1B            22.6196607144        2.6583863359      -14.6378303989  MEMB      130             0.0000000000
     14832       130  CHL1      C2             23.7586056274        1.9816358776      -16.3984270593  MEMB      130             0.0000000000
     14833       130  CHL1      H2A            23.0546668550        1.1607862640      -16.6356437851  MEMB      130             0.0000000000
     14834       130  CHL1      H2B            24.7803520363        1.6305695462      -16.6611636028  MEMB      130             0.0000000000
     14835       130  CHL1      C20            24.8283611490        4.5158404756       -7.5382322706  MEMB      130             0.0000000000
     14836       130  CHL1      H20            25.0612245502        3.4455971256       -7.7256054143  MEMB      130             0.0000000000
     14837       130  CHL1      C21            23.5228617744        4.5740802465       -6.7119752625  MEMB      130             0.0000000000
     14838       130  CHL1      H21A           23.6282479180        4.0537194755       -5.7394404650  MEMB      130             0.0000000000
     14839       130  CHL1      H21B           22.7000319049        4.1030980206       -7.2938058190  MEMB      130             0.0000000000
     14840       130  CHL1      H21C           23.2237249487        5.6222886480       -6.5190442633  MEMB      130             0.0000000000
     14841       130  CHL1      C22            26.0336074874        5.1395709338       -6.8120211677  MEMB      130             0.0000000000
     14842       130  CHL1      H22A           26.8491105279        5.4157770061       -7.5208438294  MEMB      130             0.0000000000
     14843       130  CHL1      H22B           25.7555224522        6.0664814963       -6.2653132556  MEMB      130             0.0000000000
     14844       130  CHL1      C23            26.6737353841        4.2105335074       -5.8013072410  MEMB      130             0.0000000000
     14845       130  CHL1      H23A           25.8904048148        3.8297767956       -5.1001805887  MEMB      130             0.0000000000
     14846       130  CHL1      H23B           27.0790414641        3.3257271507       -6.3433092310  MEMB      130             0.0000000000
     14847       130  CHL1      C24            27.7743896009        5.0673232660       -5.1111588471  MEMB      130             0.0000000000
     14848       130  CHL1      H24A           28.5206838218        5.4117293895       -5.8369446216  MEMB      130             0.0000000000
     14849       130  CHL1      H24B           27.2917603823        5.8129993056       -4.4424570907  MEMB      130             0.0000000000
     14850       130  CHL1      C25            28.7184512499        4.3837976182       -4.1866724016  MEMB      130             0.0000000000
     14851       130  CHL1      H25            27.8559208003        3.7099342148       -4.0263121013  MEMB      130             0.0000000000
     14852       130  CHL1      C26            29.8787483209        3.6449999385       -4.8236887779  MEMB      130             0.0000000000
     14853       130  CHL1      H26A           30.6986760248        4.2668731504       -5.0818917657  MEMB      130             0.0000000000
     14854       130  CHL1      H26B           30.3692165723        2.8334371534       -4.2636463778  MEMB      130             0.0000000000
     14855       130  CHL1      H26C           29.4706854162        3.1440042078       -5.6666752864  MEMB      130             0.0000000000
     14856       130  CHL1      C27            29.1900635213        5.0751831229       -2.8819230454  MEMB      130             0.0000000000
     14857       130  CHL1      H27A           29.8013668588        5.9285987113       -2.9863967526  MEMB      130             0.0000000000
     14858       130  CHL1      H27B           28.3422328320        5.4536373798       -2.2988488151  MEMB      130             0.0000000000
     14859       130  CHL1      H27C           29.7728133956        4.3909141098       -2.2049577969  MEMB      130             0.0000000000
     14860       131  SAPS      N             -21.6429346931       -3.9079682582      -20.1661960606  MEMB      131             0.0000000000
     14861       131  SAPS      HN1           -22.2816072668       -4.5146225247      -19.6043769525  MEMB      131             0.0000000000
     14862       131  SAPS      HN2           -21.1892015664       -4.4410050781      -20.9440698804  MEMB      131             0.0000000000
     14863       131  SAPS      HN3           -20.9269534546       -3.4955405031      -19.5391131193  MEMB      131             0.0000000000
     14864       131  SAPS      C12           -22.4807575839       -2.8082671148      -20.7795160171  MEMB      131             0.0000000000
     14865       131  SAPS      H12A          -22.0979671461       -1.8636771288      -20.4536504885  MEMB      131             0.0000000000
     14866       131  SAPS      C13           -22.5129904998       -2.7411759706      -22.3102481443  MEMB      131             0.0000000000
     14867       131  SAPS      O13A          -21.8470256579       -3.5851953808      -22.9459149458  MEMB      131             0.0000000000
     14868       131  SAPS      O13B          -23.2606666832       -1.8888983400      -22.8588478166  MEMB      131             0.0000000000
     14869       131  SAPS      C11           -23.9437580984       -2.8710757845      -20.2996271537  MEMB      131             0.0000000000
     14870       131  SAPS      H11A          -24.4052611484       -3.7876987373      -20.7439559338  MEMB      131             0.0000000000
     14871       131  SAPS      H11B          -24.4855871522       -1.9900680625      -20.7178686739  MEMB      131             0.0000000000
     14872       131  SAPS      P             -24.8150868252       -3.9359944872      -18.1105852252  MEMB      131             0.0000000000
     14873       131  SAPS      O13           -26.1298342358       -4.0564295156      -18.7701202882  MEMB      131             0.0000000000
     14874       131  SAPS      O14           -23.8929184593       -5.0845846814      -18.1197712629  MEMB      131             0.0000000000
     14875       131  SAPS      O12           -24.0196621993       -2.7975463623      -18.8733548286  MEMB      131             0.0000000000
     14876       131  SAPS      O11           -24.9851961631       -3.3640067608      -16.6613514303  MEMB      131             0.0000000000
     14877       131  SAPS      C1            -25.4183149491       -2.0265242216      -16.4058560649  MEMB      131             0.0000000000
     14878       131  SAPS      HA            -25.7333922422       -1.4856742907      -17.3341083439  MEMB      131             0.0000000000
     14879       131  SAPS      HB            -26.2984165442       -2.0723821041      -15.7324715934  MEMB      131             0.0000000000
     14880       131  SAPS      C2            -24.2756852263       -1.2139793495      -15.7617622633  MEMB      131             0.0000000000
     14881       131  SAPS      HS            -24.5138841465       -0.1256215771      -15.8574381151  MEMB      131             0.0000000000
     14882       131  SAPS      O21           -23.0842203974       -1.6041611169      -16.4544136314  MEMB      131             0.0000000000
     14883       131  SAPS      C21           -22.2163080474       -0.6812276788      -16.6019689052  MEMB      131             0.0000000000
     14884       131  SAPS      O22           -22.3128869202        0.4542046033      -16.1822524211  MEMB      131             0.0000000000
     14885       131  SAPS      C22           -21.0639320644       -1.2292099866      -17.4190524865  MEMB      131             0.0000000000
     14886       131  SAPS      H2R           -21.3706953678       -2.1726510851      -17.9072972903  MEMB      131             0.0000000000
     14887       131  SAPS      H2S           -20.8251445958       -0.4694327525      -18.1967495541  MEMB      131             0.0000000000
     14888       131  SAPS      C3            -24.1279471935       -1.5144526768      -14.2525376731  MEMB      131             0.0000000000
     14889       131  SAPS      HX            -25.1491722952       -1.4243209038      -13.8212003848  MEMB      131             0.0000000000
     14890       131  SAPS      HY            -23.4342031057       -0.7756492720      -13.7933536805  MEMB      131             0.0000000000
     14891       131  SAPS      O31           -23.6121552099       -2.8268277209      -14.0468921446  MEMB      131             0.0000000000
     14892       131  SAPS      C31           -23.4215308425       -3.1229642417      -12.8004346657  MEMB      131             0.0000000000
     14893       131  SAPS      O32           -23.7891931842       -2.4797048137      -11.8271920534  MEMB      131             0.0000000000
     14894       131  SAPS      C32           -22.6759355614       -4.4228752925      -12.7855467867  MEMB      131             0.0000000000
     14895       131  SAPS      H2X           -21.7005011252       -4.4494145420      -13.2694019658  MEMB      131             0.0000000000
     14896       131  SAPS      H2Y           -23.2297973548       -5.0622019361      -13.4898093512  MEMB      131             0.0000000000
     14897       131  SAPS      C23           -19.8438389601       -1.4238846363      -16.5119791754  MEMB      131             0.0000000000
     14898       131  SAPS      H3R           -19.6812146192       -0.4470515224      -16.0172296540  MEMB      131             0.0000000000
     14899       131  SAPS      H3S           -18.9850234414       -1.6539693847      -17.1733412782  MEMB      131             0.0000000000
     14900       131  SAPS      C24           -19.9650162096       -2.5092950531      -15.4265346815  MEMB      131             0.0000000000
     14901       131  SAPS      H4R           -20.2215033327       -3.4493525650      -15.9473357806  MEMB      131             0.0000000000
     14902       131  SAPS      H4S           -20.8575483155       -2.3169324736      -14.8177908419  MEMB      131             0.0000000000
     14903       131  SAPS      C25           -18.7822494119       -2.7698576881      -14.5194563026  MEMB      131             0.0000000000
     14904       131  SAPS      H5R           -17.8957178486       -3.1170356450      -15.0562009596  MEMB      131             0.0000000000
     14905       131  SAPS      C26           -18.5809859025       -2.3927034371      -13.2447598540  MEMB      131             0.0000000000
     14906       131  SAPS      H6R           -17.5850893009       -2.5572260692      -12.7897178282  MEMB      131             0.0000000000
     14907       131  SAPS      C27           -19.5548997480       -1.5670170489      -12.4572188743  MEMB      131             0.0000000000
     14908       131  SAPS      H7R           -20.3425507129       -1.1598284869      -13.1091092962  MEMB      131             0.0000000000
     14909       131  SAPS      H7S           -19.1467057755       -0.6518203055      -12.0368375048  MEMB      131             0.0000000000
     14910       131  SAPS      C28           -20.1492481930       -2.3591203381      -11.3733753046  MEMB      131             0.0000000000
     14911       131  SAPS      H8R           -20.4753242935       -3.3244094318      -11.7015807824  MEMB      131             0.0000000000
     14912       131  SAPS      C29           -20.2265421812       -2.1178204030      -10.0769495612  MEMB      131             0.0000000000
     14913       131  SAPS      H9R           -20.8245096104       -2.7498001718       -9.4352270319  MEMB      131             0.0000000000
     14914       131  SAPS      C210          -19.7239079157       -0.9653906424       -9.3636151850  MEMB      131             0.0000000000
     14915       131  SAPS      H10R          -20.2018954785       -0.1065498221       -9.7789311489  MEMB      131             0.0000000000
     14916       131  SAPS      H10S          -18.6622052851       -0.8078657914       -9.6369053098  MEMB      131             0.0000000000
     14917       131  SAPS      C211          -20.0375510679       -0.9419821684       -7.8939843617  MEMB      131             0.0000000000
     14918       131  SAPS      H11R          -19.1456952830       -0.9218436274       -7.2627474729  MEMB      131             0.0000000000
     14919       131  SAPS      C212          -21.2530825643       -0.7039400571       -7.3537381508  MEMB      131             0.0000000000
     14920       131  SAPS      H12R          -21.3576849673       -0.7900619832       -6.2635322024  MEMB      131             0.0000000000
     14921       131  SAPS      C213          -22.5565596836       -0.4277784476       -8.0737257863  MEMB      131             0.0000000000
     14922       131  SAPS      H13R          -22.5182735149        0.0389585139       -9.0680308506  MEMB      131             0.0000000000
     14923       131  SAPS      H13S          -23.1582705514        0.2968294354       -7.4785371722  MEMB      131             0.0000000000
     14924       131  SAPS      C214          -23.1284478547       -1.8056757874       -8.2053323775  MEMB      131             0.0000000000
     14925       131  SAPS      H14R          -22.7249196927       -2.5112561414       -8.9326211661  MEMB      131             0.0000000000
     14926       131  SAPS      C215          -24.1137585019       -2.2030972311       -7.4583264019  MEMB      131             0.0000000000
     14927       131  SAPS      H15R          -24.6118687319       -3.1786344071       -7.5909726235  MEMB      131             0.0000000000
     14928       131  SAPS      C216          -24.6993452833       -1.2810005131       -6.4838832659  MEMB      131             0.0000000000
     14929       131  SAPS      H16R          -25.6518147946       -1.6648552208       -6.6534939671  MEMB      131             0.0000000000
     14930       131  SAPS      H16S          -24.8466657224       -0.2037004218       -6.7177820440  MEMB      131             0.0000000000
     14931       131  SAPS      C217          -24.4376214738       -1.4472858191       -5.0410959011  MEMB      131             0.0000000000
     14932       131  SAPS      H17R          -23.3750810505       -1.7227595124       -4.9853051909  MEMB      131             0.0000000000
     14933       131  SAPS      H17S          -25.0096012765       -2.3487201510       -4.6834039352  MEMB      131             0.0000000000
     14934       131  SAPS      C218          -24.7117752719       -0.1386830521       -4.2483142664  MEMB      131             0.0000000000
     14935       131  SAPS      H18R          -25.7805753025        0.1374572614       -4.1393674133  MEMB      131             0.0000000000
     14936       131  SAPS      H18S          -24.3534285475        0.8075783807       -4.6617984178  MEMB      131             0.0000000000
     14937       131  SAPS      C219          -24.2400233448       -0.5013008132       -2.8650397838  MEMB      131             0.0000000000
     14938       131  SAPS      H19R          -24.2715687524       -1.6223320551       -2.7404725405  MEMB      131             0.0000000000
     14939       131  SAPS      H19S          -24.7586876512        0.0016358877       -1.9572754470  MEMB      131             0.0000000000
     14940       131  SAPS      C220          -22.9512599489       -0.5468903902       -2.7200594338  MEMB      131             0.0000000000
     14941       131  SAPS      H20R          -22.6668258179       -1.0341340926       -1.8017381725  MEMB      131             0.0000000000
     14942       131  SAPS      H20S          -23.2104081737        0.5094597821       -2.5748984523  MEMB      131             0.0000000000
     14943       131  SAPS      H20T          -22.2948696035       -0.7427948799       -3.5473053453  MEMB      131             0.0000000000
     14944       131  SAPS      C33           -22.4772336764       -4.6746513883      -11.3037454072  MEMB      131             0.0000000000
     14945       131  SAPS      H3X           -23.4373711541       -4.5127107335      -10.7157999798  MEMB      131             0.0000000000
     14946       131  SAPS      H3Y           -21.6861672609       -4.1921746765      -10.7640673401  MEMB      131             0.0000000000
     14947       131  SAPS      C34           -21.7125092678       -5.8833896565      -10.9615602335  MEMB      131             0.0000000000
     14948       131  SAPS      H4X           -21.0392243483       -6.5989436910      -11.4942772894  MEMB      131             0.0000000000
     14949       131  SAPS      H4Y           -22.7006271050       -6.0949254691      -11.3162507765  MEMB      131             0.0000000000
     14950       131  SAPS      C35           -21.9845683474       -6.3536893516       -9.6382392719  MEMB      131             0.0000000000
     14951       131  SAPS      H5X           -21.8293286100       -7.4062048931      -10.0252887731  MEMB      131             0.0000000000
     14952       131  SAPS      H5Y           -23.0091354792       -5.9559717816       -9.4290965061  MEMB      131             0.0000000000
     14953       131  SAPS      C36           -21.4046098848       -5.7485015363       -8.4568703399  MEMB      131             0.0000000000
     14954       131  SAPS      H6X           -21.8823304137       -4.7589926662       -8.3896527015  MEMB      131             0.0000000000
     14955       131  SAPS      H6Y           -20.4195866157       -5.7968487613       -8.9731774804  MEMB      131             0.0000000000
     14956       131  SAPS      C37           -21.3853006431       -6.4250220857       -7.0630983379  MEMB      131             0.0000000000
     14957       131  SAPS      H7X           -20.5609733309       -5.8700617887       -6.5844867884  MEMB      131             0.0000000000
     14958       131  SAPS      H7Y           -21.1996042303       -7.4811937857       -7.3764180726  MEMB      131             0.0000000000
     14959       131  SAPS      C38           -22.3476837593       -6.6532593153       -5.8735990504  MEMB      131             0.0000000000
     14960       131  SAPS      H8X           -22.4355046269       -7.7209051292       -5.5526567391  MEMB      131             0.0000000000
     14961       131  SAPS      H8Y           -23.3459360641       -6.3636727229       -6.1015224676  MEMB      131             0.0000000000
     14962       131  SAPS      C39           -22.5638282658       -5.6325583352       -4.9093933140  MEMB      131             0.0000000000
     14963       131  SAPS      H9X           -22.4866148685       -4.6781238007       -5.4841397017  MEMB      131             0.0000000000
     14964       131  SAPS      H9Y           -21.7090074590       -5.9508548072       -4.3215258584  MEMB      131             0.0000000000
     14965       131  SAPS      C310          -23.8862074598       -5.7536569183       -4.1595510879  MEMB      131             0.0000000000
     14966       131  SAPS      H10X          -23.9637691199       -6.7738149108       -3.7001738708  MEMB      131             0.0000000000
     14967       131  SAPS      H10Y          -24.8170948013       -5.6397453473       -4.7541962861  MEMB      131             0.0000000000
     14968       131  SAPS      C311          -23.7937521654       -4.5736435667       -3.2316113077  MEMB      131             0.0000000000
     14969       131  SAPS      H11X          -24.7244744622       -4.5016943418       -2.6464297049  MEMB      131             0.0000000000
     14970       131  SAPS      H11Y          -23.7020734070       -3.6388316450       -3.7857332763  MEMB      131             0.0000000000
     14971       131  SAPS      C312          -22.5525497621       -4.7189556251       -2.3822114182  MEMB      131             0.0000000000
     14972       131  SAPS      H12X          -21.5958922495       -4.8800059877       -2.8872817259  MEMB      131             0.0000000000
     14973       131  SAPS      H12Y          -22.7048620610       -5.6923894328       -1.9610570155  MEMB      131             0.0000000000
     14974       131  SAPS      C313          -22.3448608853       -3.6238024230       -1.3700240613  MEMB      131             0.0000000000
     14975       131  SAPS      H13X          -22.6719408475       -3.6995886733       -0.3232868748  MEMB      131             0.0000000000
     14976       131  SAPS      H13Y          -22.8193707961       -2.7456452420       -1.6652606547  MEMB      131             0.0000000000
     14977       131  SAPS      C314          -20.9561042376       -3.6034100132       -1.0376025581  MEMB      131             0.0000000000
     14978       131  SAPS      H14X          -20.2745847927       -3.5077935921       -1.8931950341  MEMB      131             0.0000000000
     14979       131  SAPS      H14Y          -20.9822305025       -4.6379811593       -0.6183780221  MEMB      131             0.0000000000
     14980       131  SAPS      C315          -20.6009152646       -2.4821194004       -0.1709992114  MEMB      131             0.0000000000
     14981       131  SAPS      H15X          -21.1946294379       -2.4314758985        0.7703317407  MEMB      131             0.0000000000
     14982       131  SAPS      H15Y          -21.0253969002       -1.6498548136       -0.7532193270  MEMB      131             0.0000000000
     14983       131  SAPS      C316          -19.0709121214       -2.4877576208       -0.0424799643  MEMB      131             0.0000000000
     14984       131  SAPS      H16X          -18.3675543575       -2.4710216359       -0.8903260341  MEMB      131             0.0000000000
     14985       131  SAPS      H16Y          -18.5607311904       -3.2039771564        0.6001683403  MEMB      131             0.0000000000
     14986       131  SAPS      C317          -18.7031187664       -1.3233573311        0.6305039535  MEMB      131             0.0000000000
     14987       131  SAPS      H17X          -17.6415807755       -1.5978950986        0.8410895427  MEMB      131             0.0000000000
     14988       131  SAPS      H17Y          -19.0298275149       -0.9825260081        1.5940846142  MEMB      131             0.0000000000
     14989       131  SAPS      C318          -19.2846139344       -0.3567572299       -0.1508859925  MEMB      131             0.0000000000
     14990       131  SAPS      H18X          -18.7322208028       -0.4294774569       -1.0169318779  MEMB      131             0.0000000000
     14991       131  SAPS      H18Y          -19.1268526167        0.7147681194       -0.1045698949  MEMB      131             0.0000000000
     14992       131  SAPS      H18Z          -20.2595239084       -0.0339277849        0.1660111866  MEMB      131             0.0000000000
     14993       132  OSM       N              11.0520850993      -23.9686762603      -21.1830171437  MEMB      132             0.0000000000
     14994       132  OSM       C15            11.5835601577      -23.9569128957      -22.5657503303  MEMB      132             0.0000000000
     14995       132  OSM       H15A           11.3743744113      -23.0064603906      -23.0488259503  MEMB      132             0.0000000000
     14996       132  OSM       H15B           11.1758730146      -24.7589329624      -23.1664833584  MEMB      132             0.0000000000
     14997       132  OSM       H15C           12.6559867360      -24.0999941335      -22.5326762699  MEMB      132             0.0000000000
     14998       132  OSM       C14            11.3835555643      -25.2788350753      -20.5465567982  MEMB      132             0.0000000000
     14999       132  OSM       H14A           11.1122177619      -25.3322736285      -19.4923148458  MEMB      132             0.0000000000
     15000       132  OSM       H14B           12.4434133392      -25.4752585523      -20.6290417803  MEMB      132             0.0000000000
     15001       132  OSM       H14C           10.8699276946      -26.0832556068      -21.0305915323  MEMB      132             0.0000000000
     15002       132  OSM       C13            11.8302348296      -22.8971639507      -20.4799131940  MEMB      132             0.0000000000
     15003       132  OSM       H13A           12.8793114282      -23.1705564771      -20.4114824810  MEMB      132             0.0000000000
     15004       132  OSM       H13B           11.4557822330      -22.7205543066      -19.4809922121  MEMB      132             0.0000000000
     15005       132  OSM       H13C           11.7064844909      -21.9594676508      -21.0151391287  MEMB      132             0.0000000000
     15006       132  OSM       C12             9.5400996916      -23.7481000035      -21.1203473315  MEMB      132             0.0000000000
     15007       132  OSM       H12A            9.2167916742      -23.6448251243      -20.0824307657  MEMB      132             0.0000000000
     15008       132  OSM       H12B            9.0677042586      -24.6517327616      -21.4777258077  MEMB      132             0.0000000000
     15009       132  OSM       C11             8.8630598571      -22.6060438502      -21.9295851006  MEMB      132             0.0000000000
     15010       132  OSM       H11A            7.7685329720      -22.6105626458      -21.6817256273  MEMB      132             0.0000000000
     15011       132  OSM       H11B            8.9549048560      -22.8615902830      -23.0065598184  MEMB      132             0.0000000000
     15012       132  OSM       P               9.0627224198      -20.3050930095      -20.6147225196  MEMB      132             0.0000000000
     15013       132  OSM       O13             9.9642978353      -19.1515030646      -20.8132214728  MEMB      132             0.0000000000
     15014       132  OSM       O14             7.6010766651      -20.0989825393      -20.6139013140  MEMB      132             0.0000000000
     15015       132  OSM       O11             9.5011400486      -21.0914741823      -19.3223798600  MEMB      132             0.0000000000
     15016       132  OSM       O12             9.4574496764      -21.3293300082      -21.7543803512  MEMB      132             0.0000000000
     15017       132  OSM       C1S             8.6293038385      -21.3463212763      -18.2201100062  MEMB      132             0.0000000000
     15018       132  OSM       H1S             8.0755053060      -22.2894340304      -18.3965719123  MEMB      132             0.0000000000
     15019       132  OSM       H1T             7.8934872545      -20.5226079231      -18.0408507132  MEMB      132             0.0000000000
     15020       132  OSM       NF              8.9957164817      -22.2721255220      -15.8857757607  MEMB      132             0.0000000000
     15021       132  OSM       HNF             8.9094580097      -21.8535607991      -14.9922555235  MEMB      132             0.0000000000
     15022       132  OSM       C2S             9.5238373720      -21.4546328960      -16.9605861227  MEMB      132             0.0000000000
     15023       132  OSM       H2S            10.4819057191      -21.9157202246      -17.2980886898  MEMB      132             0.0000000000
     15024       132  OSM       C3S             9.7835892466      -20.0088908707      -16.4699998810  MEMB      132             0.0000000000
     15025       132  OSM       H3S             8.8081474298      -19.4801680982      -16.3381684659  MEMB      132             0.0000000000
     15026       132  OSM       O3             10.6057786508      -19.2890962626      -17.3571222067  MEMB      132             0.0000000000
     15027       132  OSM       HO3            10.7068565103      -19.8989093649      -18.0963829049  MEMB      132             0.0000000000
     15028       132  OSM       C4S            10.5141942328      -20.0427299212      -15.1718117509  MEMB      132             0.0000000000
     15029       132  OSM       H4S            11.4723976930      -20.5772763085      -15.2169490184  MEMB      132             0.0000000000
     15030       132  OSM       C5S            10.1377824658      -19.3932663794      -14.0593954841  MEMB      132             0.0000000000
     15031       132  OSM       H5S             9.2952760898      -18.6927872385      -14.0917039511  MEMB      132             0.0000000000
     15032       132  OSM       C6S            10.8456636813      -19.4301531158      -12.7478766620  MEMB      132             0.0000000000
     15033       132  OSM       H6S            10.6979978889      -18.4859699165      -12.1758418292  MEMB      132             0.0000000000
     15034       132  OSM       H6T            11.9450978578      -19.5828325073      -12.8373814332  MEMB      132             0.0000000000
     15035       132  OSM       C7S            10.2299751823      -20.6125901782      -11.9957794510  MEMB      132             0.0000000000
     15036       132  OSM       H7S            10.4111593197      -21.5746513862      -12.5219295650  MEMB      132             0.0000000000
     15037       132  OSM       H7T             9.1235531092      -20.6415670005      -12.0107546941  MEMB      132             0.0000000000
     15038       132  OSM       C8S            10.8103656155      -20.6335892675      -10.5741200712  MEMB      132             0.0000000000
     15039       132  OSM       H8S            11.7708253924      -20.1152766388      -10.4156976431  MEMB      132             0.0000000000
     15040       132  OSM       H8T            10.8351798314      -21.6737004678      -10.2261726466  MEMB      132             0.0000000000
     15041       132  OSM       C9S             9.8671566104      -20.4346300152       -9.4882869995  MEMB      132             0.0000000000
     15042       132  OSM       H9S             9.0947060358      -21.1330083865       -9.9225002028  MEMB      132             0.0000000000
     15043       132  OSM       H9T             9.6518574923      -19.3677273717       -9.4481256908  MEMB      132             0.0000000000
     15044       132  OSM       C10S           10.3036745755      -20.5749333844       -8.0485668606  MEMB      132             0.0000000000
     15045       132  OSM       H10S           10.8763430048      -19.6356351327       -7.8708370820  MEMB      132             0.0000000000
     15046       132  OSM       H10T           10.9305846884      -21.4623792369       -8.0148952426  MEMB      132             0.0000000000
     15047       132  OSM       C11S            9.1814409376      -20.5558101824       -7.0039008131  MEMB      132             0.0000000000
     15048       132  OSM       H11S            8.5459846423      -21.4420575086       -7.1525266462  MEMB      132             0.0000000000
     15049       132  OSM       H11T            8.6100076282      -19.6161664404       -7.1595907997  MEMB      132             0.0000000000
     15050       132  OSM       C12S            9.5657882092      -20.5637971411       -5.5444818427  MEMB      132             0.0000000000
     15051       132  OSM       H12S           10.1317864292      -19.6533870419       -5.2917467268  MEMB      132             0.0000000000
     15052       132  OSM       H12T           10.1748005426      -21.4250227991       -5.3098139142  MEMB      132             0.0000000000
     15053       132  OSM       C13S            8.4220029054      -20.7566056808       -4.5790896665  MEMB      132             0.0000000000
     15054       132  OSM       H13S            7.9974791324      -21.7864812862       -4.7060881998  MEMB      132             0.0000000000
     15055       132  OSM       H13T            7.6365476001      -19.9966854711       -4.7472080735  MEMB      132             0.0000000000
     15056       132  OSM       C14S            8.9499304134      -20.5793799689       -3.1893120764  MEMB      132             0.0000000000
     15057       132  OSM       H14S            9.5389148696      -19.6415419508       -3.0958670240  MEMB      132             0.0000000000
     15058       132  OSM       H14T            9.6159523457      -21.4249335744       -2.8913264837  MEMB      132             0.0000000000
     15059       132  OSM       C15S            7.8656380771      -20.4942190422       -2.1927200300  MEMB      132             0.0000000000
     15060       132  OSM       H15S            7.1011053352      -21.2810611675       -2.3330430343  MEMB      132             0.0000000000
     15061       132  OSM       H15T            7.3521969370      -19.4850297999       -2.1828738838  MEMB      132             0.0000000000
     15062       132  OSM       C16S            8.5975790439      -20.7422637473       -0.9097873899  MEMB      132             0.0000000000
     15063       132  OSM       H16S            8.5450361712      -21.7271328447       -0.4049396056  MEMB      132             0.0000000000
     15064       132  OSM       H16T            7.9348525664      -20.0724354288       -0.4779195312  MEMB      132             0.0000000000
     15065       132  OSM       C17S            9.6127823578      -19.7365622807       -0.4955981859  MEMB      132             0.0000000000
     15066       132  OSM       H17S            9.2152125900      -18.6670355856       -0.4578884874  MEMB      132             0.0000000000
     15067       132  OSM       H17T           10.3697434714      -19.9042798282       -1.2333916686  MEMB      132             0.0000000000
     15068       132  OSM       C18S           10.5287209537      -20.0585310827        0.6052501274  MEMB      132             0.0000000000
     15069       132  OSM       H18S           10.1927561704      -19.2379766317        1.2532930822  MEMB      132             0.0000000000
     15070       132  OSM       H18T           10.9759280894      -19.2303707572        1.0136831758  MEMB      132             0.0000000000
     15071       132  OSM       H18U           10.3729449342      -20.9824524178        1.2271687547  MEMB      132             0.0000000000
     15072       132  OSM       C1F             8.8084148576      -23.5730458010      -15.9481880993  MEMB      132             0.0000000000
     15073       132  OSM       OF              9.1291701917      -24.2381374858      -16.9218096137  MEMB      132             0.0000000000
     15074       132  OSM       C2F             8.2694014906      -24.1697965754      -14.7034936519  MEMB      132             0.0000000000
     15075       132  OSM       H2F             7.2490530376      -24.5649159776      -14.8917685850  MEMB      132             0.0000000000
     15076       132  OSM       H2G             8.2767147933      -23.4774659598      -13.8355626426  MEMB      132             0.0000000000
     15077       132  OSM       C3F             9.1542466771      -25.3186184032      -14.3088066473  MEMB      132             0.0000000000
     15078       132  OSM       H3F             8.8515154353      -26.1279532752      -14.9857131147  MEMB      132             0.0000000000
     15079       132  OSM       H3G             8.8707091242      -25.5992602885      -13.2724932998  MEMB      132             0.0000000000
     15080       132  OSM       C4F            10.6426952196      -25.0461677961      -14.4243766613  MEMB      132             0.0000000000
     15081       132  OSM       H4F            10.7920133490      -24.0295035522      -14.0335217846  MEMB      132             0.0000000000
     15082       132  OSM       H4G            11.0174177331      -25.0785695811      -15.4767460104  MEMB      132             0.0000000000
     15083       132  OSM       C5F            11.5179536098      -25.9397972260      -13.5969271268  MEMB      132             0.0000000000
     15084       132  OSM       H5F            12.5472523392      -25.6223204288      -13.7343613188  MEMB      132             0.0000000000
     15085       132  OSM       H5G            11.5614505655      -26.9378711226      -14.0551911166  MEMB      132             0.0000000000
     15086       132  OSM       C6F            11.2683504175      -26.0200826680      -12.0838984947  MEMB      132             0.0000000000
     15087       132  OSM       H6F            11.7426138705      -26.9036664895      -11.6194152955  MEMB      132             0.0000000000
     15088       132  OSM       H6G            10.2015800137      -26.0657891412      -11.8115920881  MEMB      132             0.0000000000
     15089       132  OSM       C7F            11.2642625301      -24.8341054684      -11.4252154261  MEMB      132             0.0000000000
     15090       132  OSM       H7F            10.5879655098      -24.1214991470      -11.9499490460  MEMB      132             0.0000000000
     15091       132  OSM       H7G            12.3297748143      -24.7899746703      -11.6768799892  MEMB      132             0.0000000000
     15092       132  OSM       C8F            11.1171285753      -24.7498433563       -9.9551223317  MEMB      132             0.0000000000
     15093       132  OSM       H8F            10.2012441636      -25.3592292998       -9.8439632155  MEMB      132             0.0000000000
     15094       132  OSM       H8G            10.7606041246      -23.8217226212       -9.5100347282  MEMB      132             0.0000000000
     15095       132  OSM       C9F            12.4833485842      -25.1675079332       -9.4250113521  MEMB      132             0.0000000000
     15096       132  OSM       H9F            12.7226322120      -26.0899902493       -9.8641334571  MEMB      132             0.0000000000
     15097       132  OSM       C10F           13.2251027847      -24.7369608561       -8.3387853371  MEMB      132             0.0000000000
     15098       132  OSM       H10F           13.8410607544      -25.5914067317       -7.9298231026  MEMB      132             0.0000000000
     15099       132  OSM       C11F           12.8172592003      -23.5421319128       -7.3311687370  MEMB      132             0.0000000000
     15100       132  OSM       H11F           12.6637102553      -22.5912373665       -7.7942655922  MEMB      132             0.0000000000
     15101       132  OSM       H11G           13.6933763392      -23.5039702269       -6.6455850602  MEMB      132             0.0000000000
     15102       132  OSM       C12F           11.4403201191      -23.2046578733       -6.4099112963  MEMB      132             0.0000000000
     15103       132  OSM       H12F           10.6700887721      -23.4709348064       -7.1457684679  MEMB      132             0.0000000000
     15104       132  OSM       H12G           11.5608560822      -22.1256910471       -6.2790510405  MEMB      132             0.0000000000
     15105       132  OSM       C13F           11.0696091554      -23.5626139127       -4.8361100198  MEMB      132             0.0000000000
     15106       132  OSM       H13F           11.8209336477      -23.1602826161       -4.1470135198  MEMB      132             0.0000000000
     15107       132  OSM       H13G           11.1266880218      -24.5855820188       -4.7377258910  MEMB      132             0.0000000000
     15108       132  OSM       C14F            9.6909164334      -23.9198819836       -4.0749841188  MEMB      132             0.0000000000
     15109       132  OSM       H14F            8.9003963032      -24.4344092718       -4.6211127114  MEMB      132             0.0000000000
     15110       132  OSM       H14G            9.3284321004      -22.9644194944       -3.9353672945  MEMB      132             0.0000000000
     15111       132  OSM       C15F            9.5415483217      -24.6500249497       -2.6727715684  MEMB      132             0.0000000000
     15112       132  OSM       H15F           10.2925414939      -24.5720025391       -1.8825064802  MEMB      132             0.0000000000
     15113       132  OSM       H15G            9.5695083025      -25.6401366815       -2.8735333740  MEMB      132             0.0000000000
     15114       132  OSM       C16F            8.2991201285      -25.4616433669       -2.3051272979  MEMB      132             0.0000000000
     15115       132  OSM       H16F            8.4545876879      -26.2901868464       -1.5356210552  MEMB      132             0.0000000000
     15116       132  OSM       H16G            7.7675419218      -25.9679364715       -3.1585264296  MEMB      132             0.0000000000
     15117       132  OSM       C17F            7.7307179368      -24.2595133835       -1.7754997768  MEMB      132             0.0000000000
     15118       132  OSM       H17F            7.9941458988      -23.3292956608       -2.3451676841  MEMB      132             0.0000000000
     15119       132  OSM       H17G            8.2280053848      -24.1885191864       -0.7749095357  MEMB      132             0.0000000000
     15120       132  OSM       C18F            6.2970493537      -24.5187650941       -1.8454125283  MEMB      132             0.0000000000
     15121       132  OSM       H18F            5.7875704974      -23.6024470365       -1.4990526960  MEMB      132             0.0000000000
     15122       132  OSM       H18G            6.1759005491      -25.3891372489       -1.1605772747  MEMB      132             0.0000000000
     15123       132  OSM       H18H            5.9318498287      -24.8429001450       -2.8356892394  MEMB      132             0.0000000000
     15124       133  OSM       N              14.9222014337      -18.4965983941      -21.8197698709  MEMB      133             0.0000000000
     15125       133  OSM       C15            14.9507343471      -19.7052441378      -20.9404586219  MEMB      133             0.0000000000
     15126       133  OSM       H15A           15.8392427420      -19.6267208754      -20.3150410701  MEMB      133             0.0000000000
     15127       133  OSM       H15B           15.0135248527      -20.6669218744      -21.4345973460  MEMB      133             0.0000000000
     15128       133  OSM       H15C           14.0685746099      -19.7068032350      -20.3102883833  MEMB      133             0.0000000000
     15129       133  OSM       C14            15.9231909360      -18.6625249839      -22.9169771581  MEMB      133             0.0000000000
     15130       133  OSM       H14A           15.7056660386      -19.5936336124      -23.4278537928  MEMB      133             0.0000000000
     15131       133  OSM       H14B           16.9359535171      -18.7540829518      -22.5287439457  MEMB      133             0.0000000000
     15132       133  OSM       H14C           15.8936013498      -17.8486626384      -23.6336820729  MEMB      133             0.0000000000
     15133       133  OSM       C13            13.6513004972      -18.4062530493      -22.5654532362  MEMB      133             0.0000000000
     15134       133  OSM       H13A           13.5917615402      -17.4225587947      -23.0135827496  MEMB      133             0.0000000000
     15135       133  OSM       H13B           12.7798492437      -18.5732105491      -21.9312514140  MEMB      133             0.0000000000
     15136       133  OSM       H13C           13.6811225635      -19.1443170684      -23.3645727359  MEMB      133             0.0000000000
     15137       133  OSM       C12            15.1094972095      -17.2841087715      -20.9063043279  MEMB      133             0.0000000000
     15138       133  OSM       H12A           14.3260925208      -17.3226439477      -20.1510161660  MEMB      133             0.0000000000
     15139       133  OSM       H12B           14.9751587384      -16.3669513985      -21.4634176977  MEMB      133             0.0000000000
     15140       133  OSM       C11            16.4315114878      -17.1589961030      -20.1108982600  MEMB      133             0.0000000000
     15141       133  OSM       H11A           16.5286626799      -18.0294680880      -19.4170822631  MEMB      133             0.0000000000
     15142       133  OSM       H11B           16.3909289689      -16.2490700427      -19.4569429774  MEMB      133             0.0000000000
     15143       133  OSM       P              18.9922775574      -17.1131976658      -20.4000132717  MEMB      133             0.0000000000
     15144       133  OSM       O13            19.3263208159      -18.5290161249      -20.1628551334  MEMB      133             0.0000000000
     15145       133  OSM       O14            19.9347131356      -16.3069229564      -21.1894853159  MEMB      133             0.0000000000
     15146       133  OSM       O11            18.7363895227      -16.4206285607      -19.0133335073  MEMB      133             0.0000000000
     15147       133  OSM       O12            17.5319370619      -17.0815561906      -21.0196701298  MEMB      133             0.0000000000
     15148       133  OSM       C1S            19.7129673556      -16.3033031174      -17.9954227225  MEMB      133             0.0000000000
     15149       133  OSM       H1S            20.2072578398      -15.3130139933      -18.0788651024  MEMB      133             0.0000000000
     15150       133  OSM       H1T            20.5142129285      -17.0751829848      -18.0836188672  MEMB      133             0.0000000000
     15151       133  OSM       NF             18.6035848422      -17.7676774385      -16.4017358738  MEMB      133             0.0000000000
     15152       133  OSM       HNF            17.6482874363      -18.0100424477      -16.4102646732  MEMB      133             0.0000000000
     15153       133  OSM       C2S            18.9824971179      -16.3992050949      -16.6260987612  MEMB      133             0.0000000000
     15154       133  OSM       H2S            19.6871545672      -16.1031361495      -15.8164248908  MEMB      133             0.0000000000
     15155       133  OSM       C3S            17.7625448407      -15.4364142985      -16.5935674967  MEMB      133             0.0000000000
     15156       133  OSM       H3S            17.0101296557      -15.7146016440      -17.3685046434  MEMB      133             0.0000000000
     15157       133  OSM       O3             18.1541427274      -14.0845881825      -16.7947042996  MEMB      133             0.0000000000
     15158       133  OSM       HO3            19.0313592741      -14.1757408583      -17.1802357667  MEMB      133             0.0000000000
     15159       133  OSM       C4S            17.0182111044      -15.5498177587      -15.2848129606  MEMB      133             0.0000000000
     15160       133  OSM       H4S            16.3231155475      -16.3953806460      -15.2737065831  MEMB      133             0.0000000000
     15161       133  OSM       C5S            17.0627749326      -14.8002756932      -14.1657461044  MEMB      133             0.0000000000
     15162       133  OSM       H5S            17.7723899031      -13.9620612561      -14.0651818314  MEMB      133             0.0000000000
     15163       133  OSM       C6S            16.2180114499      -15.1123603631      -12.9615794554  MEMB      133             0.0000000000
     15164       133  OSM       H6S            15.2454766735      -14.5660607638      -13.0177634110  MEMB      133             0.0000000000
     15165       133  OSM       H6T            16.7405676472      -14.7219653567      -12.0647561212  MEMB      133             0.0000000000
     15166       133  OSM       C7S            15.9342717431      -16.6227870617      -12.7570435971  MEMB      133             0.0000000000
     15167       133  OSM       H7S            15.2784489014      -16.9865586623      -13.5769626342  MEMB      133             0.0000000000
     15168       133  OSM       H7T            15.3783517731      -16.7615044996      -11.8041709668  MEMB      133             0.0000000000
     15169       133  OSM       C8S            17.1690579274      -17.5416185595      -12.7634649306  MEMB      133             0.0000000000
     15170       133  OSM       H8S            17.5093480686      -17.6784805648      -13.8069685348  MEMB      133             0.0000000000
     15171       133  OSM       H8T            16.8768764043      -18.5539352232      -12.4198787995  MEMB      133             0.0000000000
     15172       133  OSM       C9S            18.2974175042      -17.1192978376      -11.8269039608  MEMB      133             0.0000000000
     15173       133  OSM       H9S            18.7062014140      -16.1191519914      -12.0822418641  MEMB      133             0.0000000000
     15174       133  OSM       H9T            19.1399405366      -17.8411098069      -11.9131320915  MEMB      133             0.0000000000
     15175       133  OSM       C10S           17.7689740345      -17.2126842644      -10.3977769051  MEMB      133             0.0000000000
     15176       133  OSM       H10S           17.1252321304      -18.1182498725      -10.3242788786  MEMB      133             0.0000000000
     15177       133  OSM       H10T           17.1394285422      -16.3348877442      -10.1482725298  MEMB      133             0.0000000000
     15178       133  OSM       C11S           18.8693013676      -17.3913236511       -9.3743676019  MEMB      133             0.0000000000
     15179       133  OSM       H11S           19.8296035351      -17.5098641830       -9.9259864665  MEMB      133             0.0000000000
     15180       133  OSM       H11T           18.6914958355      -18.3244364901       -8.7951971566  MEMB      133             0.0000000000
     15181       133  OSM       C12S           18.9978436167      -16.1897750041       -8.4472959969  MEMB      133             0.0000000000
     15182       133  OSM       H12S           18.8016493198      -15.2262936157       -8.9691063858  MEMB      133             0.0000000000
     15183       133  OSM       H12T           20.0586864307      -16.2059443154       -8.1441679896  MEMB      133             0.0000000000
     15184       133  OSM       C13S           18.1887865602      -16.2677539436       -7.1518205030  MEMB      133             0.0000000000
     15185       133  OSM       H13S           18.6380128225      -15.4926482183       -6.4897906457  MEMB      133             0.0000000000
     15186       133  OSM       H13T           18.3332473503      -17.2339028960       -6.6200933957  MEMB      133             0.0000000000
     15187       133  OSM       C14S           16.6871395663      -16.0051612257       -7.3142935536  MEMB      133             0.0000000000
     15188       133  OSM       H14S           16.2336251729      -16.5382975114       -8.1815430466  MEMB      133             0.0000000000
     15189       133  OSM       H14T           16.5129224331      -14.9150619399       -7.4426249281  MEMB      133             0.0000000000
     15190       133  OSM       C15S           15.9062153852      -16.3921009990       -6.0649169978  MEMB      133             0.0000000000
     15191       133  OSM       H15S           16.0409479889      -17.4823206846       -5.8787678771  MEMB      133             0.0000000000
     15192       133  OSM       H15T           14.8365582642      -16.2335833749       -6.3142757454  MEMB      133             0.0000000000
     15193       133  OSM       C16S           16.3286976690      -15.5083618629       -4.8765376101  MEMB      133             0.0000000000
     15194       133  OSM       H16S           16.3176959448      -14.4285363094       -5.1449783637  MEMB      133             0.0000000000
     15195       133  OSM       H16T           17.3918728429      -15.7294525034       -4.6293393272  MEMB      133             0.0000000000
     15196       133  OSM       C17S           15.5016080736      -15.7054716891       -3.6023021428  MEMB      133             0.0000000000
     15197       133  OSM       H17S           15.0875452597      -16.7368676523       -3.6275146381  MEMB      133             0.0000000000
     15198       133  OSM       H17T           14.6152879957      -15.0294409035       -3.5967071041  MEMB      133             0.0000000000
     15199       133  OSM       C18S           16.3911277847      -15.4540126682       -2.3725592520  MEMB      133             0.0000000000
     15200       133  OSM       H18S           17.2843403697      -16.1168861383       -2.3894901243  MEMB      133             0.0000000000
     15201       133  OSM       H18T           15.8753458045      -15.5985560932       -1.4010049351  MEMB      133             0.0000000000
     15202       133  OSM       H18U           16.7709397917      -14.4113087633       -2.4138123911  MEMB      133             0.0000000000
     15203       133  OSM       C1F            19.5323655186      -18.6802277234      -16.3031648583  MEMB      133             0.0000000000
     15204       133  OSM       OF             20.7082193659      -18.3773899363      -16.1327457665  MEMB      133             0.0000000000
     15205       133  OSM       C2F            19.0475883060      -20.0512774296      -16.2723637400  MEMB      133             0.0000000000
     15206       133  OSM       H2F            19.4584769461      -20.6908401460      -17.0970722628  MEMB      133             0.0000000000
     15207       133  OSM       H2G            17.9480610926      -20.1693005097      -16.2402250582  MEMB      133             0.0000000000
     15208       133  OSM       C3F            19.5643800536      -20.5084439110      -14.9349346773  MEMB      133             0.0000000000
     15209       133  OSM       H3F            20.6042576020      -20.7929442037      -15.1903732318  MEMB      133             0.0000000000
     15210       133  OSM       H3G            18.8152874889      -21.2760789526      -14.6656116848  MEMB      133             0.0000000000
     15211       133  OSM       C4F            19.3893511319      -19.8192142879      -13.6169094289  MEMB      133             0.0000000000
     15212       133  OSM       H4F            18.3013822638      -19.6296036082      -13.5424861536  MEMB      133             0.0000000000
     15213       133  OSM       H4G            19.9903732588      -18.9049513369      -13.6754710310  MEMB      133             0.0000000000
     15214       133  OSM       C5F            19.8161984243      -20.6147463307      -12.3702238832  MEMB      133             0.0000000000
     15215       133  OSM       H5F            19.8979791379      -19.9057898265      -11.5233372074  MEMB      133             0.0000000000
     15216       133  OSM       H5G            20.8505747696      -20.9437694417      -12.4562292934  MEMB      133             0.0000000000
     15217       133  OSM       C6F            18.8150310582      -21.6713619417      -11.8899362856  MEMB      133             0.0000000000
     15218       133  OSM       H6F            19.2090152274      -22.1086167870      -10.9243804563  MEMB      133             0.0000000000
     15219       133  OSM       H6G            18.5900323223      -22.5876083467      -12.4967763699  MEMB      133             0.0000000000
     15220       133  OSM       C7F            17.5629709438      -21.0396683743      -11.7635157212  MEMB      133             0.0000000000
     15221       133  OSM       H7F            16.9565439515      -21.2702008707      -12.6993208011  MEMB      133             0.0000000000
     15222       133  OSM       H7G            17.8411158650      -19.9872329846      -11.5617555136  MEMB      133             0.0000000000
     15223       133  OSM       C8F            17.0517544517      -21.5988878058      -10.5678366646  MEMB      133             0.0000000000
     15224       133  OSM       H8F            17.6023855676      -21.7615637465       -9.6209647937  MEMB      133             0.0000000000
     15225       133  OSM       H8G            16.9751600493      -22.6480060450      -11.0338218918  MEMB      133             0.0000000000
     15226       133  OSM       C9F            15.9031156221      -20.6183072829      -10.5693439788  MEMB      133             0.0000000000
     15227       133  OSM       H9F            15.2702851654      -20.9025011412      -11.4188793721  MEMB      133             0.0000000000
     15228       133  OSM       C10F           15.3232483327      -19.9322310240       -9.5620616725  MEMB      133             0.0000000000
     15229       133  OSM       H10F           14.2183998118      -20.1029920735       -9.5502867869  MEMB      133             0.0000000000
     15230       133  OSM       C11F           15.7592810481      -19.9404082881       -8.1309718875  MEMB      133             0.0000000000
     15231       133  OSM       H11F           15.3371513812      -19.0271020814       -7.7126472575  MEMB      133             0.0000000000
     15232       133  OSM       H11G           16.8661193978      -19.8831622715       -8.2509218834  MEMB      133             0.0000000000
     15233       133  OSM       C12F           15.5875545457      -20.8829015868       -6.9251387278  MEMB      133             0.0000000000
     15234       133  OSM       H12F           16.4345032285      -21.4907194705       -7.2505703026  MEMB      133             0.0000000000
     15235       133  OSM       H12G           14.6654750462      -21.4722630462       -6.7497711321  MEMB      133             0.0000000000
     15236       133  OSM       C13F           16.0477798677      -20.3867885723       -5.5796272739  MEMB      133             0.0000000000
     15237       133  OSM       H13F           15.4237683527      -19.5861721757       -5.2001594293  MEMB      133             0.0000000000
     15238       133  OSM       H13G           17.0295146281      -19.9382087139       -5.8316015456  MEMB      133             0.0000000000
     15239       133  OSM       C14F           16.0964043238      -21.4139226006       -4.4439525586  MEMB      133             0.0000000000
     15240       133  OSM       H14F           16.5493634285      -22.2883840529       -4.9759121257  MEMB      133             0.0000000000
     15241       133  OSM       H14G           15.2558691752      -21.9383769742       -4.0010955996  MEMB      133             0.0000000000
     15242       133  OSM       C15F           16.9183529758      -20.7964573442       -3.2996017651  MEMB      133             0.0000000000
     15243       133  OSM       H15F           17.6408264974      -20.1224518234       -3.8462022844  MEMB      133             0.0000000000
     15244       133  OSM       H15G           17.3239098891      -21.6251816163       -2.6704587069  MEMB      133             0.0000000000
     15245       133  OSM       C16F           16.6339111069      -19.9334358112       -2.1495935929  MEMB      133             0.0000000000
     15246       133  OSM       H16F           15.9849234991      -20.5321540481       -1.4745228411  MEMB      133             0.0000000000
     15247       133  OSM       H16G           16.1982289131      -19.0482721557       -2.6422982337  MEMB      133             0.0000000000
     15248       133  OSM       C17F           17.9515568569      -19.5402579438       -1.4450548060  MEMB      133             0.0000000000
     15249       133  OSM       H17F           18.7385572650      -19.1258488504       -2.1213494985  MEMB      133             0.0000000000
     15250       133  OSM       H17G           18.4049984815      -20.3479913712       -0.8390884398  MEMB      133             0.0000000000
     15251       133  OSM       C18F           17.6401009778      -18.5019845470       -0.4416743002  MEMB      133             0.0000000000
     15252       133  OSM       H18F           17.2312539335      -19.0334266054        0.4175466348  MEMB      133             0.0000000000
     15253       133  OSM       H18G           16.9349233051      -17.7513544953       -0.8473901587  MEMB      133             0.0000000000
     15254       133  OSM       H18H           18.5687977963      -18.0536396050       -0.1105326906  MEMB      133             0.0000000000
     15255       134  SLPC      N             -24.4278026513      -12.5490904047      -18.1932699547  MEMB      134             0.0000000000
     15256       134  SLPC      C13           -25.1262846352      -11.4812791088      -17.4149378044  MEMB      134             0.0000000000
     15257       134  SLPC      H13A          -25.2573208672      -10.5723995574      -17.9916526064  MEMB      134             0.0000000000
     15258       134  SLPC      H13B          -26.0432587533      -11.8093716372      -16.9667169161  MEMB      134             0.0000000000
     15259       134  SLPC      H13C          -24.4958305479      -11.1777946227      -16.5844856829  MEMB      134             0.0000000000
     15260       134  SLPC      C14           -25.4090500206      -13.0970551662      -19.1344303450  MEMB      134             0.0000000000
     15261       134  SLPC      H14A          -26.2585636804      -13.4971182245      -18.5927805649  MEMB      134             0.0000000000
     15262       134  SLPC      H14B          -25.8147729358      -12.3176394446      -19.7677745436  MEMB      134             0.0000000000
     15263       134  SLPC      H14C          -24.9924209543      -13.8949381113      -19.7404288347  MEMB      134             0.0000000000
     15264       134  SLPC      C15           -24.0547457106      -13.6775231497      -17.2742502255  MEMB      134             0.0000000000
     15265       134  SLPC      H15A          -24.9295293411      -13.9501641570      -16.7082171492  MEMB      134             0.0000000000
     15266       134  SLPC      H15B          -23.7031063727      -14.5248490530      -17.8409277196  MEMB      134             0.0000000000
     15267       134  SLPC      H15C          -23.2704517759      -13.3746101884      -16.5748280331  MEMB      134             0.0000000000
     15268       134  SLPC      C12           -23.2052215141      -11.9754798541      -18.9032614871  MEMB      134             0.0000000000
     15269       134  SLPC      H12A          -23.5116202674      -11.3359637860      -19.7212576031  MEMB      134             0.0000000000
     15270       134  SLPC      H12B          -22.6187790705      -12.7884291867      -19.3090234972  MEMB      134             0.0000000000
     15271       134  SLPC      C11           -22.2185124267      -11.1680828247      -18.0618084108  MEMB      134             0.0000000000
     15272       134  SLPC      H11A          -22.4540495889      -10.0683287626      -18.1638847235  MEMB      134             0.0000000000
     15273       134  SLPC      H11B          -21.2026916468      -11.2614600683      -18.5383375302  MEMB      134             0.0000000000
     15274       134  SLPC      P             -22.5754971433      -10.6661164436      -15.5468852727  MEMB      134             0.0000000000
     15275       134  SLPC      O13           -22.5803357770      -11.2159016882      -14.1767671973  MEMB      134             0.0000000000
     15276       134  SLPC      O14           -21.6600206132       -9.7157151948      -15.8728287870  MEMB      134             0.0000000000
     15277       134  SLPC      O12           -22.2501120014      -11.6900322458      -16.7098801544  MEMB      134             0.0000000000
     15278       134  SLPC      O11           -23.7436321207       -9.6971173246      -15.9115209220  MEMB      134             0.0000000000
     15279       134  SLPC      C1            -23.6090582258       -8.2636881419      -16.1967664926  MEMB      134             0.0000000000
     15280       134  SLPC      HA            -22.5735886041       -7.7889771251      -16.2803961598  MEMB      134             0.0000000000
     15281       134  SLPC      HB            -24.0970941122       -8.0851753092      -17.1613111050  MEMB      134             0.0000000000
     15282       134  SLPC      C2            -24.3767293752       -7.4491357611      -15.1607995885  MEMB      134             0.0000000000
     15283       134  SLPC      HS            -24.4526804328       -6.3861823606      -15.4554319385  MEMB      134             0.0000000000
     15284       134  SLPC      O21           -23.5706587348       -7.4853468830      -14.0287595368  MEMB      134             0.0000000000
     15285       134  SLPC      C21           -24.1635974579       -7.1096770865      -12.9442194523  MEMB      134             0.0000000000
     15286       134  SLPC      O22           -24.9707628379       -6.1960272342      -12.8111186931  MEMB      134             0.0000000000
     15287       134  SLPC      C22           -23.5584942182       -7.9474441439      -11.8271708089  MEMB      134             0.0000000000
     15288       134  SLPC      H2R           -23.3389991650       -8.9906978104      -11.7962087797  MEMB      134             0.0000000000
     15289       134  SLPC      H2S           -22.5228810683       -7.6566451042      -12.1923907398  MEMB      134             0.0000000000
     15290       134  SLPC      C3            -25.7603717413       -8.0459919964      -14.8310452171  MEMB      134             0.0000000000
     15291       134  SLPC      HX            -26.3453414904       -8.1314912535      -15.7503314524  MEMB      134             0.0000000000
     15292       134  SLPC      HY            -26.3158446517       -7.3610387988      -14.1532089265  MEMB      134             0.0000000000
     15293       134  SLPC      O31           -25.6128761126       -9.3632168032      -14.2986816179  MEMB      134             0.0000000000
     15294       134  SLPC      C31           -25.8022794738       -9.5066226354      -13.0385426136  MEMB      134             0.0000000000
     15295       134  SLPC      O32           -26.1425772214       -8.6922823423      -12.2219081866  MEMB      134             0.0000000000
     15296       134  SLPC      C32           -25.6938954907      -10.9090966619      -12.7896487374  MEMB      134             0.0000000000
     15297       134  SLPC      H2X           -25.0325918807      -11.5774101074      -13.4193154262  MEMB      134             0.0000000000
     15298       134  SLPC      H2Y           -26.7061845824      -11.2236157689      -12.8484500714  MEMB      134             0.0000000000
     15299       134  SLPC      C23           -24.2751155548       -7.6022872439      -10.4423029521  MEMB      134             0.0000000000
     15300       134  SLPC      H3R           -25.3692758888       -7.5194135422      -10.3742175070  MEMB      134             0.0000000000
     15301       134  SLPC      H3S           -24.4009840036       -6.4996128704      -10.4128380234  MEMB      134             0.0000000000
     15302       134  SLPC      C24           -23.6735015654       -8.2708650000       -9.1429013345  MEMB      134             0.0000000000
     15303       134  SLPC      H4R           -22.5641730833       -8.4759103626       -8.9105503431  MEMB      134             0.0000000000
     15304       134  SLPC      H4S           -23.6822622970       -9.3217290321       -9.1649692161  MEMB      134             0.0000000000
     15305       134  SLPC      C25           -23.9276450888       -7.4538178986       -7.9145562575  MEMB      134             0.0000000000
     15306       134  SLPC      H5R           -23.8312788414       -6.3356583354       -7.8660182878  MEMB      134             0.0000000000
     15307       134  SLPC      H5S           -23.1521903708       -7.9810477268       -7.3349396938  MEMB      134             0.0000000000
     15308       134  SLPC      C26           -24.9682491134       -7.6896146146       -6.9851373107  MEMB      134             0.0000000000
     15309       134  SLPC      H6R           -25.6089387516       -7.1057853751       -7.6314471505  MEMB      134             0.0000000000
     15310       134  SLPC      H6S           -25.0358407465       -7.1882853338       -5.9969600033  MEMB      134             0.0000000000
     15311       134  SLPC      C27           -24.8146974534       -9.1371541991       -6.8174875296  MEMB      134             0.0000000000
     15312       134  SLPC      H7R           -23.8231645259       -9.5175693623       -6.4683606371  MEMB      134             0.0000000000
     15313       134  SLPC      H7S           -25.0072050104       -9.5562956534       -7.8124804569  MEMB      134             0.0000000000
     15314       134  SLPC      C28           -25.7807916696       -9.3483932163       -5.8195056453  MEMB      134             0.0000000000
     15315       134  SLPC      H8R           -26.6315015822       -8.7033935383       -6.1113729093  MEMB      134             0.0000000000
     15316       134  SLPC      H8S           -25.6114364303       -8.9555766706       -4.8173665864  MEMB      134             0.0000000000
     15317       134  SLPC      C29           -25.8751636424      -10.8001788891       -5.9723513625  MEMB      134             0.0000000000
     15318       134  SLPC      H9R           -25.9056185388      -11.4342259700       -6.8748771882  MEMB      134             0.0000000000
     15319       134  SLPC      C210          -26.4642536575      -11.3207998771       -5.0382709700  MEMB      134             0.0000000000
     15320       134  SLPC      H10R          -26.7929727582      -12.2055355142       -5.4512019232  MEMB      134             0.0000000000
     15321       134  SLPC      C211          -27.0606096567      -10.8510709298       -3.8181069946  MEMB      134             0.0000000000
     15322       134  SLPC      H11R          -27.5982910325      -11.7448950996       -3.5567569334  MEMB      134             0.0000000000
     15323       134  SLPC      H11S          -27.9565117372      -10.1955513724       -3.8159695335  MEMB      134             0.0000000000
     15324       134  SLPC      C212          -25.8690910040      -10.5229034929       -2.9506515257  MEMB      134             0.0000000000
     15325       134  SLPC      H12R          -25.0877744545      -11.3037314976       -2.8816964037  MEMB      134             0.0000000000
     15326       134  SLPC      C213          -25.8740039314       -9.4969141089       -2.0993977540  MEMB      134             0.0000000000
     15327       134  SLPC      H13R          -24.9173571598       -9.1867400490       -1.6662702131  MEMB      134             0.0000000000
     15328       134  SLPC      C214          -27.0495062103       -8.5635229222       -1.8853838622  MEMB      134             0.0000000000
     15329       134  SLPC      H14R          -27.9804700526       -8.9042616233       -2.3868299698  MEMB      134             0.0000000000
     15330       134  SLPC      H14S          -26.8482167436       -7.5540156465       -2.2746254681  MEMB      134             0.0000000000
     15331       134  SLPC      C215          -27.3270819485       -8.4592184147       -0.3726225392  MEMB      134             0.0000000000
     15332       134  SLPC      H15R          -26.3845744758       -8.3211928042        0.1549808353  MEMB      134             0.0000000000
     15333       134  SLPC      H15S          -27.6199866814       -9.3873211915        0.1147868484  MEMB      134             0.0000000000
     15334       134  SLPC      C216          -28.3670959904       -7.4247582562        0.0674554141  MEMB      134             0.0000000000
     15335       134  SLPC      H16R          -28.6653436657       -7.7084311754        1.1039193654  MEMB      134             0.0000000000
     15336       134  SLPC      H16S          -29.2232631701       -7.3082824511       -0.6143750257  MEMB      134             0.0000000000
     15337       134  SLPC      C217          -27.8653535572       -6.0397256956        0.2028540398  MEMB      134             0.0000000000
     15338       134  SLPC      H17R          -28.5506916609       -5.2676687221        0.5791897368  MEMB      134             0.0000000000
     15339       134  SLPC      H17S          -27.5995823760       -5.6281055628       -0.7949495836  MEMB      134             0.0000000000
     15340       134  SLPC      C218          -26.7978754075       -6.0109109246        1.1902965550  MEMB      134             0.0000000000
     15341       134  SLPC      H18R          -26.7331993495       -6.4237146464        2.1998801463  MEMB      134             0.0000000000
     15342       134  SLPC      H18S          -26.5399719411       -4.9157548335        1.1087059169  MEMB      134             0.0000000000
     15343       134  SLPC      H18T          -25.9261537071       -6.6362525068        0.9614430719  MEMB      134             0.0000000000
     15344       134  SLPC      C33           -25.2261926459      -11.4066846591      -11.5176373944  MEMB      134             0.0000000000
     15345       134  SLPC      H3X           -25.7299918182      -12.3957601812      -11.5020212627  MEMB      134             0.0000000000
     15346       134  SLPC      H3Y           -24.2628378374      -10.9513757673      -11.8671443748  MEMB      134             0.0000000000
     15347       134  SLPC      C34           -24.9273093758      -11.0808878913      -10.1237847204  MEMB      134             0.0000000000
     15348       134  SLPC      H4X           -25.4966247202      -11.6781960008       -9.3794501515  MEMB      134             0.0000000000
     15349       134  SLPC      H4Y           -25.1169124775      -10.0336264924       -9.9216351912  MEMB      134             0.0000000000
     15350       134  SLPC      C35           -23.6927393109      -11.8194960799      -10.0021750903  MEMB      134             0.0000000000
     15351       134  SLPC      H5X           -23.0182769828      -10.9720282410      -10.1477429365  MEMB      134             0.0000000000
     15352       134  SLPC      H5Y           -23.7052591520      -12.6059566928      -10.8280551329  MEMB      134             0.0000000000
     15353       134  SLPC      C36           -23.7366803053      -12.5282177818       -8.7043116195  MEMB      134             0.0000000000
     15354       134  SLPC      H6X           -24.5272516826      -13.2893924709       -8.9423920040  MEMB      134             0.0000000000
     15355       134  SLPC      H6Y           -24.1218015573      -11.9075063980       -7.8698966811  MEMB      134             0.0000000000
     15356       134  SLPC      C37           -22.3315386360      -12.9594588196       -8.4273940656  MEMB      134             0.0000000000
     15357       134  SLPC      H7X           -21.7676336972      -12.0327269232       -8.6669716509  MEMB      134             0.0000000000
     15358       134  SLPC      H7Y           -22.0705767799      -13.7698809136       -9.1460743290  MEMB      134             0.0000000000
     15359       134  SLPC      C38           -22.0524597746      -13.3240048207       -6.9763443586  MEMB      134             0.0000000000
     15360       134  SLPC      H8X           -21.2388563160      -14.0600524379       -6.8961099224  MEMB      134             0.0000000000
     15361       134  SLPC      H8Y           -22.8780929644      -13.8522806421       -6.5739537951  MEMB      134             0.0000000000
     15362       134  SLPC      C39           -22.0419505396      -12.1894002100       -5.9683360196  MEMB      134             0.0000000000
     15363       134  SLPC      H9X           -22.1160863942      -12.6109793793       -4.9386862310  MEMB      134             0.0000000000
     15364       134  SLPC      H9Y           -22.9269694990      -11.5240525786       -6.1023016278  MEMB      134             0.0000000000
     15365       134  SLPC      C310          -20.7663253592      -11.4015742530       -6.0615750743  MEMB      134             0.0000000000
     15366       134  SLPC      H10X          -20.5629930284      -11.1874624392       -7.1371993368  MEMB      134             0.0000000000
     15367       134  SLPC      H10Y          -19.9212839201      -12.0115121137       -5.6846457273  MEMB      134             0.0000000000
     15368       134  SLPC      C311          -20.9305678075      -10.0943875956       -5.2957379902  MEMB      134             0.0000000000
     15369       134  SLPC      H11X          -21.7999300858       -9.5876878862       -5.7631155439  MEMB      134             0.0000000000
     15370       134  SLPC      H11Y          -20.0004265837       -9.5428465854       -5.4713643964  MEMB      134             0.0000000000
     15371       134  SLPC      C312          -21.1124755140      -10.1789838726       -3.7723012205  MEMB      134             0.0000000000
     15372       134  SLPC      H12X          -20.1840912942      -10.6357422815       -3.3543290680  MEMB      134             0.0000000000
     15373       134  SLPC      H12Y          -21.9516494771      -10.8511705872       -3.5127827530  MEMB      134             0.0000000000
     15374       134  SLPC      C313          -21.4511910840       -8.8475443268       -3.0704863385  MEMB      134             0.0000000000
     15375       134  SLPC      H13X          -22.3677229351       -8.3500293336       -3.4426002726  MEMB      134             0.0000000000
     15376       134  SLPC      H13Y          -20.6903215702       -8.0902274368       -3.2568710175  MEMB      134             0.0000000000
     15377       134  SLPC      C314          -21.5909518004       -9.0476052009       -1.5665215272  MEMB      134             0.0000000000
     15378       134  SLPC      H14X          -20.8304515146       -9.7687679716       -1.1960537851  MEMB      134             0.0000000000
     15379       134  SLPC      H14Y          -22.6232366791       -9.3620721425       -1.2971175822  MEMB      134             0.0000000000
     15380       134  SLPC      C315          -21.3256093713       -7.8084475983       -0.7796400599  MEMB      134             0.0000000000
     15381       134  SLPC      H15X          -21.8794330069       -6.9764104228       -1.1471156058  MEMB      134             0.0000000000
     15382       134  SLPC      H15Y          -20.2820180516       -7.5378355956       -0.7355436367  MEMB      134             0.0000000000
     15383       134  SLPC      C316          -21.5732330834       -7.9821650690        0.6488617401  MEMB      134             0.0000000000
     15384       134  SLPC      H16X          -20.9191057831       -7.2977751717        1.1836758049  MEMB      134             0.0000000000
     15385       134  SLPC      H16Y          -21.4202428744       -9.0104408325        0.9905322336  MEMB      134             0.0000000000
     15386       134  SLPC      C317          -22.8044768704       -7.3680963916        1.0765206779  MEMB      134             0.0000000000
     15387       134  SLPC      H17X          -23.6208656051       -7.7835387260        0.4608993119  MEMB      134             0.0000000000
     15388       134  SLPC      H17Y          -22.5418837537       -6.3146490046        1.0515168063  MEMB      134             0.0000000000
     15389       134  SLPC      C318          -23.0695150720       -7.6020809509        2.4692101484  MEMB      134             0.0000000000
     15390       134  SLPC      H18X          -24.1087147519       -7.3821364118        2.8471769800  MEMB      134             0.0000000000
     15391       134  SLPC      H18Y          -22.3239107305       -7.4448204894        3.2372683893  MEMB      134             0.0000000000
     15392       134  SLPC      H18Z          -22.9963280412       -8.6443406596        2.1237713345  MEMB      134             0.0000000000
     15393       135  OSM       N              23.6612656786       10.7172757172      -23.0817002254  MEMB      135             0.0000000000
     15394       135  OSM       C15            24.6895110450        9.8776185339      -23.7755231575  MEMB      135             0.0000000000
     15395       135  OSM       H15A           25.6322024196        9.8757795023      -23.2184483912  MEMB      135             0.0000000000
     15396       135  OSM       H15B           24.8755057924       10.2094629055      -24.7886639293  MEMB      135             0.0000000000
     15397       135  OSM       H15C           24.3185236355        8.8584538188      -23.8504531796  MEMB      135             0.0000000000
     15398       135  OSM       C14            24.2769008176       11.9707204867      -22.5587041299  MEMB      135             0.0000000000
     15399       135  OSM       H14A           24.5234512960       12.6877525950      -23.3244752874  MEMB      135             0.0000000000
     15400       135  OSM       H14B           25.1956224688       11.7203420479      -22.0263914266  MEMB      135             0.0000000000
     15401       135  OSM       H14C           23.6294076494       12.4084115861      -21.7910392627  MEMB      135             0.0000000000
     15402       135  OSM       C13            22.5937016486       11.0307889449      -24.0862381282  MEMB      135             0.0000000000
     15403       135  OSM       H13A           21.8755074379       11.7574243299      -23.7395555966  MEMB      135             0.0000000000
     15404       135  OSM       H13B           22.0480971443       10.1342939199      -24.3492943806  MEMB      135             0.0000000000
     15405       135  OSM       H13C           23.0608682787       11.3767123882      -24.9941662519  MEMB      135             0.0000000000
     15406       135  OSM       C12            23.1265532420        9.8984933560      -21.9146594030  MEMB      135             0.0000000000
     15407       135  OSM       H12A           23.9845900291        9.5240431950      -21.3352126540  MEMB      135             0.0000000000
     15408       135  OSM       H12B           22.6436421736        9.0159365081      -22.2981988599  MEMB      135             0.0000000000
     15409       135  OSM       C11            22.1935893284       10.6079502869      -20.9013025798  MEMB      135             0.0000000000
     15410       135  OSM       H11A           21.5902659097        9.8599496128      -20.3319179235  MEMB      135             0.0000000000
     15411       135  OSM       H11B           21.4784707257       11.2533936008      -21.4528565662  MEMB      135             0.0000000000
     15412       135  OSM       P              24.0085997519       10.8665253204      -19.0143528145  MEMB      135             0.0000000000
     15413       135  OSM       O13            24.8619497381        9.9002421946      -19.7363324545  MEMB      135             0.0000000000
     15414       135  OSM       O14            24.6248714023       12.0116461940      -18.3264799879  MEMB      135             0.0000000000
     15415       135  OSM       O11            23.1439471507       10.0557146902      -17.9862023830  MEMB      135             0.0000000000
     15416       135  OSM       O12            22.9250821580       11.4502562491      -20.0219080872  MEMB      135             0.0000000000
     15417       135  OSM       C1S            22.0236208196       10.6590636298      -17.3679760313  MEMB      135             0.0000000000
     15418       135  OSM       H1S            21.0638479647       10.3280018936      -17.7998708438  MEMB      135             0.0000000000
     15419       135  OSM       H1T            22.0008094129       11.7598202846      -17.5848351386  MEMB      135             0.0000000000
     15420       135  OSM       NF             23.0257880186       11.1480993558      -15.0667658025  MEMB      135             0.0000000000
     15421       135  OSM       HNF            23.9297168817       10.9804258351      -14.7699086541  MEMB      135             0.0000000000
     15422       135  OSM       C2S            22.0891536479       10.3265059991      -15.8077172659  MEMB      135             0.0000000000
     15423       135  OSM       H2S            21.0259547959       10.4093052167      -15.3721188803  MEMB      135             0.0000000000
     15424       135  OSM       C3S            22.5568961837        9.0083139135      -15.5227650745  MEMB      135             0.0000000000
     15425       135  OSM       H3S            23.6578413553        9.0607570608      -15.7385620174  MEMB      135             0.0000000000
     15426       135  OSM       O3             21.8416482014        8.0452855649      -16.2613298855  MEMB      135             0.0000000000
     15427       135  OSM       HO3            21.1295019825        8.5699992489      -16.6405560623  MEMB      135             0.0000000000
     15428       135  OSM       C4S            22.3447670745        8.7687128634      -14.0641550929  MEMB      135             0.0000000000
     15429       135  OSM       H4S            21.3162189061        8.5889444463      -13.7429673331  MEMB      135             0.0000000000
     15430       135  OSM       C5S            23.2660839532        8.8757320045      -13.1130273361  MEMB      135             0.0000000000
     15431       135  OSM       H5S            24.3438746547        8.9756578270      -13.3626352845  MEMB      135             0.0000000000
     15432       135  OSM       C6S            22.8424204116        8.5442012903      -11.7289287229  MEMB      135             0.0000000000
     15433       135  OSM       H6S            23.1176489577        7.4884494145      -11.6899304112  MEMB      135             0.0000000000
     15434       135  OSM       H6T            21.7813082098        8.3395746881      -11.5304861881  MEMB      135             0.0000000000
     15435       135  OSM       C7S            23.3503142758        9.5249071271      -10.6561050965  MEMB      135             0.0000000000
     15436       135  OSM       H7S            22.7908056320       10.4152678985      -10.9454488213  MEMB      135             0.0000000000
     15437       135  OSM       H7T            24.4558470832        9.7056764847      -10.7156059650  MEMB      135             0.0000000000
     15438       135  OSM       C8S            22.9746873597        9.1739526553       -9.2001996368  MEMB      135             0.0000000000
     15439       135  OSM       H8S            23.9076183492        8.9562843650       -8.6317093430  MEMB      135             0.0000000000
     15440       135  OSM       H8T            22.2894943454        8.2952796333       -9.1689970923  MEMB      135             0.0000000000
     15441       135  OSM       C9S            22.3961211199       10.3199893830       -8.3897828608  MEMB      135             0.0000000000
     15442       135  OSM       H9S            21.6677804442       10.8507656000       -9.0318056511  MEMB      135             0.0000000000
     15443       135  OSM       H9T            23.2462924970       11.0111547408       -8.1777571538  MEMB      135             0.0000000000
     15444       135  OSM       C10S           21.7456510799        9.8783512469       -7.0613685719  MEMB      135             0.0000000000
     15445       135  OSM       H10S           21.0109503223        9.0606325002       -7.2324885123  MEMB      135             0.0000000000
     15446       135  OSM       H10T           21.1654602112       10.7529783691       -6.6957025366  MEMB      135             0.0000000000
     15447       135  OSM       C11S           22.7940727145        9.4117522926       -6.0316641161  MEMB      135             0.0000000000
     15448       135  OSM       H11S           23.5289393165       10.2190651097       -5.8413181540  MEMB      135             0.0000000000
     15449       135  OSM       H11T           23.3543189694        8.5514667767       -6.4722440569  MEMB      135             0.0000000000
     15450       135  OSM       C12S           22.2852481422        8.9453179005       -4.6677130101  MEMB      135             0.0000000000
     15451       135  OSM       H12S           21.2585205203        9.3122095814       -4.4244341054  MEMB      135             0.0000000000
     15452       135  OSM       H12T           22.9842593158        9.2744733131       -3.8669906736  MEMB      135             0.0000000000
     15453       135  OSM       C13S           22.3147537917        7.4234304246       -4.6338855632  MEMB      135             0.0000000000
     15454       135  OSM       H13S           23.2812291395        7.0002716020       -4.9156409335  MEMB      135             0.0000000000
     15455       135  OSM       H13T           21.5877612424        7.1778104155       -5.4462060695  MEMB      135             0.0000000000
     15456       135  OSM       C14S           21.8790418154        6.8960447611       -3.2699441119  MEMB      135             0.0000000000
     15457       135  OSM       H14S           21.5359037410        5.8392174171       -3.2581660773  MEMB      135             0.0000000000
     15458       135  OSM       H14T           21.0356378017        7.5747147433       -3.2989573098  MEMB      135             0.0000000000
     15459       135  OSM       C15S           22.7254456744        7.0932717877       -2.0147690855  MEMB      135             0.0000000000
     15460       135  OSM       H15S           23.2561269436        8.0627276982       -2.0244661728  MEMB      135             0.0000000000
     15461       135  OSM       H15T           23.4506444319        6.2575850040       -2.1053183683  MEMB      135             0.0000000000
     15462       135  OSM       C16S           22.0272667922        6.8289207444       -0.6606078536  MEMB      135             0.0000000000
     15463       135  OSM       H16S           22.7941034308        6.6448894871        0.1204800803  MEMB      135             0.0000000000
     15464       135  OSM       H16T           21.3699949735        5.9334752879       -0.7534973936  MEMB      135             0.0000000000
     15465       135  OSM       C17S           21.2043699359        7.9575753943       -0.0804557975  MEMB      135             0.0000000000
     15466       135  OSM       H17S           20.6014794663        7.6181490261        0.7928577675  MEMB      135             0.0000000000
     15467       135  OSM       H17T           20.5131257249        8.2034928812       -0.8486522492  MEMB      135             0.0000000000
     15468       135  OSM       C18S           21.8452240482        9.3166985853        0.0416713642  MEMB      135             0.0000000000
     15469       135  OSM       H18S           21.1813320777        9.9817961076        0.6027835366  MEMB      135             0.0000000000
     15470       135  OSM       H18T           21.9278712806        9.7855163130       -0.9701874621  MEMB      135             0.0000000000
     15471       135  OSM       H18U           22.7896808448        9.2743407371        0.5769084578  MEMB      135             0.0000000000
     15472       135  OSM       C1F            22.8047336562       12.2844696011      -15.1773787544  MEMB      135             0.0000000000
     15473       135  OSM       OF             21.6941476710       12.3594905259      -15.5623182429  MEMB      135             0.0000000000
     15474       135  OSM       C2F            23.7643308206       13.2148023821      -14.5205203303  MEMB      135             0.0000000000
     15475       135  OSM       H2F            23.9336742399       14.1682186555      -15.0972928923  MEMB      135             0.0000000000
     15476       135  OSM       H2G            24.7359289351       12.7715790018      -14.3890116209  MEMB      135             0.0000000000
     15477       135  OSM       C3F            23.6958333775       13.2737926777      -12.8852258783  MEMB      135             0.0000000000
     15478       135  OSM       H3F            22.7215984625       13.3622698106      -13.2663074909  MEMB      135             0.0000000000
     15479       135  OSM       H3G            24.1917874451       14.2493902430      -12.9639062809  MEMB      135             0.0000000000
     15480       135  OSM       C4F            22.6940563392       12.8286703769      -11.5794989949  MEMB      135             0.0000000000
     15481       135  OSM       H4F            23.3548639110       12.1741660070      -11.0928665957  MEMB      135             0.0000000000
     15482       135  OSM       H4G            21.9310351606       12.1976255188      -12.2019944268  MEMB      135             0.0000000000
     15483       135  OSM       C5F            21.9918720537       13.6772008011      -10.1266089329  MEMB      135             0.0000000000
     15484       135  OSM       H5F            21.0976688005       13.1933408059      -10.3711704621  MEMB      135             0.0000000000
     15485       135  OSM       H5G            21.2158285162       14.5393254134      -10.1145485269  MEMB      135             0.0000000000
     15486       135  OSM       C6F            22.3158365479       15.2214400686       -9.6656906013  MEMB      135             0.0000000000
     15487       135  OSM       H6F            21.6892006692       16.0569247325       -9.1813131627  MEMB      135             0.0000000000
     15488       135  OSM       H6G            22.9295910247       15.8974663783      -10.2909397193  MEMB      135             0.0000000000
     15489       135  OSM       C7F            23.1340767638       14.4601293008       -8.7706126928  MEMB      135             0.0000000000
     15490       135  OSM       H7F            23.8354138910       13.8571478918       -9.4426969419  MEMB      135             0.0000000000
     15491       135  OSM       H7G            22.4919705897       13.8686081207       -8.1002460498  MEMB      135             0.0000000000
     15492       135  OSM       C8F            23.8525462599       15.3993847211       -8.0561715458  MEMB      135             0.0000000000
     15493       135  OSM       H8F            23.2420429797       16.1831096680       -7.5637223481  MEMB      135             0.0000000000
     15494       135  OSM       H8G            24.2592169222       15.7317888463       -9.0011574286  MEMB      135             0.0000000000
     15495       135  OSM       C9F            25.0791612153       14.9646959983       -7.4572550952  MEMB      135             0.0000000000
     15496       135  OSM       H9F            25.9374089997       15.1019419472       -8.1299345320  MEMB      135             0.0000000000
     15497       135  OSM       C10F           25.2376053113       14.9438668776       -6.1715377452  MEMB      135             0.0000000000
     15498       135  OSM       H10F           26.2673516924       14.9321929167       -5.8255491946  MEMB      135             0.0000000000
     15499       135  OSM       C11F           24.1668500628       15.3298012186       -5.2088690585  MEMB      135             0.0000000000
     15500       135  OSM       H11F           23.3097771622       15.9248302499       -5.5821211024  MEMB      135             0.0000000000
     15501       135  OSM       H11G           24.5398797497       16.1045811794       -4.5583241589  MEMB      135             0.0000000000
     15502       135  OSM       C12F           23.7407235745       13.9651403315       -4.6162361302  MEMB      135             0.0000000000
     15503       135  OSM       H12F           24.5799427082       13.2685005841       -4.4707047106  MEMB      135             0.0000000000
     15504       135  OSM       H12G           23.0176750785       13.5407983002       -5.3528122801  MEMB      135             0.0000000000
     15505       135  OSM       C13F           22.9998974971       14.0585133678       -3.3032487355  MEMB      135             0.0000000000
     15506       135  OSM       H13F           22.1796193206       13.3450806514       -3.1483563626  MEMB      135             0.0000000000
     15507       135  OSM       H13G           22.7294010880       15.1224824714       -3.4829793793  MEMB      135             0.0000000000
     15508       135  OSM       C14F           23.7036026223       13.9536227703       -1.9912721566  MEMB      135             0.0000000000
     15509       135  OSM       H14F           23.2804593167       14.3479040360       -1.0440568176  MEMB      135             0.0000000000
     15510       135  OSM       H14G           24.1490963349       14.8505089725       -2.2914681382  MEMB      135             0.0000000000
     15511       135  OSM       C15F           24.4678862479       12.6396289409       -1.9828469297  MEMB      135             0.0000000000
     15512       135  OSM       H15F           25.2887756591       12.5908619165       -2.7285317054  MEMB      135             0.0000000000
     15513       135  OSM       H15G           23.7049033969       11.8526717233       -2.0881586268  MEMB      135             0.0000000000
     15514       135  OSM       C16F           24.9884875035       12.1805974508       -0.6983351542  MEMB      135             0.0000000000
     15515       135  OSM       H16F           25.0782600168       11.1331780037       -0.3970087920  MEMB      135             0.0000000000
     15516       135  OSM       H16G           24.2542421525       12.6703413738       -0.0427294751  MEMB      135             0.0000000000
     15517       135  OSM       C17F           26.3783876623       12.6017598262       -0.5920923866  MEMB      135             0.0000000000
     15518       135  OSM       H17F           26.3904327715       12.4117360191        0.4880321341  MEMB      135             0.0000000000
     15519       135  OSM       H17G           26.2985216440       13.6600881210       -0.8293972913  MEMB      135             0.0000000000
     15520       135  OSM       C18F           27.6517409608       11.9692978431       -1.1850770674  MEMB      135             0.0000000000
     15521       135  OSM       H18F           28.5726247152       12.6153158762       -1.1930954706  MEMB      135             0.0000000000
     15522       135  OSM       H18G           27.4209360398       11.7057367062       -2.2094706326  MEMB      135             0.0000000000
     15523       135  OSM       H18H           27.9975114210       11.1057502328       -0.5886128187  MEMB      135             0.0000000000
     15524       136  SAPC      N              -3.0892287033       24.3211521334      -21.4827556800  MEMB      136             0.0000000000
     15525       136  SAPC      C12            -2.1820897309       25.4837478801      -21.0969129674  MEMB      136             0.0000000000
     15526       136  SAPC      H12A           -2.6843529254       26.4216752300      -21.3371298227  MEMB      136             0.0000000000
     15527       136  SAPC      H12B           -1.2758402323       25.4460870802      -21.6926920894  MEMB      136             0.0000000000
     15528       136  SAPC      C13            -3.3777176880       24.2963042278      -22.9325320872  MEMB      136             0.0000000000
     15529       136  SAPC      H13A           -3.9265646773       23.3896281029      -23.1579373451  MEMB      136             0.0000000000
     15530       136  SAPC      H13B           -4.0072206426       25.1370488096      -23.1338842227  MEMB      136             0.0000000000
     15531       136  SAPC      H13C           -2.4901637847       24.3647394960      -23.5462559984  MEMB      136             0.0000000000
     15532       136  SAPC      C14            -2.5027699748       23.0008457438      -21.1215049830  MEMB      136             0.0000000000
     15533       136  SAPC      H14A           -1.5610527675       22.8364970148      -21.6485794509  MEMB      136             0.0000000000
     15534       136  SAPC      H14B           -2.2751210546       22.9598836623      -20.0663911502  MEMB      136             0.0000000000
     15535       136  SAPC      H14C           -3.1855615719       22.2042340956      -21.3751418970  MEMB      136             0.0000000000
     15536       136  SAPC      C15            -4.4148391993       24.4828403774      -20.8288138887  MEMB      136             0.0000000000
     15537       136  SAPC      H15A           -4.7368084268       25.5151837437      -20.9640522561  MEMB      136             0.0000000000
     15538       136  SAPC      H15B           -5.1213651831       23.7924603927      -21.2464774819  MEMB      136             0.0000000000
     15539       136  SAPC      H15C           -4.3505154096       24.3658339735      -19.7476346749  MEMB      136             0.0000000000
     15540       136  SAPC      C11            -1.8304634226       25.6530219535      -19.5950374666  MEMB      136             0.0000000000
     15541       136  SAPC      H11A           -1.0853947565       26.4877756255      -19.5252345948  MEMB      136             0.0000000000
     15542       136  SAPC      H11B           -1.3366603401       24.7506908861      -19.1816525337  MEMB      136             0.0000000000
     15543       136  SAPC      P              -3.5055973223       27.3872297645      -18.6064266547  MEMB      136             0.0000000000
     15544       136  SAPC      O13            -3.7405289565       27.9578320155      -19.9503225162  MEMB      136             0.0000000000
     15545       136  SAPC      O14            -4.5402031894       27.4575403293      -17.5678291748  MEMB      136             0.0000000000
     15546       136  SAPC      O12            -3.0052153088       25.8959040470      -18.8154822332  MEMB      136             0.0000000000
     15547       136  SAPC      O11            -2.1835383637       27.9993605531      -18.0149376004  MEMB      136             0.0000000000
     15548       136  SAPC      C1             -1.7495906102       29.2219005179      -18.5458399114  MEMB      136             0.0000000000
     15549       136  SAPC      HA             -1.2227047580       29.0930648508      -19.5270810553  MEMB      136             0.0000000000
     15550       136  SAPC      HB             -2.5663556791       29.9656859482      -18.6752710830  MEMB      136             0.0000000000
     15551       136  SAPC      C2             -0.7630386196       29.8623572915      -17.6083835102  MEMB      136             0.0000000000
     15552       136  SAPC      HS             -0.2284312950       30.3918687189      -18.4312974914  MEMB      136             0.0000000000
     15553       136  SAPC      O21             0.0192389848       29.0562296151      -16.7800681243  MEMB      136             0.0000000000
     15554       136  SAPC      C21             0.8178382363       28.2904264844      -17.3934907058  MEMB      136             0.0000000000
     15555       136  SAPC      O22             1.0981317703       28.1864756675      -18.5689079760  MEMB      136             0.0000000000
     15556       136  SAPC      C22             1.2770472913       27.4237032745      -16.3705089895  MEMB      136             0.0000000000
     15557       136  SAPC      H2R             1.7768531343       27.8688144384      -15.4829931017  MEMB      136             0.0000000000
     15558       136  SAPC      H2S             0.2761116366       26.9985330854      -16.0318905574  MEMB      136             0.0000000000
     15559       136  SAPC      C3             -1.3033221740       30.8522769203      -16.6351914125  MEMB      136             0.0000000000
     15560       136  SAPC      HX             -1.4956598400       31.4395559163      -17.5425168713  MEMB      136             0.0000000000
     15561       136  SAPC      HY             -0.6177900222       31.4392132151      -15.9782915694  MEMB      136             0.0000000000
     15562       136  SAPC      O31            -2.4741770705       30.3389002784      -15.9863056492  MEMB      136             0.0000000000
     15563       136  SAPC      C31            -2.4193574698       30.2411841685      -14.6642634236  MEMB      136             0.0000000000
     15564       136  SAPC      O32            -1.6575747124       30.8838084736      -13.9525885571  MEMB      136             0.0000000000
     15565       136  SAPC      C32            -3.5286239675       29.2458679562      -14.1708771419  MEMB      136             0.0000000000
     15566       136  SAPC      H2X            -3.6744759742       28.3965342049      -14.8261320353  MEMB      136             0.0000000000
     15567       136  SAPC      H2Y            -4.4677739385       29.5682394104      -14.5648177138  MEMB      136             0.0000000000
     15568       136  SAPC      C23             2.3023644817       26.4073419847      -16.9034724109  MEMB      136             0.0000000000
     15569       136  SAPC      H3R             3.2671231387       26.8208890247      -17.2430033968  MEMB      136             0.0000000000
     15570       136  SAPC      H3S             1.9046473575       25.7323947609      -17.7180475246  MEMB      136             0.0000000000
     15571       136  SAPC      C24             2.8036000512       25.7258505939      -15.6889892195  MEMB      136             0.0000000000
     15572       136  SAPC      H4R             3.2642226468       26.2788206165      -14.8781272327  MEMB      136             0.0000000000
     15573       136  SAPC      H4S             3.5603329571       25.0649933546      -15.9893036992  MEMB      136             0.0000000000
     15574       136  SAPC      C25             1.4730689076       25.2390785721      -15.3897082383  MEMB      136             0.0000000000
     15575       136  SAPC      H5R             1.0632379301       24.5652330631      -16.1541387073  MEMB      136             0.0000000000
     15576       136  SAPC      C26             0.9160474409       25.2937677192      -14.2432637523  MEMB      136             0.0000000000
     15577       136  SAPC      H6R            -0.0448073250       24.7428740688      -14.1969446751  MEMB      136             0.0000000000
     15578       136  SAPC      C27             1.6022698135       25.8201686115      -13.0297804157  MEMB      136             0.0000000000
     15579       136  SAPC      H7R             2.7266301709       25.9125990264      -12.9925453605  MEMB      136             0.0000000000
     15580       136  SAPC      H7S             1.4419093093       25.2457084904      -12.1474556293  MEMB      136             0.0000000000
     15581       136  SAPC      C28             0.8038339611       26.8984051899      -12.6343444938  MEMB      136             0.0000000000
     15582       136  SAPC      H8R             1.3643688031       27.7460820301      -12.9770629873  MEMB      136             0.0000000000
     15583       136  SAPC      C29            -0.4439251226       26.9130182874      -12.1262655304  MEMB      136             0.0000000000
     15584       136  SAPC      H9R            -0.8057042189       27.9091102525      -12.0737108613  MEMB      136             0.0000000000
     15585       136  SAPC      C210           -1.5303272642       25.9031527056      -11.7491596712  MEMB      136             0.0000000000
     15586       136  SAPC      H10R           -1.7350649516       25.1292412609      -12.5478459685  MEMB      136             0.0000000000
     15587       136  SAPC      H10S           -2.4216775114       26.3961308953      -11.4207230224  MEMB      136             0.0000000000
     15588       136  SAPC      C211           -1.3073762244       25.1557473533      -10.5476197163  MEMB      136             0.0000000000
     15589       136  SAPC      H11R           -0.7624242543       24.5047382514      -11.1528247274  MEMB      136             0.0000000000
     15590       136  SAPC      C212           -1.6441802487       24.9589056691       -9.2602396756  MEMB      136             0.0000000000
     15591       136  SAPC      H12R           -1.0284595126       24.4965432656       -8.4717132119  MEMB      136             0.0000000000
     15592       136  SAPC      C213           -2.6456801283       25.7349474352       -8.6106314862  MEMB      136             0.0000000000
     15593       136  SAPC      H13R           -3.1962188185       26.1987959696       -9.4381945800  MEMB      136             0.0000000000
     15594       136  SAPC      H13S           -2.1106506351       26.4631617267       -7.9752986920  MEMB      136             0.0000000000
     15595       136  SAPC      C214           -3.5093242821       24.7285575787       -7.9291510395  MEMB      136             0.0000000000
     15596       136  SAPC      H14R           -4.4597360028       24.6281756369       -8.4573245125  MEMB      136             0.0000000000
     15597       136  SAPC      C215           -3.2869039284       23.9670074834       -6.8457375141  MEMB      136             0.0000000000
     15598       136  SAPC      H15R           -4.1197760098       23.3409732615       -6.5287936461  MEMB      136             0.0000000000
     15599       136  SAPC      C216           -2.0669115282       23.9018090149       -5.9647551715  MEMB      136             0.0000000000
     15600       136  SAPC      H16R           -1.1480999637       23.8167733502       -6.5674973766  MEMB      136             0.0000000000
     15601       136  SAPC      H16S           -2.0929413997       22.9734165922       -5.3581549025  MEMB      136             0.0000000000
     15602       136  SAPC      C217           -1.9724093600       25.1505868412       -5.0648045694  MEMB      136             0.0000000000
     15603       136  SAPC      H17R           -1.8034250289       26.0429734301       -5.7053035060  MEMB      136             0.0000000000
     15604       136  SAPC      H17S           -1.0985341472       25.1223981729       -4.4070758986  MEMB      136             0.0000000000
     15605       136  SAPC      C218           -3.1779288341       25.3138981655       -4.1275685854  MEMB      136             0.0000000000
     15606       136  SAPC      H18R           -3.3411366483       24.3813880282       -3.5468823971  MEMB      136             0.0000000000
     15607       136  SAPC      H18S           -4.0628433219       25.5345056230       -4.7614738749  MEMB      136             0.0000000000
     15608       136  SAPC      C219           -3.0793010923       26.4459803155       -3.1192807460  MEMB      136             0.0000000000
     15609       136  SAPC      H19R           -4.0455788659       26.5805012015       -2.5807527409  MEMB      136             0.0000000000
     15610       136  SAPC      H19S           -2.8748646791       27.3876215369       -3.6732114620  MEMB      136             0.0000000000
     15611       136  SAPC      C220           -2.0546733424       26.3084497089       -2.0282654385  MEMB      136             0.0000000000
     15612       136  SAPC      H20R           -1.0021573960       26.1902308750       -2.3745349429  MEMB      136             0.0000000000
     15613       136  SAPC      H20S           -2.2647961700       25.5915972638       -1.2090266049  MEMB      136             0.0000000000
     15614       136  SAPC      H20T           -2.1885285110       27.2992996028       -1.5634925693  MEMB      136             0.0000000000
     15615       136  SAPC      C33            -3.9660443853       29.1452873063      -12.6657850156  MEMB      136             0.0000000000
     15616       136  SAPC      H3X            -3.8463385004       30.0546419995      -12.0276862328  MEMB      136             0.0000000000
     15617       136  SAPC      H3Y            -3.1819158973       28.5383525867      -12.2306135752  MEMB      136             0.0000000000
     15618       136  SAPC      C34            -5.4607331634       28.6454805012      -12.5514207650  MEMB      136             0.0000000000
     15619       136  SAPC      H4X            -5.4605591187       27.5856090053      -12.7333825970  MEMB      136             0.0000000000
     15620       136  SAPC      H4Y            -6.2099551063       29.1432602575      -13.2372778188  MEMB      136             0.0000000000
     15621       136  SAPC      C35            -6.0807960170       28.7870882845      -11.1798447631  MEMB      136             0.0000000000
     15622       136  SAPC      H5X            -7.1605462033       28.8108563820      -10.9603537656  MEMB      136             0.0000000000
     15623       136  SAPC      H5Y            -6.0558457100       29.7965285203      -11.4349041311  MEMB      136             0.0000000000
     15624       136  SAPC      C36            -5.1287897939       28.2259427870      -10.1306596399  MEMB      136             0.0000000000
     15625       136  SAPC      H6X            -4.0482941061       28.4078799195      -10.3204601558  MEMB      136             0.0000000000
     15626       136  SAPC      H6Y            -5.3501571333       27.1620966890      -10.3133628830  MEMB      136             0.0000000000
     15627       136  SAPC      C37            -5.3451615760       28.5364917540       -8.6656356790  MEMB      136             0.0000000000
     15628       136  SAPC      H7X            -5.1195232554       27.6025407888       -8.1160667018  MEMB      136             0.0000000000
     15629       136  SAPC      H7Y            -6.3925265715       28.8883580473       -8.4681806609  MEMB      136             0.0000000000
     15630       136  SAPC      C38            -4.3505894858       29.4576882883       -8.0039935175  MEMB      136             0.0000000000
     15631       136  SAPC      H8X            -4.7716723985       29.8816430301       -7.0718551324  MEMB      136             0.0000000000
     15632       136  SAPC      H8Y            -4.0537783346       30.2557129755       -8.6828374782  MEMB      136             0.0000000000
     15633       136  SAPC      C39            -2.9447590691       29.1972100615       -7.7631787829  MEMB      136             0.0000000000
     15634       136  SAPC      H9X            -2.3625308632       29.3226379285       -8.7238825442  MEMB      136             0.0000000000
     15635       136  SAPC      H9Y            -2.8595832328       28.2323672815       -7.2823130209  MEMB      136             0.0000000000
     15636       136  SAPC      C310           -2.5197553293       30.2854889675       -6.8324468934  MEMB      136             0.0000000000
     15637       136  SAPC      H10X           -3.0248508680       30.4546476203       -5.8585913854  MEMB      136             0.0000000000
     15638       136  SAPC      H10Y           -2.8300945537       31.1850030534       -7.3886795510  MEMB      136             0.0000000000
     15639       136  SAPC      C311           -1.0347777149       30.1528424187       -6.7125598944  MEMB      136             0.0000000000
     15640       136  SAPC      H11X           -0.7572994598       30.9493942111       -6.0766342587  MEMB      136             0.0000000000
     15641       136  SAPC      H11Y           -0.5913537448       30.2967324802       -7.7017357860  MEMB      136             0.0000000000
     15642       136  SAPC      C312           -0.3509140303       28.9125221392       -6.2508116938  MEMB      136             0.0000000000
     15643       136  SAPC      H12X            0.7472721814       29.0988959508       -6.3375097682  MEMB      136             0.0000000000
     15644       136  SAPC      H12Y           -0.6409008135       28.1223655409       -6.9710874119  MEMB      136             0.0000000000
     15645       136  SAPC      C313           -0.8246955963       28.6261845610       -4.8505860585  MEMB      136             0.0000000000
     15646       136  SAPC      H13X           -0.5783634497       27.5857151385       -4.5844454101  MEMB      136             0.0000000000
     15647       136  SAPC      H13Y           -1.9314204709       28.7282016019       -4.9282266701  MEMB      136             0.0000000000
     15648       136  SAPC      C314           -0.2835660133       29.5762296911       -3.7898445787  MEMB      136             0.0000000000
     15649       136  SAPC      H14X            0.2852659591       30.3994598542       -4.2400421417  MEMB      136             0.0000000000
     15650       136  SAPC      H14Y            0.5001553503       29.1055717195       -3.1697116652  MEMB      136             0.0000000000
     15651       136  SAPC      C315           -1.3311158333       30.1108907264       -2.8514232667  MEMB      136             0.0000000000
     15652       136  SAPC      H15X           -2.0486785669       29.3442193011       -2.4827440631  MEMB      136             0.0000000000
     15653       136  SAPC      H15Y           -1.9149721792       30.9392200007       -3.2697906994  MEMB      136             0.0000000000
     15654       136  SAPC      C316           -0.5901756877       30.6826408086       -1.7079633481  MEMB      136             0.0000000000
     15655       136  SAPC      H16X            0.4169412881       31.0970397963       -1.8399902722  MEMB      136             0.0000000000
     15656       136  SAPC      H16Y           -0.4867771661       29.9417047431       -0.9149731927  MEMB      136             0.0000000000
     15657       136  SAPC      C317           -1.4163916368       31.6566402846       -1.1266570426  MEMB      136             0.0000000000
     15658       136  SAPC      H17X           -2.2754587889       31.1480898815       -0.5923045498  MEMB      136             0.0000000000
     15659       136  SAPC      H17Y           -1.4542379639       32.7530559123       -1.4400081001  MEMB      136             0.0000000000
     15660       136  SAPC      C318           -1.0027846843       31.6685489363        0.0894407196  MEMB      136             0.0000000000
     15661       136  SAPC      H18X            0.0972594721       31.8953330616        0.1424155704  MEMB      136             0.0000000000
     15662       136  SAPC      H18Y           -1.2434948802       30.8893490503        0.8708882531  MEMB      136             0.0000000000
     15663       136  SAPC      H18Z           -1.7043178081       32.5530198608        0.3794994189  MEMB      136             0.0000000000
     15664       137  SAPS      N             -20.7347486422       13.4080870830      -20.6183159926  MEMB      137             0.0000000000
     15665       137  SAPS      HN1           -20.3399383352       12.6974030578      -21.2659401353  MEMB      137             0.0000000000
     15666       137  SAPS      HN2           -20.2601191010       14.3169505294      -20.7764077688  MEMB      137             0.0000000000
     15667       137  SAPS      HN3           -20.7197095121       13.0897589648      -19.6288446302  MEMB      137             0.0000000000
     15668       137  SAPS      C12           -22.1728784725       13.5020759448      -21.0083135539  MEMB      137             0.0000000000
     15669       137  SAPS      H12A          -22.5397736347       14.4687209163      -20.6882902244  MEMB      137             0.0000000000
     15670       137  SAPS      C13           -22.3611108703       13.4608907908      -22.5440921415  MEMB      137             0.0000000000
     15671       137  SAPS      O13A          -21.3193587109       13.4553760439      -23.2592893425  MEMB      137             0.0000000000
     15672       137  SAPS      O13B          -23.5333025726       13.4110186871      -23.0072362717  MEMB      137             0.0000000000
     15673       137  SAPS      C11           -22.9999255061       12.4151321371      -20.2529098124  MEMB      137             0.0000000000
     15674       137  SAPS      H11A          -22.8271055948       11.3743522978      -20.5920531927  MEMB      137             0.0000000000
     15675       137  SAPS      H11B          -24.0547223667       12.6556349338      -20.5007337681  MEMB      137             0.0000000000
     15676       137  SAPS      P             -23.7654728008       11.7758746784      -17.8494632517  MEMB      137             0.0000000000
     15677       137  SAPS      O13           -23.8464401313       10.3363266721      -18.1610226504  MEMB      137             0.0000000000
     15678       137  SAPS      O14           -23.4424859037       12.2088093138      -16.4727664667  MEMB      137             0.0000000000
     15679       137  SAPS      O12           -22.7536092706       12.4908809800      -18.8471048110  MEMB      137             0.0000000000
     15680       137  SAPS      O11           -25.1165170808       12.3671225826      -18.3695003351  MEMB      137             0.0000000000
     15681       137  SAPS      C1            -26.3459882792       11.9153162835      -17.7994833966  MEMB      137             0.0000000000
     15682       137  SAPS      HA            -26.9809435510       11.4077629585      -18.5508929697  MEMB      137             0.0000000000
     15683       137  SAPS      HB            -26.2531300667       11.3476032693      -16.8642390524  MEMB      137             0.0000000000
     15684       137  SAPS      C2            -27.0022900413       13.0992185683      -17.2080099727  MEMB      137             0.0000000000
     15685       137  SAPS      HS            -27.4110503149       13.5073253055      -18.1943643370  MEMB      137             0.0000000000
     15686       137  SAPS      O21           -25.8389642488       13.6884455275      -16.4223983022  MEMB      137             0.0000000000
     15687       137  SAPS      C21           -25.8866667614       14.9333109571      -16.7259764550  MEMB      137             0.0000000000
     15688       137  SAPS      O22           -26.8929629988       15.2638039874      -17.3577813595  MEMB      137             0.0000000000
     15689       137  SAPS      C22           -24.8135279960       15.8756653825      -15.8485615159  MEMB      137             0.0000000000
     15690       137  SAPS      H2R           -23.8255895984       15.8310961403      -16.2714475991  MEMB      137             0.0000000000
     15691       137  SAPS      H2S           -25.1005622699       16.9589381501      -15.8602770036  MEMB      137             0.0000000000
     15692       137  SAPS      C3            -28.2540436879       12.8521507597      -16.3406807345  MEMB      137             0.0000000000
     15693       137  SAPS      HX            -28.6674267620       11.8634651877      -16.6510184887  MEMB      137             0.0000000000
     15694       137  SAPS      HY            -29.0550987851       13.6136441262      -16.4090533573  MEMB      137             0.0000000000
     15695       137  SAPS      O31           -27.7969940782       12.9970074873      -15.0225096917  MEMB      137             0.0000000000
     15696       137  SAPS      C31           -27.8042709576       12.0072485758      -14.2989046885  MEMB      137             0.0000000000
     15697       137  SAPS      O32           -28.5698189319       11.0421296645      -14.3980025583  MEMB      137             0.0000000000
     15698       137  SAPS      C32           -26.5356360113       12.3497501029      -13.3288624656  MEMB      137             0.0000000000
     15699       137  SAPS      H2X           -27.2670103981       12.7383191588      -12.5863662258  MEMB      137             0.0000000000
     15700       137  SAPS      H2Y           -26.0352750836       13.2414586438      -13.6053304669  MEMB      137             0.0000000000
     15701       137  SAPS      C23           -24.5092674014       15.4792683102      -14.3181428833  MEMB      137             0.0000000000
     15702       137  SAPS      H3R           -24.1069683989       14.4918172672      -14.1381937352  MEMB      137             0.0000000000
     15703       137  SAPS      H3S           -25.3895377382       14.9871446445      -14.0249939029  MEMB      137             0.0000000000
     15704       137  SAPS      C24           -24.5062998510       16.4271058575      -13.0958950415  MEMB      137             0.0000000000
     15705       137  SAPS      H4R           -24.4841555162       15.9258185502      -12.1170764841  MEMB      137             0.0000000000
     15706       137  SAPS      H4S           -25.1012787290       17.3066477086      -12.9603411129  MEMB      137             0.0000000000
     15707       137  SAPS      C25           -23.3468572432       16.9893590077      -12.9893083000  MEMB      137             0.0000000000
     15708       137  SAPS      H5R           -23.3092312633       17.8399550684      -13.6649657438  MEMB      137             0.0000000000
     15709       137  SAPS      C26           -22.3661296016       16.2685508102      -12.5512058522  MEMB      137             0.0000000000
     15710       137  SAPS      H6R           -21.6889488457       16.9378825682      -12.2645758473  MEMB      137             0.0000000000
     15711       137  SAPS      C27           -22.0425257416       14.9346032161      -12.0750826746  MEMB      137             0.0000000000
     15712       137  SAPS      H7R           -21.1886376422       14.5398170330      -12.6951785664  MEMB      137             0.0000000000
     15713       137  SAPS      H7S           -22.9175836245       14.3365699614      -12.0702485216  MEMB      137             0.0000000000
     15714       137  SAPS      C28           -21.5613098604       15.1245914411      -10.7045466020  MEMB      137             0.0000000000
     15715       137  SAPS      H8R           -20.4827987498       15.0049117771      -10.8105777719  MEMB      137             0.0000000000
     15716       137  SAPS      C29           -22.0849238822       15.6966310705       -9.5652114014  MEMB      137             0.0000000000
     15717       137  SAPS      H9R           -21.4203840416       15.8905333287       -8.7050722043  MEMB      137             0.0000000000
     15718       137  SAPS      C210          -23.3805578321       16.3434692653       -9.2973264212  MEMB      137             0.0000000000
     15719       137  SAPS      H10R          -23.7500077025       16.8993105792      -10.1810969919  MEMB      137             0.0000000000
     15720       137  SAPS      H10S          -23.3786288796       17.0308422994       -8.4118818199  MEMB      137             0.0000000000
     15721       137  SAPS      C211          -23.9649785803       14.9791064396       -9.0943580788  MEMB      137             0.0000000000
     15722       137  SAPS      H11R          -23.8710344885       14.2965670069       -9.9607497105  MEMB      137             0.0000000000
     15723       137  SAPS      C212          -24.6997482893       14.5908238663       -8.0815785711  MEMB      137             0.0000000000
     15724       137  SAPS      H12R          -25.1708506346       13.6018246777       -8.2097975690  MEMB      137             0.0000000000
     15725       137  SAPS      C213          -25.0363513436       15.5629889620       -6.9735181876  MEMB      137             0.0000000000
     15726       137  SAPS      H13R          -25.3769838406       16.5300140857       -7.4129256957  MEMB      137             0.0000000000
     15727       137  SAPS      H13S          -24.2748230894       15.6913552973       -6.2155330827  MEMB      137             0.0000000000
     15728       137  SAPS      C214          -26.2058300500       15.1794894770       -6.2481443348  MEMB      137             0.0000000000
     15729       137  SAPS      H14R          -26.8969766691       15.3535992226       -7.0491360417  MEMB      137             0.0000000000
     15730       137  SAPS      C215          -26.5111620602       14.6832073910       -5.0349144271  MEMB      137             0.0000000000
     15731       137  SAPS      H15R          -27.4945466670       14.2622249685       -4.7644245081  MEMB      137             0.0000000000
     15732       137  SAPS      C216          -25.4936932560       14.3974870655       -4.0336849099  MEMB      137             0.0000000000
     15733       137  SAPS      H16R          -25.0616331605       15.3862230824       -3.8569409233  MEMB      137             0.0000000000
     15734       137  SAPS      H16S          -24.7662021406       13.6677877936       -4.4445181924  MEMB      137             0.0000000000
     15735       137  SAPS      C217          -26.0792937742       13.8322478487       -2.7571627540  MEMB      137             0.0000000000
     15736       137  SAPS      H17R          -25.3059260503       13.5307777010       -2.0257710502  MEMB      137             0.0000000000
     15737       137  SAPS      H17S          -26.4977145663       12.9041917075       -3.1329346578  MEMB      137             0.0000000000
     15738       137  SAPS      C218          -27.1109422522       14.7132070406       -2.0649314107  MEMB      137             0.0000000000
     15739       137  SAPS      H18R          -27.7074720228       14.1697646252       -1.3056871170  MEMB      137             0.0000000000
     15740       137  SAPS      H18S          -27.7765734323       15.2656813063       -2.7739686083  MEMB      137             0.0000000000
     15741       137  SAPS      C219          -26.4037157690       15.7140345377       -1.2602684217  MEMB      137             0.0000000000
     15742       137  SAPS      H19R          -25.8009021371       16.2082715250       -2.0376448500  MEMB      137             0.0000000000
     15743       137  SAPS      H19S          -25.6791896102       15.2928818938       -0.5227275092  MEMB      137             0.0000000000
     15744       137  SAPS      C220          -27.3787160784       16.6311535381       -0.5607159573  MEMB      137             0.0000000000
     15745       137  SAPS      H20R          -27.8104486747       17.4047621310       -1.2298626175  MEMB      137             0.0000000000
     15746       137  SAPS      H20S          -26.8075801639       17.1690751746        0.1874103919  MEMB      137             0.0000000000
     15747       137  SAPS      H20T          -28.1664441839       16.0598192427       -0.0399123882  MEMB      137             0.0000000000
     15748       137  SAPS      C33           -25.2288463457       11.4794190060      -12.7617031672  MEMB      137             0.0000000000
     15749       137  SAPS      H3X           -25.0258557826       10.5525724957      -13.2147623211  MEMB      137             0.0000000000
     15750       137  SAPS      H3Y           -25.4775263264       10.8957069588      -11.9073756582  MEMB      137             0.0000000000
     15751       137  SAPS      C34           -24.3137160270       11.8314101441      -11.5418936785  MEMB      137             0.0000000000
     15752       137  SAPS      H4X           -24.9365714881       12.1771622571      -10.6862837909  MEMB      137             0.0000000000
     15753       137  SAPS      H4Y           -23.9717744730       12.7613976132      -11.9272085493  MEMB      137             0.0000000000
     15754       137  SAPS      C35           -23.0213932610       10.9721047979      -11.1584626780  MEMB      137             0.0000000000
     15755       137  SAPS      H5X           -22.5000933557       11.1456236664      -12.0974710905  MEMB      137             0.0000000000
     15756       137  SAPS      H5Y           -22.6042879079        9.9396899657      -11.3923673580  MEMB      137             0.0000000000
     15757       137  SAPS      C36           -22.7103765891       11.0172665811       -9.6332960994  MEMB      137             0.0000000000
     15758       137  SAPS      H6X           -23.5725737401       11.4736276857       -9.0673233982  MEMB      137             0.0000000000
     15759       137  SAPS      H6Y           -21.8382695351       11.6329147150       -9.7668755159  MEMB      137             0.0000000000
     15760       137  SAPS      C37           -22.2181556348        9.8132046260       -8.7336739489  MEMB      137             0.0000000000
     15761       137  SAPS      H7X           -21.7122244796        8.9888261555       -9.3088518321  MEMB      137             0.0000000000
     15762       137  SAPS      H7Y           -23.1463171995        9.5064454833       -8.2423477158  MEMB      137             0.0000000000
     15763       137  SAPS      C38           -21.5370936563        9.7768121287       -7.4525381465  MEMB      137             0.0000000000
     15764       137  SAPS      H8X           -21.4347911095        8.6939880103       -7.1607651249  MEMB      137             0.0000000000
     15765       137  SAPS      H8Y           -22.1884365201       10.3041824819       -6.7124596917  MEMB      137             0.0000000000
     15766       137  SAPS      C39           -20.2323202301       10.2979293195       -7.8846499801  MEMB      137             0.0000000000
     15767       137  SAPS      H9X           -20.1090507427       10.3726515643       -9.0013294345  MEMB      137             0.0000000000
     15768       137  SAPS      H9Y           -19.5040864410        9.5891467825       -7.4673897558  MEMB      137             0.0000000000
     15769       137  SAPS      C310          -20.1324785260       11.6121535239       -7.2476442320  MEMB      137             0.0000000000
     15770       137  SAPS      H10X          -19.0948224579       11.9724983175       -7.3342457830  MEMB      137             0.0000000000
     15771       137  SAPS      H10Y          -20.3315656287       11.4065797962       -6.1660500710  MEMB      137             0.0000000000
     15772       137  SAPS      C311          -21.1265836004       12.6341450937       -7.7894645885  MEMB      137             0.0000000000
     15773       137  SAPS      H11X          -22.1924476767       12.3667366234       -7.8616233936  MEMB      137             0.0000000000
     15774       137  SAPS      H11Y          -20.7745374986       13.1242017166       -8.7320366759  MEMB      137             0.0000000000
     15775       137  SAPS      C312          -21.2892112568       13.6059889326       -6.7333958074  MEMB      137             0.0000000000
     15776       137  SAPS      H12X          -21.6290917037       14.5520717218       -7.2065650390  MEMB      137             0.0000000000
     15777       137  SAPS      H12Y          -20.2042846890       13.5910614197       -6.4751010849  MEMB      137             0.0000000000
     15778       137  SAPS      C313          -22.0871135935       13.1628017863       -5.4878170500  MEMB      137             0.0000000000
     15779       137  SAPS      H13X          -21.3807145311       12.5526304763       -4.8616679253  MEMB      137             0.0000000000
     15780       137  SAPS      H13Y          -23.0698227786       12.7614251621       -5.7252469883  MEMB      137             0.0000000000
     15781       137  SAPS      C314          -22.4247133895       14.2180192984       -4.4770654197  MEMB      137             0.0000000000
     15782       137  SAPS      H14X          -23.1098346787       15.0506327083       -4.7523233332  MEMB      137             0.0000000000
     15783       137  SAPS      H14Y          -21.4835212737       14.5358470660       -4.8447371457  MEMB      137             0.0000000000
     15784       137  SAPS      C315          -22.1648677553       13.8408071340       -2.9826705563  MEMB      137             0.0000000000
     15785       137  SAPS      H15X          -21.1440831991       13.5132001878       -2.7747341790  MEMB      137             0.0000000000
     15786       137  SAPS      H15Y          -23.0801725347       13.3060737657       -2.6396633434  MEMB      137             0.0000000000
     15787       137  SAPS      C316          -22.1993959162       14.9278368299       -1.9801701300  MEMB      137             0.0000000000
     15788       137  SAPS      H16X          -23.1836060195       15.2348387975       -2.4247662186  MEMB      137             0.0000000000
     15789       137  SAPS      H16Y          -21.4082110194       15.6282835688       -2.1782115042  MEMB      137             0.0000000000
     15790       137  SAPS      C317          -21.5417310310       15.3411197092       -0.5924342760  MEMB      137             0.0000000000
     15791       137  SAPS      H17X          -21.4090927791       14.3337725055       -0.2264568156  MEMB      137             0.0000000000
     15792       137  SAPS      H17Y          -22.3116325745       15.8369241460        0.0646251120  MEMB      137             0.0000000000
     15793       137  SAPS      C318          -20.2867321334       16.3859899527       -0.5162253502  MEMB      137             0.0000000000
     15794       137  SAPS      H18X          -19.8064882112       16.5138158378        0.4652159662  MEMB      137             0.0000000000
     15795       137  SAPS      H18Y          -20.4644300545       17.4789025235       -0.7093185657  MEMB      137             0.0000000000
     15796       137  SAPS      H18Z          -19.5665713934       16.1835499055       -1.3197859664  MEMB      137             0.0000000000
     15797       138  CHL1      C3             22.5659247346      -13.1038646327      -17.3458014004  MEMB      138             0.0000000000
     15798       138  CHL1      H3             21.4992743104      -12.8837854242      -17.1358057205  MEMB      138             0.0000000000
     15799       138  CHL1      O3             22.8758103771      -13.0540636060      -18.7303476307  MEMB      138             0.0000000000
     15800       138  CHL1      H3'            23.8247118416      -12.8552671165      -18.7679345523  MEMB      138             0.0000000000
     15801       138  CHL1      C4             23.2973229766      -12.0205306660      -16.6730891723  MEMB      138             0.0000000000
     15802       138  CHL1      H4A            24.2763497698      -12.4129144726      -16.9069801955  MEMB      138             0.0000000000
     15803       138  CHL1      H4B            23.1267440615      -11.0644893589      -17.2292775754  MEMB      138             0.0000000000
     15804       138  CHL1      C5             23.1769228587      -11.9363985728      -15.1686013702  MEMB      138             0.0000000000
     15805       138  CHL1      C6             22.7267477107      -10.8076991770      -14.5778232776  MEMB      138             0.0000000000
     15806       138  CHL1      H6             22.5405102856       -9.9077718207      -15.1768913024  MEMB      138             0.0000000000
     15807       138  CHL1      C7             22.6423721748      -10.5382522741      -13.1316157890  MEMB      138             0.0000000000
     15808       138  CHL1      H7A            23.1180267490       -9.5653091973      -12.8475787133  MEMB      138             0.0000000000
     15809       138  CHL1      H7B            21.5548620479      -10.4482158043      -12.9659385079  MEMB      138             0.0000000000
     15810       138  CHL1      C8             23.2310589830      -11.7240598563      -12.3393234152  MEMB      138             0.0000000000
     15811       138  CHL1      H8             24.3314427975      -11.5786882477      -12.2491052463  MEMB      138             0.0000000000
     15812       138  CHL1      C14            22.5538032323      -11.7238165543      -10.9839508427  MEMB      138             0.0000000000
     15813       138  CHL1      H14            21.4617567953      -11.8002840539      -11.2277948380  MEMB      138             0.0000000000
     15814       138  CHL1      C15            22.6589990575      -10.4695112779      -10.1107310886  MEMB      138             0.0000000000
     15815       138  CHL1      H15A           23.6749515295      -10.0292855839      -10.1916472198  MEMB      138             0.0000000000
     15816       138  CHL1      H15B           21.8819417642       -9.7535175157      -10.4576926967  MEMB      138             0.0000000000
     15817       138  CHL1      C16            22.4664302193      -11.0119136230       -8.6808111592  MEMB      138             0.0000000000
     15818       138  CHL1      H16A           23.3272260102      -10.7499362681       -8.0376378537  MEMB      138             0.0000000000
     15819       138  CHL1      H16B           21.6030214687      -10.6171114065       -8.1860250301  MEMB      138             0.0000000000
     15820       138  CHL1      C17            22.2370107961      -12.5518248230       -8.7673845271  MEMB      138             0.0000000000
     15821       138  CHL1      H17            21.1363862278      -12.6907830014       -8.8855777288  MEMB      138             0.0000000000
     15822       138  CHL1      C13            22.9167205581      -12.8903085990      -10.0813900542  MEMB      138             0.0000000000
     15823       138  CHL1      C18            24.4307039172      -12.8324104959       -9.7597849753  MEMB      138             0.0000000000
     15824       138  CHL1      H18A           24.6781220271      -13.6308843320       -9.0383259418  MEMB      138             0.0000000000
     15825       138  CHL1      H18B           25.0790242899      -12.9686765083      -10.6409444532  MEMB      138             0.0000000000
     15826       138  CHL1      H18C           24.7031405616      -11.8621852614       -9.2953581591  MEMB      138             0.0000000000
     15827       138  CHL1      C12            22.4352717430      -14.1669351888      -10.7672066605  MEMB      138             0.0000000000
     15828       138  CHL1      H12A           22.6104556324      -15.0288258936      -10.1033970044  MEMB      138             0.0000000000
     15829       138  CHL1      H12B           21.3355943771      -14.1156920183      -10.9447357616  MEMB      138             0.0000000000
     15830       138  CHL1      C11            23.1177971514      -14.3233191444      -12.1313340319  MEMB      138             0.0000000000
     15831       138  CHL1      H11A           24.1869208920      -14.5749208441      -11.9818511093  MEMB      138             0.0000000000
     15832       138  CHL1      H11B           22.5994022345      -15.1500837534      -12.6578775290  MEMB      138             0.0000000000
     15833       138  CHL1      C9             22.9459989369      -13.0789537124      -13.0382995984  MEMB      138             0.0000000000
     15834       138  CHL1      H9             21.8450442410      -13.0781266429      -13.2419595476  MEMB      138             0.0000000000
     15835       138  CHL1      C10            23.5673083880      -13.2219518360      -14.4385416779  MEMB      138             0.0000000000
     15836       138  CHL1      C19            25.0971347290      -13.4370361577      -14.3074255815  MEMB      138             0.0000000000
     15837       138  CHL1      H19A           25.5505005433      -13.4269981436      -15.3168673690  MEMB      138             0.0000000000
     15838       138  CHL1      H19B           25.5593110481      -12.6339572477      -13.6995866139  MEMB      138             0.0000000000
     15839       138  CHL1      H19C           25.3490640116      -14.4020980446      -13.8216947975  MEMB      138             0.0000000000
     15840       138  CHL1      C1             22.9360454321      -14.4150224828      -15.2229300368  MEMB      138             0.0000000000
     15841       138  CHL1      H1A            23.3096603893      -15.3767046326      -14.8184672713  MEMB      138             0.0000000000
     15842       138  CHL1      H1B            21.8452111757      -14.3522161668      -15.0324542028  MEMB      138             0.0000000000
     15843       138  CHL1      C2             23.1002892897      -14.4094975640      -16.7557787318  MEMB      138             0.0000000000
     15844       138  CHL1      H2A            22.4784864768      -15.1881274515      -17.2303556268  MEMB      138             0.0000000000
     15845       138  CHL1      H2B            24.1678676961      -14.5981891544      -17.0271430265  MEMB      138             0.0000000000
     15846       138  CHL1      C20            22.6339280481      -13.3111711896       -7.4872791463  MEMB      138             0.0000000000
     15847       138  CHL1      H20            23.6931070735      -13.0768019569       -7.2170670858  MEMB      138             0.0000000000
     15848       138  CHL1      C21            22.4911835407      -14.8592288572       -7.5162766017  MEMB      138             0.0000000000
     15849       138  CHL1      H21A           23.3508199523      -15.3894239121       -7.9672041891  MEMB      138             0.0000000000
     15850       138  CHL1      H21B           21.6008530289      -15.1478420905       -8.0833628562  MEMB      138             0.0000000000
     15851       138  CHL1      H21C           22.3868454488      -15.2647363660       -6.4871067849  MEMB      138             0.0000000000
     15852       138  CHL1      C22            21.8358922827      -12.7703505942       -6.3186469156  MEMB      138             0.0000000000
     15853       138  CHL1      H22A           21.7889833381      -11.6728532429       -6.3226304385  MEMB      138             0.0000000000
     15854       138  CHL1      H22B           20.8507114428      -13.2635341019       -6.1402947434  MEMB      138             0.0000000000
     15855       138  CHL1      C23            22.6633244983      -12.8674352075       -5.1254565664  MEMB      138             0.0000000000
     15856       138  CHL1      H23A           22.9659619691      -13.9413956743       -5.1746213495  MEMB      138             0.0000000000
     15857       138  CHL1      H23B           23.5423641971      -12.1672245679       -5.1884391466  MEMB      138             0.0000000000
     15858       138  CHL1      C24            21.8869170422      -12.3839873870       -3.9212524218  MEMB      138             0.0000000000
     15859       138  CHL1      H24A           21.7048685021      -11.3305227528       -4.0788036440  MEMB      138             0.0000000000
     15860       138  CHL1      H24B           21.0336183743      -13.0562429103       -3.6105032040  MEMB      138             0.0000000000
     15861       138  CHL1      C25            22.6591167723      -12.1333011131       -2.7268661265  MEMB      138             0.0000000000
     15862       138  CHL1      H25            23.4133531284      -11.3260250435       -2.7790842520  MEMB      138             0.0000000000
     15863       138  CHL1      C26            21.6437341923      -11.8728461966       -1.4951534319  MEMB      138             0.0000000000
     15864       138  CHL1      H26A           21.2452541252      -10.8790505910       -1.2976756714  MEMB      138             0.0000000000
     15865       138  CHL1      H26B           20.9520294574      -12.7055041483       -1.2204163000  MEMB      138             0.0000000000
     15866       138  CHL1      H26C           22.1295984966      -11.7537234627       -0.5372307359  MEMB      138             0.0000000000
     15867       138  CHL1      C27            23.2766331675      -13.4899472536       -3.0100148911  MEMB      138             0.0000000000
     15868       138  CHL1      H27A           22.6035509091      -14.2731501869       -2.7248051205  MEMB      138             0.0000000000
     15869       138  CHL1      H27B           24.0168431242      -14.1839825790       -3.4729902093  MEMB      138             0.0000000000
     15870       138  CHL1      H27C           24.2721831330      -13.2621786241       -3.5539209132  MEMB      138             0.0000000000
     15871       139  SOPE      N               3.5017549675      -29.3436349742      -21.6441975465  MEMB      139             0.0000000000
     15872       139  SOPE      HN1             3.5260948516      -30.2277141781      -21.0960730222  MEMB      139             0.0000000000
     15873       139  SOPE      HN2             2.8326110840      -28.6757904331      -21.1915561893  MEMB      139             0.0000000000
     15874       139  SOPE      HN3             3.1317662280      -29.6019920503      -22.5783901036  MEMB      139             0.0000000000
     15875       139  SOPE      C12             4.8566899040      -28.6579894067      -21.6887004123  MEMB      139             0.0000000000
     15876       139  SOPE      H12A            5.1243032945      -28.4995339936      -22.7518924249  MEMB      139             0.0000000000
     15877       139  SOPE      H12B            5.5853693007      -29.3417079934      -21.2087742433  MEMB      139             0.0000000000
     15878       139  SOPE      C11             4.8522512504      -27.2897713335      -20.9743939271  MEMB      139             0.0000000000
     15879       139  SOPE      H11A            5.8520143345      -26.8034158057      -21.0035742215  MEMB      139             0.0000000000
     15880       139  SOPE      H11B            4.6198419012      -27.4899491327      -19.8954555361  MEMB      139             0.0000000000
     15881       139  SOPE      P               2.7665805016      -25.7308834903      -20.7959787033  MEMB      139             0.0000000000
     15882       139  SOPE      O13             1.9304989057      -26.8901169745      -20.4106319445  MEMB      139             0.0000000000
     15883       139  SOPE      O14             2.1733884462      -24.6389928208      -21.5833643642  MEMB      139             0.0000000000
     15884       139  SOPE      O12             3.9538425203      -26.3877117284      -21.6218214187  MEMB      139             0.0000000000
     15885       139  SOPE      O11             3.4845281540      -25.1651037289      -19.5183055396  MEMB      139             0.0000000000
     15886       139  SOPE      C1              4.5180428769      -24.2007381857      -19.6727956564  MEMB      139             0.0000000000
     15887       139  SOPE      HA              4.1179741864      -23.2864450292      -20.1748689278  MEMB      139             0.0000000000
     15888       139  SOPE      HB              5.3398644539      -24.6309445259      -20.2693587403  MEMB      139             0.0000000000
     15889       139  SOPE      C2              5.0680690356      -23.7131013450      -18.3147351058  MEMB      139             0.0000000000
     15890       139  SOPE      HS              5.8773999897      -22.9543294384      -18.4702476017  MEMB      139             0.0000000000
     15891       139  SOPE      O21             5.5815277325      -24.7579791290      -17.4728384506  MEMB      139             0.0000000000
     15892       139  SOPE      C21             6.7003391627      -25.2674645561      -17.9449075357  MEMB      139             0.0000000000
     15893       139  SOPE      O22             7.3714413501      -24.8088329877      -18.8547628401  MEMB      139             0.0000000000
     15894       139  SOPE      C22             7.0006271172      -26.5772795115      -17.2604083037  MEMB      139             0.0000000000
     15895       139  SOPE      H2R             7.6490969160      -26.4536816411      -16.3827874285  MEMB      139             0.0000000000
     15896       139  SOPE      H2S             7.5253506500      -27.2792540116      -17.9350829410  MEMB      139             0.0000000000
     15897       139  SOPE      C3              3.9312117233      -22.9884032561      -17.5928564129  MEMB      139             0.0000000000
     15898       139  SOPE      HX              3.5067381285      -22.1439668744      -18.2066920597  MEMB      139             0.0000000000
     15899       139  SOPE      HY              4.5227190891      -22.4092502422      -16.9542031992  MEMB      139             0.0000000000
     15900       139  SOPE      O31             2.9933114903      -23.9027072903      -16.9243796499  MEMB      139             0.0000000000
     15901       139  SOPE      C31             3.2081969330      -24.4652567591      -15.6673974531  MEMB      139             0.0000000000
     15902       139  SOPE      O32             3.9919340801      -24.0466049053      -14.8552743451  MEMB      139             0.0000000000
     15903       139  SOPE      C32             2.0566732625      -25.5474039174      -15.2712458602  MEMB      139             0.0000000000
     15904       139  SOPE      H2X             2.0270378380      -26.4753497537      -15.7660118693  MEMB      139             0.0000000000
     15905       139  SOPE      H2Y             1.4012811016      -25.2590062749      -16.1194037987  MEMB      139             0.0000000000
     15906       139  SOPE      C23             5.7050459890      -27.1442181469      -16.7637693935  MEMB      139             0.0000000000
     15907       139  SOPE      H3R             5.0577935724      -27.5527884560      -17.5844476738  MEMB      139             0.0000000000
     15908       139  SOPE      H3S             5.1085206639      -26.4637133376      -16.1140993674  MEMB      139             0.0000000000
     15909       139  SOPE      C24             6.0563042473      -28.2368280262      -15.8472477848  MEMB      139             0.0000000000
     15910       139  SOPE      H4R             6.4823671118      -28.9990114742      -16.5018058196  MEMB      139             0.0000000000
     15911       139  SOPE      H4S             6.5360111033      -28.0878442928      -14.8546030528  MEMB      139             0.0000000000
     15912       139  SOPE      C25             4.9990700563      -28.8792252299      -15.2819955369  MEMB      139             0.0000000000
     15913       139  SOPE      H5R             4.2827254034      -28.2842798674      -15.8565638787  MEMB      139             0.0000000000
     15914       139  SOPE      H5S             4.9543937548      -29.9202797439      -15.7269907546  MEMB      139             0.0000000000
     15915       139  SOPE      C26             4.6829115144      -28.4383715435      -13.8181093984  MEMB      139             0.0000000000
     15916       139  SOPE      H6R             4.4494445822      -27.3876557291      -13.7277645405  MEMB      139             0.0000000000
     15917       139  SOPE      H6S             3.6719615389      -28.5748460753      -13.5371100094  MEMB      139             0.0000000000
     15918       139  SOPE      C27             5.3000874948      -29.1430353521      -12.6391741020  MEMB      139             0.0000000000
     15919       139  SOPE      H7R             5.1862209561      -30.2476880500      -12.9238849028  MEMB      139             0.0000000000
     15920       139  SOPE      H7S             6.3322556744      -28.8475548921      -12.6010393136  MEMB      139             0.0000000000
     15921       139  SOPE      C28             4.8104561285      -28.6163468669      -11.2325811018  MEMB      139             0.0000000000
     15922       139  SOPE      H8R             4.3883165470      -27.6837791179      -10.8166113614  MEMB      139             0.0000000000
     15923       139  SOPE      H8S             3.7469394424      -28.2813923852      -11.5036844634  MEMB      139             0.0000000000
     15924       139  SOPE      C29             5.1964163957      -29.6742739951      -10.1393089699  MEMB      139             0.0000000000
     15925       139  SOPE      H91             5.3499160386      -30.7277870479      -10.4828022344  MEMB      139             0.0000000000
     15926       139  SOPE      C210            4.7949281355      -29.6716331991       -8.8491285546  MEMB      139             0.0000000000
     15927       139  SOPE      H101            5.0874619642      -30.5508533745       -8.2220289909  MEMB      139             0.0000000000
     15928       139  SOPE      C211            3.8702488004      -28.6143554945       -8.2160205177  MEMB      139             0.0000000000
     15929       139  SOPE      H11R            3.1694432101      -27.9763152863       -8.8052932100  MEMB      139             0.0000000000
     15930       139  SOPE      H11S            4.5291877888      -27.8740296347       -7.7689433968  MEMB      139             0.0000000000
     15931       139  SOPE      C212            2.7118444964      -29.0676777286       -7.3511761833  MEMB      139             0.0000000000
     15932       139  SOPE      H12R            2.2578460655      -30.1059019597       -7.5149061492  MEMB      139             0.0000000000
     15933       139  SOPE      H12S            1.9330815171      -28.3299762366       -7.0915323006  MEMB      139             0.0000000000
     15934       139  SOPE      C213            3.2104100640      -29.3426986547       -6.1677367428  MEMB      139             0.0000000000
     15935       139  SOPE      H13R            3.9983849856      -30.0448477487       -6.5622352023  MEMB      139             0.0000000000
     15936       139  SOPE      H13S            2.3361621285      -29.8310527545       -5.6948235765  MEMB      139             0.0000000000
     15937       139  SOPE      C214            3.5356456664      -28.1490373681       -5.3855734195  MEMB      139             0.0000000000
     15938       139  SOPE      H14R            4.1248531320      -27.4465178613       -5.9461262824  MEMB      139             0.0000000000
     15939       139  SOPE      H14S            4.3776655654      -28.1786667039       -4.7568835615  MEMB      139             0.0000000000
     15940       139  SOPE      C215            2.5753753598      -28.1658840136       -4.2191039707  MEMB      139             0.0000000000
     15941       139  SOPE      H15R            2.2069443071      -29.1802945158       -3.9877660249  MEMB      139             0.0000000000
     15942       139  SOPE      H15S            1.7977209868      -27.6314280517       -4.7506545679  MEMB      139             0.0000000000
     15943       139  SOPE      C216            3.1001355189      -27.6612984134       -2.8659111842  MEMB      139             0.0000000000
     15944       139  SOPE      H16R            2.2442582331      -27.2220340296       -2.3486090442  MEMB      139             0.0000000000
     15945       139  SOPE      H16S            3.7270953486      -26.8174600064       -3.2353584403  MEMB      139             0.0000000000
     15946       139  SOPE      C217            3.8381359619      -28.6830405524       -1.8902745450  MEMB      139             0.0000000000
     15947       139  SOPE      H17R            4.8512456384      -28.3575013120       -1.5523425530  MEMB      139             0.0000000000
     15948       139  SOPE      H17S            3.9650821542      -29.6936234421       -2.2943402411  MEMB      139             0.0000000000
     15949       139  SOPE      C218            3.3825141480      -29.0089305027       -0.5182580146  MEMB      139             0.0000000000
     15950       139  SOPE      H18R            2.3240361018      -29.2910689880       -0.6009748414  MEMB      139             0.0000000000
     15951       139  SOPE      H18S            3.6149510906      -28.1316292331        0.1228740430  MEMB      139             0.0000000000
     15952       139  SOPE      H18T            4.0183604428      -29.8876137788       -0.2129918608  MEMB      139             0.0000000000
     15953       139  SOPE      C33             1.3152934292      -25.7649331698      -13.7980192755  MEMB      139             0.0000000000
     15954       139  SOPE      H3X             0.2074636349      -25.8623355981      -13.7734923347  MEMB      139             0.0000000000
     15955       139  SOPE      H3Y             1.2162646315      -25.0432057035      -12.9835284931  MEMB      139             0.0000000000
     15956       139  SOPE      C34             2.1617473388      -26.4145102053      -12.7965030139  MEMB      139             0.0000000000
     15957       139  SOPE      H4X             3.1704645973      -25.9695401539      -13.0171004482  MEMB      139             0.0000000000
     15958       139  SOPE      H4Y             1.9525236843      -27.3932598507      -13.2476154341  MEMB      139             0.0000000000
     15959       139  SOPE      C35             1.7828955221      -26.1282830635      -11.3077570728  MEMB      139             0.0000000000
     15960       139  SOPE      H5X             2.4794880982      -25.3662232340      -10.8954120972  MEMB      139             0.0000000000
     15961       139  SOPE      H5Y             2.0144666680      -27.0501331479      -10.7584389149  MEMB      139             0.0000000000
     15962       139  SOPE      C36             0.3439153730      -25.6584266901      -10.9332489356  MEMB      139             0.0000000000
     15963       139  SOPE      H6X            -0.4255288321      -25.9531242048      -11.6767652416  MEMB      139             0.0000000000
     15964       139  SOPE      H6Y             0.3012739209      -24.5452506440      -10.8604984648  MEMB      139             0.0000000000
     15965       139  SOPE      C37            -0.0510882206      -26.2113464170       -9.5831617400  MEMB      139             0.0000000000
     15966       139  SOPE      H7X             0.1218897847      -27.3006226830       -9.5805373848  MEMB      139             0.0000000000
     15967       139  SOPE      H7Y            -1.1280688929      -25.9892514598       -9.3946005062  MEMB      139             0.0000000000
     15968       139  SOPE      C38             0.7978754981      -25.6143526187       -8.4862871658  MEMB      139             0.0000000000
     15969       139  SOPE      H8X             0.7857571891      -24.5299845581       -8.6632123374  MEMB      139             0.0000000000
     15970       139  SOPE      H8Y             1.8680752516      -25.8798255013       -8.5573664374  MEMB      139             0.0000000000
     15971       139  SOPE      C39             0.2823229891      -26.0738755180       -7.1425487059  MEMB      139             0.0000000000
     15972       139  SOPE      H9X             0.4789631589      -27.1288316822       -6.9737494335  MEMB      139             0.0000000000
     15973       139  SOPE      H9Y            -0.8200324906      -25.9436526700       -7.0381218785  MEMB      139             0.0000000000
     15974       139  SOPE      C310            1.0401386182      -25.4969531144       -6.0073343592  MEMB      139             0.0000000000
     15975       139  SOPE      H10X            1.3395513874      -24.5025573506       -6.4334710414  MEMB      139             0.0000000000
     15976       139  SOPE      H10Y            2.0232702830      -25.8504793576       -5.7129587031  MEMB      139             0.0000000000
     15977       139  SOPE      C311            0.0923087690      -25.5555383504       -4.8033005737  MEMB      139             0.0000000000
     15978       139  SOPE      H11X           -0.7635364078      -24.9858569725       -5.0199724219  MEMB      139             0.0000000000
     15979       139  SOPE      H11Y            0.4929345654      -25.1529116101       -3.9285417775  MEMB      139             0.0000000000
     15980       139  SOPE      C312           -0.3132729001      -26.6648372501       -4.0454870075  MEMB      139             0.0000000000
     15981       139  SOPE      H12X            0.6302088684      -26.9857661562       -3.5828190427  MEMB      139             0.0000000000
     15982       139  SOPE      H12Y           -0.8454341464      -27.2054509416       -4.8476645429  MEMB      139             0.0000000000
     15983       139  SOPE      C313           -0.9952083574      -26.6443902411       -2.7210660845  MEMB      139             0.0000000000
     15984       139  SOPE      H13X           -2.0163665270      -26.4924608866       -2.8806091818  MEMB      139             0.0000000000
     15985       139  SOPE      H13Y           -0.7188069735      -25.9546371654       -1.9244516647  MEMB      139             0.0000000000
     15986       139  SOPE      C314           -1.5110148157      -27.8418743316       -2.2192954952  MEMB      139             0.0000000000
     15987       139  SOPE      H14X           -1.8358366917      -28.3116396281       -3.1418997374  MEMB      139             0.0000000000
     15988       139  SOPE      H14Y           -2.5460997354      -27.9422883129       -1.9713482333  MEMB      139             0.0000000000
     15989       139  SOPE      C315           -0.6886333245      -28.1641716650       -1.0200563225  MEMB      139             0.0000000000
     15990       139  SOPE      H15X            0.3238396854      -28.0999023219       -1.4512718729  MEMB      139             0.0000000000
     15991       139  SOPE      H15Y           -1.0317264083      -29.1766548877       -0.8556277150  MEMB      139             0.0000000000
     15992       139  SOPE      C316           -0.7529054435      -27.2584670959        0.2606845713  MEMB      139             0.0000000000
     15993       139  SOPE      H16X           -1.6802627202      -27.2459936590        0.8725537182  MEMB      139             0.0000000000
     15994       139  SOPE      H16Y           -0.6317588829      -26.1786254115        0.0384886622  MEMB      139             0.0000000000
     15995       139  SOPE      C317           -0.0557678514      -27.7971559745        1.4600680412  MEMB      139             0.0000000000
     15996       139  SOPE      H17X           -0.1946405488      -26.9839920122        2.2162666458  MEMB      139             0.0000000000
     15997       139  SOPE      H17Y            0.9896200636      -27.9132278148        1.1303362166  MEMB      139             0.0000000000
     15998       139  SOPE      C318           -0.6672723828      -29.0887184763        2.0360563051  MEMB      139             0.0000000000
     15999       139  SOPE      H18X           -1.7680000006      -29.0483934567        2.1843732318  MEMB      139             0.0000000000
     16000       139  SOPE      H18Y           -0.2441193906      -29.2565976111        3.0434773753  MEMB      139             0.0000000000
     16001       139  SOPE      H18Z           -0.4390883209      -29.9631281159        1.3931060510  MEMB      139             0.0000000000
     16002       140  CHL1      C3             17.2843807874       22.8588823179      -17.3595636306  MEMB      140             0.0000000000
     16003       140  CHL1      H3             18.3724820309       22.6484448959      -17.3500835718  MEMB      140             0.0000000000
     16004       140  CHL1      O3             16.7215017113       22.7442863308      -18.6672203013  MEMB      140             0.0000000000
     16005       140  CHL1      H3'            16.1620143654       23.5132084130      -18.8012649491  MEMB      140             0.0000000000
     16006       140  CHL1      C4             16.6113481160       21.8330790748      -16.4375162471  MEMB      140             0.0000000000
     16007       140  CHL1      H4A            15.5030398631       21.8404117894      -16.5590867234  MEMB      140             0.0000000000
     16008       140  CHL1      H4B            16.9537823999       20.8431129129      -16.8017521712  MEMB      140             0.0000000000
     16009       140  CHL1      C5             17.0309683716       21.9947011982      -14.9963671858  MEMB      140             0.0000000000
     16010       140  CHL1      C6             17.5121332887       21.0043175808      -14.2804160716  MEMB      140             0.0000000000
     16011       140  CHL1      H6             17.6236426519       20.0578712795      -14.7896047238  MEMB      140             0.0000000000
     16012       140  CHL1      C7             17.8897121087       21.1143582163      -12.8415944477  MEMB      140             0.0000000000
     16013       140  CHL1      H7A            17.5736766583       20.2059563564      -12.2847803043  MEMB      140             0.0000000000
     16014       140  CHL1      H7B            18.9964981299       21.1812112560      -12.7902140710  MEMB      140             0.0000000000
     16015       140  CHL1      C8             17.2870290141       22.3855029429      -12.1761205777  MEMB      140             0.0000000000
     16016       140  CHL1      H8             16.1902746370       22.2513567300      -12.0448803578  MEMB      140             0.0000000000
     16017       140  CHL1      C14            17.9018451803       22.6262760352      -10.8339230039  MEMB      140             0.0000000000
     16018       140  CHL1      H14            18.9958937815       22.8278194097      -11.0244200558  MEMB      140             0.0000000000
     16019       140  CHL1      C15            17.8881331381       21.4439508539       -9.9111319579  MEMB      140             0.0000000000
     16020       140  CHL1      H15A           16.9255156442       20.9268538177       -9.8658622853  MEMB      140             0.0000000000
     16021       140  CHL1      H15B           18.6276971497       20.8324256344      -10.4291890869  MEMB      140             0.0000000000
     16022       140  CHL1      C16            18.2088725003       21.9560988991       -8.5239904031  MEMB      140             0.0000000000
     16023       140  CHL1      H16A           17.3928060731       21.6991272852       -7.8119745403  MEMB      140             0.0000000000
     16024       140  CHL1      H16B           19.2016012481       21.7274606473       -8.0720318593  MEMB      140             0.0000000000
     16025       140  CHL1      C17            18.1632894882       23.4303643842       -8.7112698677  MEMB      140             0.0000000000
     16026       140  CHL1      H17            19.1698875101       23.6971506847       -9.0042753788  MEMB      140             0.0000000000
     16027       140  CHL1      C13            17.3778936706       23.7639299538      -10.0177461628  MEMB      140             0.0000000000
     16028       140  CHL1      C18            15.8588307040       23.6754810068       -9.7551796103  MEMB      140             0.0000000000
     16029       140  CHL1      H18A           15.2625176330       23.9026309589      -10.6565479605  MEMB      140             0.0000000000
     16030       140  CHL1      H18B           15.5762812958       22.6939757245       -9.3481341268  MEMB      140             0.0000000000
     16031       140  CHL1      H18C           15.5483342957       24.4183885997       -9.0070856487  MEMB      140             0.0000000000
     16032       140  CHL1      C12            17.7703180298       24.9952976296      -10.8466206565  MEMB      140             0.0000000000
     16033       140  CHL1      H12A           17.5150937951       25.9303106920      -10.3379110480  MEMB      140             0.0000000000
     16034       140  CHL1      H12B           18.8363906381       25.0129077934      -10.9939998728  MEMB      140             0.0000000000
     16035       140  CHL1      C11            17.2410300724       24.9367971693      -12.2851783593  MEMB      140             0.0000000000
     16036       140  CHL1      H11A           16.1789055730       25.0489737743      -12.0721234900  MEMB      140             0.0000000000
     16037       140  CHL1      H11B           17.6083330884       25.8204297583      -12.8486672890  MEMB      140             0.0000000000
     16038       140  CHL1      C9             17.5624902608       23.5976942216      -13.0331294402  MEMB      140             0.0000000000
     16039       140  CHL1      H9             18.6615160813       23.6283335175      -13.2140572443  MEMB      140             0.0000000000
     16040       140  CHL1      C10            16.9943818876       23.3745010969      -14.4426711368  MEMB      140             0.0000000000
     16041       140  CHL1      C19            15.5262850335       23.5168779356      -14.3914807679  MEMB      140             0.0000000000
     16042       140  CHL1      H19A           14.9851647546       23.3677257896      -15.3469348475  MEMB      140             0.0000000000
     16043       140  CHL1      H19B           14.9440902159       23.1326148159      -13.5321457853  MEMB      140             0.0000000000
     16044       140  CHL1      H19C           15.6102728433       24.5824154349      -14.2934573059  MEMB      140             0.0000000000
     16045       140  CHL1      C1             17.6608175553       24.4029877608      -15.4011089328  MEMB      140             0.0000000000
     16046       140  CHL1      H1A            17.5469256460       25.4301214957      -14.9918955175  MEMB      140             0.0000000000
     16047       140  CHL1      H1B            18.7418606454       24.1875367377      -15.3334736404  MEMB      140             0.0000000000
     16048       140  CHL1      C2             17.2257614514       24.2993235997      -16.8764377818  MEMB      140             0.0000000000
     16049       140  CHL1      H2A            17.8174615100       24.9642576885      -17.5394856448  MEMB      140             0.0000000000
     16050       140  CHL1      H2B            16.1953788512       24.5613085410      -17.0371390765  MEMB      140             0.0000000000
     16051       140  CHL1      C20            17.8000046863       23.9236720057       -7.3352549746  MEMB      140             0.0000000000
     16052       140  CHL1      H20            16.7662403350       23.6553150479       -7.0456780914  MEMB      140             0.0000000000
     16053       140  CHL1      C21            17.6276080974       25.2502133476       -7.5071205745  MEMB      140             0.0000000000
     16054       140  CHL1      H21A           17.5180926427       25.8858990970       -6.6010993951  MEMB      140             0.0000000000
     16055       140  CHL1      H21B           16.8659095818       25.3710700072       -8.1918728110  MEMB      140             0.0000000000
     16056       140  CHL1      H21C           18.3246859381       25.4920910160       -8.2760305653  MEMB      140             0.0000000000
     16057       140  CHL1      C22            18.8162786676       23.9353421077       -6.2270261868  MEMB      140             0.0000000000
     16058       140  CHL1      H22A           19.6206665825       23.2173149552       -6.4070671321  MEMB      140             0.0000000000
     16059       140  CHL1      H22B           19.3381523501       24.8953218100       -6.0885944985  MEMB      140             0.0000000000
     16060       140  CHL1      C23            18.0360514129       23.7628757225       -4.9814448501  MEMB      140             0.0000000000
     16061       140  CHL1      H23A           17.4621408098       24.6725171492       -4.6758000158  MEMB      140             0.0000000000
     16062       140  CHL1      H23B           17.3022160467       22.9623684986       -5.2150153414  MEMB      140             0.0000000000
     16063       140  CHL1      C24            18.9979089439       23.4067216474       -3.9270328487  MEMB      140             0.0000000000
     16064       140  CHL1      H24A           19.5043220406       22.4459374682       -4.2194994756  MEMB      140             0.0000000000
     16065       140  CHL1      H24B           19.8739443532       24.0300324250       -3.8367247539  MEMB      140             0.0000000000
     16066       140  CHL1      C25            18.2965379367       23.5677712839       -2.5783127225  MEMB      140             0.0000000000
     16067       140  CHL1      H25            18.0780883260       24.5761371391       -2.3015576527  MEMB      140             0.0000000000
     16068       140  CHL1      C26            16.7625451257       23.0534288130       -2.5651679679  MEMB      140             0.0000000000
     16069       140  CHL1      H26A           16.0711407476       23.1932607694       -3.3875932073  MEMB      140             0.0000000000
     16070       140  CHL1      H26B           16.4760928568       22.1517511328       -3.1385768694  MEMB      140             0.0000000000
     16071       140  CHL1      H26C           16.6509345699       22.3882698935       -1.7103398949  MEMB      140             0.0000000000
     16072       140  CHL1      C27            19.4266305952       23.1519149960       -1.5503756869  MEMB      140             0.0000000000
     16073       140  CHL1      H27A           19.0110133988       23.1445970331       -0.5234149971  MEMB      140             0.0000000000
     16074       140  CHL1      H27B           19.9385927572       22.1717047694       -1.7988500131  MEMB      140             0.0000000000
     16075       140  CHL1      H27C           20.3358335586       23.6979040527       -1.4650281029  MEMB      140             0.0000000000
     16076       141  SAPC      N              10.7470891177       26.5176206952      -22.2265670271  MEMB      141             0.0000000000
     16077       141  SAPC      C12             9.7366513113       25.6813981883      -21.4685171561  MEMB      141             0.0000000000
     16078       141  SAPC      H12A            9.7382194383       24.6724044233      -21.8645817143  MEMB      141             0.0000000000
     16079       141  SAPC      H12B            8.7262241894       26.0281458911      -21.6809245565  MEMB      141             0.0000000000
     16080       141  SAPC      C13            12.1327563703       26.1979898888      -21.7738558657  MEMB      141             0.0000000000
     16081       141  SAPC      H13A           12.4454783124       25.1804177157      -21.9577322219  MEMB      141             0.0000000000
     16082       141  SAPC      H13B           12.8255409321       26.8663322383      -22.2572773476  MEMB      141             0.0000000000
     16083       141  SAPC      H13C           12.1574643837       26.3920306365      -20.6992343915  MEMB      141             0.0000000000
     16084       141  SAPC      C14            10.5635459155       26.2651292268      -23.6831302579  MEMB      141             0.0000000000
     16085       141  SAPC      H14A            9.4984941438       26.2446615576      -23.9251697993  MEMB      141             0.0000000000
     16086       141  SAPC      H14B           11.0101625607       27.0576924812      -24.2640686990  MEMB      141             0.0000000000
     16087       141  SAPC      H14C           10.9980853175       25.3182110700      -23.9480568649  MEMB      141             0.0000000000
     16088       141  SAPC      C15            10.5303522761       27.9722906132      -21.9644879761  MEMB      141             0.0000000000
     16089       141  SAPC      H15A           11.2682848272       28.5516214629      -22.4927994748  MEMB      141             0.0000000000
     16090       141  SAPC      H15B            9.5458632634       28.3379587285      -22.2404152537  MEMB      141             0.0000000000
     16091       141  SAPC      H15C           10.6278704738       28.1435817124      -20.8896193077  MEMB      141             0.0000000000
     16092       141  SAPC      C11             9.8547421630       25.5784140140      -19.9479623651  MEMB      141             0.0000000000
     16093       141  SAPC      H11A           10.7944551080       25.0856654155      -19.6059479693  MEMB      141             0.0000000000
     16094       141  SAPC      H11B            8.9812942884       24.9441238866      -19.6720060326  MEMB      141             0.0000000000
     16095       141  SAPC      P               9.6599610484       26.7746294575      -17.7319620215  MEMB      141             0.0000000000
     16096       141  SAPC      O13             8.5421057403       27.6363957785      -17.3125581322  MEMB      141             0.0000000000
     16097       141  SAPC      O14             9.6135564114       25.4010314912      -17.2154335647  MEMB      141             0.0000000000
     16098       141  SAPC      O12             9.7185727771       26.8430886334      -19.3370561779  MEMB      141             0.0000000000
     16099       141  SAPC      O11            11.0898707786       27.3712918041      -17.4476718332  MEMB      141             0.0000000000
     16100       141  SAPC      C1             12.0310015135       28.0505611593      -18.3026198072  MEMB      141             0.0000000000
     16101       141  SAPC      HA             12.3515200008       27.3526315770      -19.0711130166  MEMB      141             0.0000000000
     16102       141  SAPC      HB             11.6406614335       28.7941622910      -19.0023104013  MEMB      141             0.0000000000
     16103       141  SAPC      C2             13.1832903318       28.6532122428      -17.4502271521  MEMB      141             0.0000000000
     16104       141  SAPC      HS             13.9708051059       28.9916844039      -18.1586698975  MEMB      141             0.0000000000
     16105       141  SAPC      O21            13.5708942169       27.5899371116      -16.6899082511  MEMB      141             0.0000000000
     16106       141  SAPC      C21            14.7631742919       27.5328786744      -16.3847548397  MEMB      141             0.0000000000
     16107       141  SAPC      O22            15.6823313088       28.2880544680      -16.6576350194  MEMB      141             0.0000000000
     16108       141  SAPC      C22            14.8265748127       26.1539278442      -15.9266081389  MEMB      141             0.0000000000
     16109       141  SAPC      H2R            14.7009440440       25.5793104642      -16.8741411242  MEMB      141             0.0000000000
     16110       141  SAPC      H2S            15.8376061202       26.1166935050      -15.5062825785  MEMB      141             0.0000000000
     16111       141  SAPC      C3             12.9981166970       29.7694087965      -16.4320493159  MEMB      141             0.0000000000
     16112       141  SAPC      HX             12.8196440082       30.6795188070      -17.0754814399  MEMB      141             0.0000000000
     16113       141  SAPC      HY             13.9190047370       30.0567964045      -15.8876280738  MEMB      141             0.0000000000
     16114       141  SAPC      O31            11.9309908823       29.3283012848      -15.5019067060  MEMB      141             0.0000000000
     16115       141  SAPC      C31            11.9030039942       29.7973272736      -14.2538299167  MEMB      141             0.0000000000
     16116       141  SAPC      O32            12.8291192428       30.4082458035      -13.7493164485  MEMB      141             0.0000000000
     16117       141  SAPC      C32            10.5731442772       29.5104169325      -13.4751123656  MEMB      141             0.0000000000
     16118       141  SAPC      H2X            10.4554876205       30.3025222833      -12.7044024766  MEMB      141             0.0000000000
     16119       141  SAPC      H2Y            10.7492505054       28.5703205066      -12.9261033887  MEMB      141             0.0000000000
     16120       141  SAPC      C23            13.6755388598       25.6923390965      -14.9932152147  MEMB      141             0.0000000000
     16121       141  SAPC      H3R            13.5519225808       24.6044953478      -15.1765531269  MEMB      141             0.0000000000
     16122       141  SAPC      H3S            12.6789341962       26.0152326134      -15.3179566841  MEMB      141             0.0000000000
     16123       141  SAPC      C24            13.9369151409       26.0393249959      -13.5105020090  MEMB      141             0.0000000000
     16124       141  SAPC      H4R            14.0083719540       27.1251967341      -13.3779153525  MEMB      141             0.0000000000
     16125       141  SAPC      H4S            14.9223727892       25.7735796343      -13.1627441431  MEMB      141             0.0000000000
     16126       141  SAPC      C25            13.0226153760       25.3480812465      -12.5588029371  MEMB      141             0.0000000000
     16127       141  SAPC      H5R            12.5455826997       24.4325328529      -12.9453070821  MEMB      141             0.0000000000
     16128       141  SAPC      C26            12.8220741813       25.7198659778      -11.2905404218  MEMB      141             0.0000000000
     16129       141  SAPC      H6R            12.1525486503       25.0933930512      -10.6914460494  MEMB      141             0.0000000000
     16130       141  SAPC      C27            13.4485162550       26.8757343574      -10.5545681418  MEMB      141             0.0000000000
     16131       141  SAPC      H7R            13.0328013445       27.8554577390      -10.8576639824  MEMB      141             0.0000000000
     16132       141  SAPC      H7S            14.5396419056       26.9459698026      -10.7894595675  MEMB      141             0.0000000000
     16133       141  SAPC      C28            13.1527836583       26.6635264548       -9.0933079690  MEMB      141             0.0000000000
     16134       141  SAPC      H8R            12.1265878962       26.5522982339       -8.7415121296  MEMB      141             0.0000000000
     16135       141  SAPC      C29            14.0813685946       26.7405934675       -8.1880135594  MEMB      141             0.0000000000
     16136       141  SAPC      H9R            13.9001838463       26.5022818520       -7.1307172387  MEMB      141             0.0000000000
     16137       141  SAPC      C210           15.4610541694       27.0463756635       -8.5621454110  MEMB      141             0.0000000000
     16138       141  SAPC      H10R           15.8447031510       26.3725943465       -9.3298081733  MEMB      141             0.0000000000
     16139       141  SAPC      H10S           15.9001279967       26.7361617451       -7.6177866481  MEMB      141             0.0000000000
     16140       141  SAPC      C211           15.9767116509       28.3779301478       -8.9594544582  MEMB      141             0.0000000000
     16141       141  SAPC      H11R           16.7340681510       28.3088096769       -9.7502399642  MEMB      141             0.0000000000
     16142       141  SAPC      C212           15.9113453950       29.4621694550       -8.1946840776  MEMB      141             0.0000000000
     16143       141  SAPC      H12R           16.2481567894       30.3867063568       -8.5957389604  MEMB      141             0.0000000000
     16144       141  SAPC      C213           15.3291184500       29.6150351923       -6.8434836855  MEMB      141             0.0000000000
     16145       141  SAPC      H13R           14.3062287070       29.8955965528       -6.9899078862  MEMB      141             0.0000000000
     16146       141  SAPC      H13S           15.4802432857       30.5727852774       -6.3718951819  MEMB      141             0.0000000000
     16147       141  SAPC      C214           15.5704052837       28.3438429314       -6.1098361117  MEMB      141             0.0000000000
     16148       141  SAPC      H14R           16.5642887373       28.3605833540       -5.6174680235  MEMB      141             0.0000000000
     16149       141  SAPC      C215           14.6230340506       27.8504550053       -5.3570275566  MEMB      141             0.0000000000
     16150       141  SAPC      H15R           14.9776822235       27.1318489168       -4.5543040235  MEMB      141             0.0000000000
     16151       141  SAPC      C216           13.3671719189       28.7783868315       -5.2043097316  MEMB      141             0.0000000000
     16152       141  SAPC      H16R           12.8924193182       28.0713046944       -4.4937503450  MEMB      141             0.0000000000
     16153       141  SAPC      H16S           12.5100305905       28.3039704647       -5.5811649587  MEMB      141             0.0000000000
     16154       141  SAPC      C217           13.2936101273       30.5109606618       -4.5954834591  MEMB      141             0.0000000000
     16155       141  SAPC      H17R           12.2801537731       30.7621312753       -4.2692848917  MEMB      141             0.0000000000
     16156       141  SAPC      H17S           13.6427920530       31.1025322875       -5.4339987630  MEMB      141             0.0000000000
     16157       141  SAPC      C218           13.9142191991       31.5004575570       -3.3218532883  MEMB      141             0.0000000000
     16158       141  SAPC      H18R           14.4419389446       32.3737606762       -3.7658603146  MEMB      141             0.0000000000
     16159       141  SAPC      H18S           14.7340391125       31.2652054773       -2.6621640029  MEMB      141             0.0000000000
     16160       141  SAPC      C219           13.1533299227       32.0588874182       -2.0244775145  MEMB      141             0.0000000000
     16161       141  SAPC      H19R           12.2710313279       32.5899737082       -2.3794337011  MEMB      141             0.0000000000
     16162       141  SAPC      H19S           13.8757596730       32.7542238504       -1.5116217293  MEMB      141             0.0000000000
     16163       141  SAPC      C220           12.7845816524       31.2309434007       -0.7790005339  MEMB      141             0.0000000000
     16164       141  SAPC      H20R           12.1572718973       31.6297361534       -0.0670411058  MEMB      141             0.0000000000
     16165       141  SAPC      H20S           13.6807157576       30.8005779771       -0.2288714806  MEMB      141             0.0000000000
     16166       141  SAPC      H20T           12.0648388210       30.4499448178       -1.0587230320  MEMB      141             0.0000000000
     16167       141  SAPC      C33             9.1892843467       29.3956338576      -14.1787135896  MEMB      141             0.0000000000
     16168       141  SAPC      H3X             9.0488817368       28.4606985092      -14.7672058948  MEMB      141             0.0000000000
     16169       141  SAPC      H3Y             8.9046148644       30.2281096265      -14.7712554796  MEMB      141             0.0000000000
     16170       141  SAPC      C34             8.0132697000       29.7640663762      -13.3086401856  MEMB      141             0.0000000000
     16171       141  SAPC      H4X             7.1129393675       29.9436261506      -13.9542895049  MEMB      141             0.0000000000
     16172       141  SAPC      H4Y             8.1989051071       30.7343424582      -12.7878031915  MEMB      141             0.0000000000
     16173       141  SAPC      C35             7.9446759999       28.5838538298      -12.3854379421  MEMB      141             0.0000000000
     16174       141  SAPC      H5X             8.6981958637       28.7360257424      -11.5879800545  MEMB      141             0.0000000000
     16175       141  SAPC      H5Y             8.0362304319       27.6397138582      -12.9563359439  MEMB      141             0.0000000000
     16176       141  SAPC      C36             6.6538202921       28.5122014993      -11.7340854705  MEMB      141             0.0000000000
     16177       141  SAPC      H6X             5.9568204481       28.6516492065      -12.5967448878  MEMB      141             0.0000000000
     16178       141  SAPC      H6Y             6.7270535591       29.4154759276      -11.0707497191  MEMB      141             0.0000000000
     16179       141  SAPC      C37             6.1862833314       27.2794437160      -10.9546938239  MEMB      141             0.0000000000
     16180       141  SAPC      H7X             6.0985719691       26.4478609780      -11.6796940126  MEMB      141             0.0000000000
     16181       141  SAPC      H7Y             5.1419465338       27.3954909185      -10.5714383633  MEMB      141             0.0000000000
     16182       141  SAPC      C38             7.0869552912       26.9307285146       -9.7678085457  MEMB      141             0.0000000000
     16183       141  SAPC      H8X             8.0447198349       26.5823337761      -10.2030726590  MEMB      141             0.0000000000
     16184       141  SAPC      H8Y             6.5935717645       26.0907699396       -9.2319626962  MEMB      141             0.0000000000
     16185       141  SAPC      C39             7.3366141014       28.0527175661       -8.7347084446  MEMB      141             0.0000000000
     16186       141  SAPC      H9X             6.3433599151       28.4756208525       -8.4672681568  MEMB      141             0.0000000000
     16187       141  SAPC      H9Y             7.9364907204       28.8864089898       -9.1631420367  MEMB      141             0.0000000000
     16188       141  SAPC      C310            8.0442210851       27.5897518707       -7.4449374139  MEMB      141             0.0000000000
     16189       141  SAPC      H10X            7.5500705698       26.7062990221       -6.9824361104  MEMB      141             0.0000000000
     16190       141  SAPC      H10Y            8.0118497036       28.4247056646       -6.7015313718  MEMB      141             0.0000000000
     16191       141  SAPC      C311            9.5120362632       27.2061074148       -7.6281888910  MEMB      141             0.0000000000
     16192       141  SAPC      H11X            9.9302503993       27.6957918115       -8.5353736214  MEMB      141             0.0000000000
     16193       141  SAPC      H11Y            9.5781800484       26.1062758469       -7.7659905267  MEMB      141             0.0000000000
     16194       141  SAPC      C312           10.3116873001       27.5020683961       -6.3681180111  MEMB      141             0.0000000000
     16195       141  SAPC      H12X           10.3544662525       28.6008126129       -6.1816649121  MEMB      141             0.0000000000
     16196       141  SAPC      H12Y           11.3540356825       27.1374646619       -6.5090449447  MEMB      141             0.0000000000
     16197       141  SAPC      C313            9.7146224932       26.8553837165       -5.1171868046  MEMB      141             0.0000000000
     16198       141  SAPC      H13X            9.9031282688       25.7522641756       -5.1373405718  MEMB      141             0.0000000000
     16199       141  SAPC      H13Y            8.6192700162       27.0108067217       -5.0184012321  MEMB      141             0.0000000000
     16200       141  SAPC      C314           10.3597994413       27.5126356871       -3.8943226042  MEMB      141             0.0000000000
     16201       141  SAPC      H14X           10.2735437445       28.6132976608       -3.9144805750  MEMB      141             0.0000000000
     16202       141  SAPC      H14Y           11.3820984136       27.0843424985       -3.9160796037  MEMB      141             0.0000000000
     16203       141  SAPC      C315            9.7835327449       27.0477901414       -2.5972625740  MEMB      141             0.0000000000
     16204       141  SAPC      H15X            9.9191949858       26.0072411117       -2.9814674910  MEMB      141             0.0000000000
     16205       141  SAPC      H15Y            8.7258214602       27.3799525799       -2.5180773965  MEMB      141             0.0000000000
     16206       141  SAPC      C316           10.5433746116       27.2682229245       -1.2628759145  MEMB      141             0.0000000000
     16207       141  SAPC      H16X           10.5483131225       28.3700713120       -1.1123146943  MEMB      141             0.0000000000
     16208       141  SAPC      H16Y           11.5538167907       26.8455407825       -1.3943888048  MEMB      141             0.0000000000
     16209       141  SAPC      C317           10.0457879430       26.6976707337        0.0951705861  MEMB      141             0.0000000000
     16210       141  SAPC      H17X            9.0435247192       27.1560105469        0.2586480346  MEMB      141             0.0000000000
     16211       141  SAPC      H17Y           10.5968215372       27.1022100192        0.9682655711  MEMB      141             0.0000000000
     16212       141  SAPC      C318           10.2827836170       25.1919279411        0.3753304979  MEMB      141             0.0000000000
     16213       141  SAPC      H18X           11.3240678163       24.8799064239        0.2925723367  MEMB      141             0.0000000000
     16214       141  SAPC      H18Y            9.9762901646       24.4783747827       -0.3841274314  MEMB      141             0.0000000000
     16215       141  SAPC      H18Z            9.6863799991       24.8453906283        1.2566417890  MEMB      141             0.0000000000
     16216       142  SAPS      N             -19.3018813564      -23.9229385220      -18.4956805512  MEMB      142             0.0000000000
     16217       142  SAPS      HN1           -19.2588874442      -24.8933860855      -18.8603487875  MEMB      142             0.0000000000
     16218       142  SAPS      HN2           -19.0506990602      -23.9387893036      -17.4754147453  MEMB      142             0.0000000000
     16219       142  SAPS      HN3           -20.2246514864      -23.4747132924      -18.6663134476  MEMB      142             0.0000000000
     16220       142  SAPS      C12           -18.2377160145      -23.1251713679      -19.2067365476  MEMB      142             0.0000000000
     16221       142  SAPS      H12A          -18.6862662011      -22.2876580498      -19.7197777936  MEMB      142             0.0000000000
     16222       142  SAPS      C13           -17.1541975749      -22.5425242738      -18.2891571584  MEMB      142             0.0000000000
     16223       142  SAPS      O13A          -17.1038943182      -22.9775396140      -17.1093184208  MEMB      142             0.0000000000
     16224       142  SAPS      O13B          -16.3301991863      -21.7382753799      -18.7878862333  MEMB      142             0.0000000000
     16225       142  SAPS      C11           -17.5469489907      -24.0687123906      -20.2144031488  MEMB      142             0.0000000000
     16226       142  SAPS      H11A          -18.2856115298      -24.5646104167      -20.8734035017  MEMB      142             0.0000000000
     16227       142  SAPS      H11B          -17.0143840334      -24.8639221788      -19.6350309928  MEMB      142             0.0000000000
     16228       142  SAPS      P             -15.3820950577      -23.9980344592      -21.6401820993  MEMB      142             0.0000000000
     16229       142  SAPS      O13           -15.8569658290      -24.8263878710      -22.7669460269  MEMB      142             0.0000000000
     16230       142  SAPS      O14           -14.3902312581      -22.9596703620      -21.9941220904  MEMB      142             0.0000000000
     16231       142  SAPS      O12           -16.6812548892      -23.3072220535      -21.0434200162  MEMB      142             0.0000000000
     16232       142  SAPS      O11           -14.7932330444      -24.9662038718      -20.5068712164  MEMB      142             0.0000000000
     16233       142  SAPS      C1            -14.0707887807      -24.4149703066      -19.4143650755  MEMB      142             0.0000000000
     16234       142  SAPS      HA            -13.1247534647      -23.9484570327      -19.7747855559  MEMB      142             0.0000000000
     16235       142  SAPS      HB            -14.6581221353      -23.6440044915      -18.8679003713  MEMB      142             0.0000000000
     16236       142  SAPS      C2            -13.6987705692      -25.5158212270      -18.3987053187  MEMB      142             0.0000000000
     16237       142  SAPS      HS            -13.2316880587      -26.3102337574      -18.9983527736  MEMB      142             0.0000000000
     16238       142  SAPS      O21           -14.8425601149      -25.9981181628      -17.7072377138  MEMB      142             0.0000000000
     16239       142  SAPS      C21           -15.5398761809      -26.9101142440      -18.2850372358  MEMB      142             0.0000000000
     16240       142  SAPS      O22           -15.2180363947      -27.6546134490      -19.1959737099  MEMB      142             0.0000000000
     16241       142  SAPS      C22           -16.8626156232      -27.0082284680      -17.5415700024  MEMB      142             0.0000000000
     16242       142  SAPS      H2R           -17.2955576381      -26.0538647394      -17.2247873017  MEMB      142             0.0000000000
     16243       142  SAPS      H2S           -17.5495334030      -27.6081401695      -18.1921702858  MEMB      142             0.0000000000
     16244       142  SAPS      C3            -12.7131690464      -24.9783748541      -17.3505774426  MEMB      142             0.0000000000
     16245       142  SAPS      HX            -11.8162177912      -24.6496232841      -17.9241821978  MEMB      142             0.0000000000
     16246       142  SAPS      HY            -12.4042334085      -25.7765579403      -16.6361133103  MEMB      142             0.0000000000
     16247       142  SAPS      O31           -13.3382228946      -23.8668993250      -16.6903359712  MEMB      142             0.0000000000
     16248       142  SAPS      C31           -12.7457568148      -23.4175900172      -15.6187570048  MEMB      142             0.0000000000
     16249       142  SAPS      O32           -11.8002970661      -23.8589847523      -15.0383952966  MEMB      142             0.0000000000
     16250       142  SAPS      C32           -13.3634863686      -22.2114269378      -15.0555078427  MEMB      142             0.0000000000
     16251       142  SAPS      H2X           -14.4397043504      -22.1954807380      -15.2838667793  MEMB      142             0.0000000000
     16252       142  SAPS      H2Y           -12.8134361699      -21.3758220441      -15.5475223089  MEMB      142             0.0000000000
     16253       142  SAPS      C23           -16.6078145429      -27.8104408960      -16.2938663114  MEMB      142             0.0000000000
     16254       142  SAPS      H3R           -16.3269946550      -28.6808208373      -16.8653863516  MEMB      142             0.0000000000
     16255       142  SAPS      H3S           -17.5525422688      -28.1974222935      -15.8455172050  MEMB      142             0.0000000000
     16256       142  SAPS      C24           -15.5296769087      -27.3365135494      -15.2226058978  MEMB      142             0.0000000000
     16257       142  SAPS      H4R           -14.5231106584      -27.2148424354      -15.6627153619  MEMB      142             0.0000000000
     16258       142  SAPS      H4S           -15.1307895441      -28.0140305108      -14.4278812228  MEMB      142             0.0000000000
     16259       142  SAPS      C25           -16.1096860741      -26.2126159871      -14.4192636800  MEMB      142             0.0000000000
     16260       142  SAPS      H5R           -15.6377915184      -25.3035690430      -14.7488458613  MEMB      142             0.0000000000
     16261       142  SAPS      C26           -17.0608917678      -26.0726573451      -13.4462389301  MEMB      142             0.0000000000
     16262       142  SAPS      H6R           -17.1470925559      -25.1135651524      -12.9681898572  MEMB      142             0.0000000000
     16263       142  SAPS      C27           -17.9759075879      -26.9786949515      -12.7110819740  MEMB      142             0.0000000000
     16264       142  SAPS      H7R           -17.4682490244      -27.7433875853      -13.1086576583  MEMB      142             0.0000000000
     16265       142  SAPS      H7S           -18.9780580348      -27.2912678703      -13.0891302863  MEMB      142             0.0000000000
     16266       142  SAPS      C28           -17.8785133392      -27.0330760896      -11.2264997078  MEMB      142             0.0000000000
     16267       142  SAPS      H8R           -16.9064638338      -27.3568507275      -10.8457752637  MEMB      142             0.0000000000
     16268       142  SAPS      C29           -18.7143697361      -26.4353451054      -10.3950238737  MEMB      142             0.0000000000
     16269       142  SAPS      H9R           -18.5592335235      -26.4547970728       -9.3010864208  MEMB      142             0.0000000000
     16270       142  SAPS      C210          -19.8182693823      -25.6357458559      -11.0013855256  MEMB      142             0.0000000000
     16271       142  SAPS      H10R          -20.7910571983      -25.9760048512      -10.6063951766  MEMB      142             0.0000000000
     16272       142  SAPS      H10S          -19.9146906163      -25.8193524689      -12.0894492410  MEMB      142             0.0000000000
     16273       142  SAPS      C211          -19.6514034113      -24.1443007674      -10.9338876904  MEMB      142             0.0000000000
     16274       142  SAPS      H11R          -20.5981513152      -23.6737412141      -11.2220608567  MEMB      142             0.0000000000
     16275       142  SAPS      C212          -18.5945264715      -23.3375918380      -10.6481876536  MEMB      142             0.0000000000
     16276       142  SAPS      H12R          -18.7726968908      -22.2553769006      -10.6969921649  MEMB      142             0.0000000000
     16277       142  SAPS      C213          -17.1525684307      -23.6349767249      -10.2764776244  MEMB      142             0.0000000000
     16278       142  SAPS      H13R          -16.5560677502      -22.7229378603      -10.4905030907  MEMB      142             0.0000000000
     16279       142  SAPS      H13S          -16.6856424302      -24.3987974795      -10.9400515239  MEMB      142             0.0000000000
     16280       142  SAPS      C214          -16.9442820972      -24.0120404208       -8.8285757702  MEMB      142             0.0000000000
     16281       142  SAPS      H14R          -16.5758841748      -25.0414261371       -8.6790437296  MEMB      142             0.0000000000
     16282       142  SAPS      C215          -17.1046275012      -23.2064803975       -7.7553930865  MEMB      142             0.0000000000
     16283       142  SAPS      H15R          -16.9396434673      -23.6264049942       -6.7513959259  MEMB      142             0.0000000000
     16284       142  SAPS      C216          -17.5229233657      -21.7519315663       -7.7345773357  MEMB      142             0.0000000000
     16285       142  SAPS      H16R          -17.7196555288      -21.3354452447       -8.7477271841  MEMB      142             0.0000000000
     16286       142  SAPS      H16S          -16.6907237824      -21.1350410441       -7.3295581428  MEMB      142             0.0000000000
     16287       142  SAPS      C217          -18.7484299235      -21.4636155343       -6.8452335589  MEMB      142             0.0000000000
     16288       142  SAPS      H17R          -19.6679988416      -21.9512287830       -7.2441420765  MEMB      142             0.0000000000
     16289       142  SAPS      H17S          -18.9205922899      -20.3672827763       -6.9144501430  MEMB      142             0.0000000000
     16290       142  SAPS      C218          -18.5962215304      -21.9141253354       -5.3763138739  MEMB      142             0.0000000000
     16291       142  SAPS      H18R          -18.4592642088      -23.0177048409       -5.3632871594  MEMB      142             0.0000000000
     16292       142  SAPS      H18S          -19.5625663489      -21.7317419056       -4.8558001901  MEMB      142             0.0000000000
     16293       142  SAPS      C219          -17.4585819047      -21.2769175106       -4.5530822395  MEMB      142             0.0000000000
     16294       142  SAPS      H19R          -17.6935047576      -20.2098568836       -4.3442031045  MEMB      142             0.0000000000
     16295       142  SAPS      H19S          -16.4889850262      -21.2826370669       -5.1047684883  MEMB      142             0.0000000000
     16296       142  SAPS      C220          -17.2697816128      -21.9991175277       -3.2121023105  MEMB      142             0.0000000000
     16297       142  SAPS      H20R          -18.2237697013      -22.0572602252       -2.6462384073  MEMB      142             0.0000000000
     16298       142  SAPS      H20S          -16.5136756531      -21.4764991672       -2.5879752323  MEMB      142             0.0000000000
     16299       142  SAPS      H20T          -16.9352375082      -23.0423826454       -3.3840353199  MEMB      142             0.0000000000
     16300       142  SAPS      C33           -13.2016533901      -22.2986314434      -13.5170214312  MEMB      142             0.0000000000
     16301       142  SAPS      H3X           -12.1085674462      -22.4028781891      -13.2716513616  MEMB      142             0.0000000000
     16302       142  SAPS      H3Y           -13.7997212735      -23.1252779474      -13.0974888948  MEMB      142             0.0000000000
     16303       142  SAPS      C34           -13.7446882008      -21.0366282869      -12.9007256426  MEMB      142             0.0000000000
     16304       142  SAPS      H4X           -14.6788282699      -20.6522226190      -13.3242099393  MEMB      142             0.0000000000
     16305       142  SAPS      H4Y           -13.0521758471      -20.4915901542      -13.5132838258  MEMB      142             0.0000000000
     16306       142  SAPS      C35           -13.7706877149      -20.8288163132      -11.3647386412  MEMB      142             0.0000000000
     16307       142  SAPS      H5X           -14.7955165813      -21.0846495924      -11.0416930018  MEMB      142             0.0000000000
     16308       142  SAPS      H5Y           -13.5925442418      -19.7881498092      -11.0327286809  MEMB      142             0.0000000000
     16309       142  SAPS      C36           -12.8201743747      -21.6523468480      -10.5414016505  MEMB      142             0.0000000000
     16310       142  SAPS      H6X           -11.7505340692      -21.4001810379      -10.7320920228  MEMB      142             0.0000000000
     16311       142  SAPS      H6Y           -13.0348233622      -22.6807748622      -10.8322278906  MEMB      142             0.0000000000
     16312       142  SAPS      C37           -13.0286770601      -21.5395821180       -9.0448623547  MEMB      142             0.0000000000
     16313       142  SAPS      H7X           -14.0281054638      -21.3577701969       -8.6059634429  MEMB      142             0.0000000000
     16314       142  SAPS      H7Y           -12.6216715858      -20.5583586142       -8.9321515764  MEMB      142             0.0000000000
     16315       142  SAPS      C38           -12.2629535751      -22.6435998592       -8.3373933977  MEMB      142             0.0000000000
     16316       142  SAPS      H8X           -11.8606843961      -22.5219510614       -7.3276873305  MEMB      142             0.0000000000
     16317       142  SAPS      H8Y           -11.2985170917      -22.9667167098       -8.7928658633  MEMB      142             0.0000000000
     16318       142  SAPS      C39           -13.1370363234      -23.6969588877       -8.1394864887  MEMB      142             0.0000000000
     16319       142  SAPS      H9X           -13.2072290939      -23.8063871516       -9.2178750758  MEMB      142             0.0000000000
     16320       142  SAPS      H9Y           -14.1652202265      -23.5349567941       -7.8201622331  MEMB      142             0.0000000000
     16321       142  SAPS      C310          -12.3771953920      -24.5556836556       -7.2308824103  MEMB      142             0.0000000000
     16322       142  SAPS      H10X          -11.2881941539      -24.8287398669       -7.2547508584  MEMB      142             0.0000000000
     16323       142  SAPS      H10Y          -12.5342432431      -25.5200441189       -7.5669734351  MEMB      142             0.0000000000
     16324       142  SAPS      C311          -12.9542962122      -24.3656601592       -5.8617713209  MEMB      142             0.0000000000
     16325       142  SAPS      H11X          -12.1429021400      -23.9971326593       -5.2828157708  MEMB      142             0.0000000000
     16326       142  SAPS      H11Y          -12.7808607910      -25.3899958422       -5.8598369775  MEMB      142             0.0000000000
     16327       142  SAPS      C312          -14.4029288144      -24.1269515831       -5.2840500702  MEMB      142             0.0000000000
     16328       142  SAPS      H12X          -14.9524506239      -23.6738340338       -6.1060492382  MEMB      142             0.0000000000
     16329       142  SAPS      H12Y          -14.2602491037      -23.4381735379       -4.4237382616  MEMB      142             0.0000000000
     16330       142  SAPS      C313          -15.3844853127      -25.1632520328       -4.5994059669  MEMB      142             0.0000000000
     16331       142  SAPS      H13X          -15.4248807643      -26.0866606131       -5.2336507109  MEMB      142             0.0000000000
     16332       142  SAPS      H13Y          -16.3966010209      -24.7316708255       -4.6409372570  MEMB      142             0.0000000000
     16333       142  SAPS      C314          -15.1157554388      -25.5380385746       -3.0843000668  MEMB      142             0.0000000000
     16334       142  SAPS      H14X          -15.0446320451      -24.6683067201       -2.4343950870  MEMB      142             0.0000000000
     16335       142  SAPS      H14Y          -14.1223408664      -25.7898177629       -2.7105971406  MEMB      142             0.0000000000
     16336       142  SAPS      C315          -15.9714949062      -26.7280914475       -2.6537790975  MEMB      142             0.0000000000
     16337       142  SAPS      H15X          -15.6307301062      -27.1118697060       -1.6600832715  MEMB      142             0.0000000000
     16338       142  SAPS      H15Y          -15.9122374999      -27.6019028802       -3.3524517387  MEMB      142             0.0000000000
     16339       142  SAPS      C316          -17.3978743805      -26.2286146335       -2.6909691519  MEMB      142             0.0000000000
     16340       142  SAPS      H16X          -17.7238285409      -26.0346273971       -3.7215407622  MEMB      142             0.0000000000
     16341       142  SAPS      H16Y          -17.4718823744      -25.3072798705       -2.0520660781  MEMB      142             0.0000000000
     16342       142  SAPS      C317          -18.3286138612      -27.2291193262       -2.1322578443  MEMB      142             0.0000000000
     16343       142  SAPS      H17X          -17.9005139098      -27.0293886142       -1.1473284115  MEMB      142             0.0000000000
     16344       142  SAPS      H17Y          -18.1721513052      -28.2817905754       -2.4531270311  MEMB      142             0.0000000000
     16345       142  SAPS      C318          -19.7699335684      -26.8236882693       -2.0056741349  MEMB      142             0.0000000000
     16346       142  SAPS      H18X          -20.2917634726      -26.8355558115       -2.9776557152  MEMB      142             0.0000000000
     16347       142  SAPS      H18Y          -19.8532371342      -25.8592588519       -1.4715476323  MEMB      142             0.0000000000
     16348       142  SAPS      H18Z          -20.2435902901      -27.5182956237       -1.3265942846  MEMB      142             0.0000000000
     16349       143  SLPC      N             -10.7062741406      -28.8660814211      -18.0391467282  MEMB      143             0.0000000000
     16350       143  SLPC      C13           -11.3503094786      -27.7161888235      -18.7159922011  MEMB      143             0.0000000000
     16351       143  SLPC      H13A          -11.2391244200      -26.8032588757      -18.1265624615  MEMB      143             0.0000000000
     16352       143  SLPC      H13B          -10.9374531119      -27.5355558505      -19.7033633511  MEMB      143             0.0000000000
     16353       143  SLPC      H13C          -12.4126125713      -27.8904842492      -18.8345982321  MEMB      143             0.0000000000
     16354       143  SLPC      C14           -11.0533594525      -30.0538844758      -18.8197754135  MEMB      143             0.0000000000
     16355       143  SLPC      H14A          -12.0892152624      -30.0396517381      -19.1574254509  MEMB      143             0.0000000000
     16356       143  SLPC      H14B          -10.4694772979      -30.0922936397      -19.7373557740  MEMB      143             0.0000000000
     16357       143  SLPC      H14C          -10.8766846515      -30.9561738127      -18.2600663500  MEMB      143             0.0000000000
     16358       143  SLPC      C15           -11.2186682153      -29.0108904857      -16.6441594699  MEMB      143             0.0000000000
     16359       143  SLPC      H15A          -10.7932062850      -28.2168086414      -16.0175773570  MEMB      143             0.0000000000
     16360       143  SLPC      H15B          -12.2925797795      -28.9259124857      -16.5719526049  MEMB      143             0.0000000000
     16361       143  SLPC      H15C          -10.9204638803      -29.9822250304      -16.2773820180  MEMB      143             0.0000000000
     16362       143  SLPC      C12            -9.2018217231      -28.6547870919      -17.9911173681  MEMB      143             0.0000000000
     16363       143  SLPC      H12A           -8.8340626584      -28.4731859336      -18.9889608736  MEMB      143             0.0000000000
     16364       143  SLPC      H12B           -8.7193464106      -29.5393550050      -17.5986291787  MEMB      143             0.0000000000
     16365       143  SLPC      C11            -8.6658849295      -27.5345315266      -17.0897836942  MEMB      143             0.0000000000
     16366       143  SLPC      H11A           -7.5733028306      -27.4386015497      -17.2953220508  MEMB      143             0.0000000000
     16367       143  SLPC      H11B           -8.7930406746      -27.9229694173      -16.0445245335  MEMB      143             0.0000000000
     16368       143  SLPC      P              -9.5838330158      -25.3578142880      -16.0593055147  MEMB      143             0.0000000000
     16369       143  SLPC      O13            -9.5703357200      -23.9145938673      -16.4068428300  MEMB      143             0.0000000000
     16370       143  SLPC      O14           -10.5593495955      -26.0539582769      -15.1979285066  MEMB      143             0.0000000000
     16371       143  SLPC      O12            -9.3052072830      -26.2725940897      -17.3090510257  MEMB      143             0.0000000000
     16372       143  SLPC      O11            -8.3258192274      -25.6146434989      -15.3755458432  MEMB      143             0.0000000000
     16373       143  SLPC      C1             -7.2576254309      -24.9534825981      -15.9748003782  MEMB      143             0.0000000000
     16374       143  SLPC      HA             -6.9105286939      -25.5896004131      -16.7884714227  MEMB      143             0.0000000000
     16375       143  SLPC      HB             -7.3100313976      -23.9657033107      -16.4720562353  MEMB      143             0.0000000000
     16376       143  SLPC      C2             -6.5035519126      -24.5947913655      -14.7965616417  MEMB      143             0.0000000000
     16377       143  SLPC      HS             -5.5791911304      -24.9544814847      -15.2700607069  MEMB      143             0.0000000000
     16378       143  SLPC      O21            -7.0167498413      -25.3173471103      -13.5565507948  MEMB      143             0.0000000000
     16379       143  SLPC      C21            -6.3973617972      -26.3288336427      -13.2764115611  MEMB      143             0.0000000000
     16380       143  SLPC      O22            -5.4315291992      -26.4714955724      -14.0007359680  MEMB      143             0.0000000000
     16381       143  SLPC      C22            -6.9993860424      -27.5314247211      -12.0610645001  MEMB      143             0.0000000000
     16382       143  SLPC      H2R            -6.7688471858      -28.6950178381      -11.9791845888  MEMB      143             0.0000000000
     16383       143  SLPC      H2S            -6.4060924689      -28.5124437282      -11.8960466324  MEMB      143             0.0000000000
     16384       143  SLPC      C3             -6.5865150456      -23.0054604884      -14.5425592592  MEMB      143             0.0000000000
     16385       143  SLPC      HX             -6.4326722933      -22.4662223174      -15.5052969537  MEMB      143             0.0000000000
     16386       143  SLPC      HY             -5.6486579219      -22.4717656152      -14.2271956252  MEMB      143             0.0000000000
     16387       143  SLPC      O31            -7.5880768668      -22.6385120898      -13.4727604571  MEMB      143             0.0000000000
     16388       143  SLPC      C31            -8.2010899374      -23.3531634269      -12.4484624228  MEMB      143             0.0000000000
     16389       143  SLPC      O32            -7.8701416747      -23.8582311474      -11.4298652564  MEMB      143             0.0000000000
     16390       143  SLPC      C32            -9.5786605711      -23.1956719985      -12.2365318534  MEMB      143             0.0000000000
     16391       143  SLPC      H2X            -9.9664983750      -22.9481846085      -13.2147677798  MEMB      143             0.0000000000
     16392       143  SLPC      H2Y            -9.5056575137      -22.3662986287      -11.5224606947  MEMB      143             0.0000000000
     16393       143  SLPC      C23            -8.0373862691      -27.2736672351      -11.3561414746  MEMB      143             0.0000000000
     16394       143  SLPC      H3R            -8.6180582429      -27.0088475404      -12.2382771033  MEMB      143             0.0000000000
     16395       143  SLPC      H3S            -7.7226032260      -26.3754157282      -10.8146572854  MEMB      143             0.0000000000
     16396       143  SLPC      C24            -8.4595212106      -28.5194476950      -10.6833529990  MEMB      143             0.0000000000
     16397       143  SLPC      H4R            -7.9232369368      -28.9439325159       -9.8674341767  MEMB      143             0.0000000000
     16398       143  SLPC      H4S            -8.4188672869      -29.4228804288      -11.3181151781  MEMB      143             0.0000000000
     16399       143  SLPC      C25            -9.5289921279      -28.0550944486       -9.8368966313  MEMB      143             0.0000000000
     16400       143  SLPC      H5R           -10.3021157812      -28.0790456893      -10.6151975166  MEMB      143             0.0000000000
     16401       143  SLPC      H5S            -9.3034346941      -27.0139493144       -9.4611361533  MEMB      143             0.0000000000
     16402       143  SLPC      C26            -9.6517848471      -29.0137920620       -8.6983900444  MEMB      143             0.0000000000
     16403       143  SLPC      H6R            -9.0923230996      -29.9859606240       -8.7636929115  MEMB      143             0.0000000000
     16404       143  SLPC      H6S           -10.7281463538      -29.2285929322       -8.6527377281  MEMB      143             0.0000000000
     16405       143  SLPC      C27            -9.5297203423      -28.3875671568       -7.3743066082  MEMB      143             0.0000000000
     16406       143  SLPC      H7R            -9.8714341660      -29.3452479391       -6.8699067619  MEMB      143             0.0000000000
     16407       143  SLPC      H7S            -9.8770810659      -27.3303887535       -7.2213395856  MEMB      143             0.0000000000
     16408       143  SLPC      C28            -8.4352319040      -28.5213372531       -6.4719368609  MEMB      143             0.0000000000
     16409       143  SLPC      H8R            -7.9188420666      -27.8485633945       -7.1990337327  MEMB      143             0.0000000000
     16410       143  SLPC      H8S            -9.2339220617      -28.2722985487       -5.6434038916  MEMB      143             0.0000000000
     16411       143  SLPC      C29            -7.8489691148      -27.7111602070       -5.5627543834  MEMB      143             0.0000000000
     16412       143  SLPC      H9R            -7.7066426494      -26.6624809461       -5.7154492378  MEMB      143             0.0000000000
     16413       143  SLPC      C210           -7.1224535176      -28.4582003121       -4.8834829394  MEMB      143             0.0000000000
     16414       143  SLPC      H10R           -6.8195212555      -27.7601735517       -4.1109339435  MEMB      143             0.0000000000
     16415       143  SLPC      C211           -6.8525868556      -30.0289667875       -4.9099501201  MEMB      143             0.0000000000
     16416       143  SLPC      H11R           -7.6566434585      -30.5510802481       -5.4228772494  MEMB      143             0.0000000000
     16417       143  SLPC      H11S           -7.0077036603      -30.3204945738       -3.9908872956  MEMB      143             0.0000000000
     16418       143  SLPC      C212           -5.5805456763      -30.9267264201       -4.7919837539  MEMB      143             0.0000000000
     16419       143  SLPC      H12R           -4.9976315907      -30.9139372585       -5.6421454100  MEMB      143             0.0000000000
     16420       143  SLPC      C213           -4.5924292266      -31.3734875427       -3.9994123574  MEMB      143             0.0000000000
     16421       143  SLPC      H13R           -3.6517254352      -31.4449333600       -4.5767696093  MEMB      143             0.0000000000
     16422       143  SLPC      C214           -4.1140556522      -31.2296222515       -2.5677598185  MEMB      143             0.0000000000
     16423       143  SLPC      H14R           -3.2743658042      -31.7768900336       -2.1502012718  MEMB      143             0.0000000000
     16424       143  SLPC      H14S           -4.9778647476      -31.5439579640       -2.0512499913  MEMB      143             0.0000000000
     16425       143  SLPC      C215           -3.4260781581      -30.1561456210       -1.9033087951  MEMB      143             0.0000000000
     16426       143  SLPC      H15R           -4.1951340903      -29.8203969232       -2.4558549068  MEMB      143             0.0000000000
     16427       143  SLPC      H15S           -2.8499832049      -29.6148086656       -2.5312121072  MEMB      143             0.0000000000
     16428       143  SLPC      C216           -3.5392066031      -29.8320771790       -0.3953704804  MEMB      143             0.0000000000
     16429       143  SLPC      H16R           -2.5094406369      -30.1309374072       -0.1787855906  MEMB      143             0.0000000000
     16430       143  SLPC      H16S           -4.2459120026      -30.5475638898        0.0572359931  MEMB      143             0.0000000000
     16431       143  SLPC      C217           -3.8941566970      -28.4452653981        0.3184000975  MEMB      143             0.0000000000
     16432       143  SLPC      H17R           -3.4886543002      -28.4585588835        1.3335874117  MEMB      143             0.0000000000
     16433       143  SLPC      H17S           -4.9359749455      -28.2862370085        0.4474179960  MEMB      143             0.0000000000
     16434       143  SLPC      C218           -3.7214404123      -27.0527323619       -0.2429102742  MEMB      143             0.0000000000
     16435       143  SLPC      H18R           -4.0085620587      -26.7749254834       -1.2522806271  MEMB      143             0.0000000000
     16436       143  SLPC      H18S           -2.7515601077      -27.0876292261       -0.5015798062  MEMB      143             0.0000000000
     16437       143  SLPC      H18T           -3.5539821812      -26.1623860237        0.2493644969  MEMB      143             0.0000000000
     16438       143  SLPC      C33           -10.0092858611      -24.5423627129      -11.5348266243  MEMB      143             0.0000000000
     16439       143  SLPC      H3X            -9.6091420309      -24.8189432443      -10.5134826651  MEMB      143             0.0000000000
     16440       143  SLPC      H3Y            -9.7530690397      -25.3693386483      -12.2264066532  MEMB      143             0.0000000000
     16441       143  SLPC      C34           -11.4575906915      -24.4628620888      -11.2748972302  MEMB      143             0.0000000000
     16442       143  SLPC      H4X           -11.8532249122      -23.9671661983      -12.1759180708  MEMB      143             0.0000000000
     16443       143  SLPC      H4Y           -11.5092149658      -23.7544541702      -10.4478008859  MEMB      143             0.0000000000
     16444       143  SLPC      C35           -12.2101406904      -25.7796991930      -11.0480931979  MEMB      143             0.0000000000
     16445       143  SLPC      H5X           -11.7269425166      -26.6407546192      -11.5219602408  MEMB      143             0.0000000000
     16446       143  SLPC      H5Y           -13.2152563895      -25.5639411374      -11.4666632151  MEMB      143             0.0000000000
     16447       143  SLPC      C36           -12.4173306703      -26.2323677740       -9.6184079842  MEMB      143             0.0000000000
     16448       143  SLPC      H6X           -13.1532130879      -25.4977679346       -9.3963896541  MEMB      143             0.0000000000
     16449       143  SLPC      H6Y           -11.4877913332      -26.1540005940       -9.0086577415  MEMB      143             0.0000000000
     16450       143  SLPC      C37           -13.5552519946      -27.1561125424       -9.0803757190  MEMB      143             0.0000000000
     16451       143  SLPC      H7X           -13.0516249544      -28.1108077503       -9.2385408562  MEMB      143             0.0000000000
     16452       143  SLPC      H7Y           -14.4606682693      -26.9956784593       -9.7034851477  MEMB      143             0.0000000000
     16453       143  SLPC      C38           -14.0336139923      -27.1062656008       -7.5770818706  MEMB      143             0.0000000000
     16454       143  SLPC      H8X           -14.9956322890      -27.6197920664       -7.4237956978  MEMB      143             0.0000000000
     16455       143  SLPC      H8Y           -14.3222222559      -26.0888405506       -7.2160285519  MEMB      143             0.0000000000
     16456       143  SLPC      C39           -12.9126342622      -27.7161452369       -6.6884858066  MEMB      143             0.0000000000
     16457       143  SLPC      H9X           -11.9419039728      -27.1721082568       -6.6874434949  MEMB      143             0.0000000000
     16458       143  SLPC      H9Y           -12.7091562985      -28.7135050722       -7.1085100587  MEMB      143             0.0000000000
     16459       143  SLPC      C310          -13.2892929040      -27.9700001114       -5.2599287436  MEMB      143             0.0000000000
     16460       143  SLPC      H10X          -12.7568731131      -28.7886396662       -4.7639363201  MEMB      143             0.0000000000
     16461       143  SLPC      H10Y          -14.4091965693      -28.1024671219       -5.2028908713  MEMB      143             0.0000000000
     16462       143  SLPC      C311          -12.9318378813      -26.9545935592       -4.2191463973  MEMB      143             0.0000000000
     16463       143  SLPC      H11X          -13.4521567934      -27.3518966221       -3.3499955922  MEMB      143             0.0000000000
     16464       143  SLPC      H11Y          -13.5857454274      -26.2945546241       -4.6546636400  MEMB      143             0.0000000000
     16465       143  SLPC      C312          -11.7638386983      -25.9811897012       -4.0002730992  MEMB      143             0.0000000000
     16466       143  SLPC      H12X          -12.1031629080      -24.9793778182       -3.5791994138  MEMB      143             0.0000000000
     16467       143  SLPC      H12Y          -11.1645281467      -25.7117656300       -4.9077252765  MEMB      143             0.0000000000
     16468       143  SLPC      C313          -10.8775637932      -26.7166624593       -3.1707486031  MEMB      143             0.0000000000
     16469       143  SLPC      H13X          -10.7330836893      -27.6428210658       -3.7772910204  MEMB      143             0.0000000000
     16470       143  SLPC      H13Y          -11.4367443633      -26.8987537412       -2.2279911013  MEMB      143             0.0000000000
     16471       143  SLPC      C314           -9.6366687569      -25.9070121948       -3.0658190431  MEMB      143             0.0000000000
     16472       143  SLPC      H14X           -9.4304539551      -25.3094272217       -3.9886894280  MEMB      143             0.0000000000
     16473       143  SLPC      H14Y           -8.8480783503      -26.6738393277       -2.9634918995  MEMB      143             0.0000000000
     16474       143  SLPC      C315           -9.7405725090      -25.0046383505       -1.8548062343  MEMB      143             0.0000000000
     16475       143  SLPC      H15X           -9.7061195108      -25.6851665990       -0.9778442293  MEMB      143             0.0000000000
     16476       143  SLPC      H15Y          -10.7374772382      -24.4992849878       -1.7883337567  MEMB      143             0.0000000000
     16477       143  SLPC      C316           -8.6043325691      -23.9813271439       -1.8098171548  MEMB      143             0.0000000000
     16478       143  SLPC      H16X           -8.4667360207      -23.6816725575       -0.7519169166  MEMB      143             0.0000000000
     16479       143  SLPC      H16Y           -8.8421348296      -23.0904197982       -2.4325340401  MEMB      143             0.0000000000
     16480       143  SLPC      C317           -7.2156903221      -24.4688769486       -2.1468447526  MEMB      143             0.0000000000
     16481       143  SLPC      H17X           -6.5347079111      -23.5949153227       -2.1675082472  MEMB      143             0.0000000000
     16482       143  SLPC      H17Y           -7.2292792481      -24.9831192810       -3.1331875793  MEMB      143             0.0000000000
     16483       143  SLPC      C318           -6.6745915678      -25.3807691934       -1.0838734297  MEMB      143             0.0000000000
     16484       143  SLPC      H18X           -5.6819025956      -25.7327746514       -1.3827019619  MEMB      143             0.0000000000
     16485       143  SLPC      H18Y           -7.3589938675      -26.2249715139       -1.0705570744  MEMB      143             0.0000000000
     16486       143  SLPC      H18Z           -6.5887769409      -24.9680862847       -0.0626574325  MEMB      143             0.0000000000
     16487       144  CHL1      C3             29.6868315921       -0.8353654300      -17.3028107697  MEMB      144             0.0000000000
     16488       144  CHL1      H3             28.6046201030       -0.5694921967      -17.3186792225  MEMB      144             0.0000000000
     16489       144  CHL1      O3             30.1121484780       -1.1291074593      -18.6252725549  MEMB      144             0.0000000000
     16490       144  CHL1      H3'            31.0731768864       -0.9956188685      -18.5681861942  MEMB      144             0.0000000000
     16491       144  CHL1      C4             30.5079909998        0.3636585230      -16.7759490568  MEMB      144             0.0000000000
     16492       144  CHL1      H4A            31.5870053426        0.1956421878      -16.9409206111  MEMB      144             0.0000000000
     16493       144  CHL1      H4B            30.2323821438        1.2620188601      -17.3756774628  MEMB      144             0.0000000000
     16494       144  CHL1      C5             30.3057943210        0.6114295514      -15.3025361874  MEMB      144             0.0000000000
     16495       144  CHL1      C6             29.9664708164        1.8228119479      -14.8520965398  MEMB      144             0.0000000000
     16496       144  CHL1      H6             29.9062110484        2.6751414880      -15.5422480690  MEMB      144             0.0000000000
     16497       144  CHL1      C7             29.6966704105        2.0980137215      -13.4136656610  MEMB      144             0.0000000000
     16498       144  CHL1      H7A            30.1490667825        3.0567096805      -13.0879376582  MEMB      144             0.0000000000
     16499       144  CHL1      H7B            28.5933755250        2.1271077747      -13.2841144531  MEMB      144             0.0000000000
     16500       144  CHL1      C8             30.2123967728        1.0190506498      -12.4588890160  MEMB      144             0.0000000000
     16501       144  CHL1      H8             31.3149303455        1.1140246381      -12.3703432128  MEMB      144             0.0000000000
     16502       144  CHL1      C14            29.6037717043        1.2720757909      -11.1008734599  MEMB      144             0.0000000000
     16503       144  CHL1      H14            28.4966229296        1.0973200713      -11.2216604114  MEMB      144             0.0000000000
     16504       144  CHL1      C15            29.7584073248        2.6480468247      -10.4630241571  MEMB      144             0.0000000000
     16505       144  CHL1      H15A           30.8199421727        2.9414316046      -10.6028619930  MEMB      144             0.0000000000
     16506       144  CHL1      H15B           29.0791079939        3.4258542435      -10.8573010533  MEMB      144             0.0000000000
     16507       144  CHL1      C16            29.4688631767        2.3857632159       -8.9895717051  MEMB      144             0.0000000000
     16508       144  CHL1      H16A           30.3253247514        2.7564335450       -8.3876207702  MEMB      144             0.0000000000
     16509       144  CHL1      H16B           28.5525569125        2.8989435826       -8.6445911783  MEMB      144             0.0000000000
     16510       144  CHL1      C17            29.3322055331        0.8420158933       -8.8287003270  MEMB      144             0.0000000000
     16511       144  CHL1      H17            28.2538967144        0.5768691917       -8.9785491312  MEMB      144             0.0000000000
     16512       144  CHL1      C13            30.0808296006        0.3100465356      -10.0505627272  MEMB      144             0.0000000000
     16513       144  CHL1      C18            31.5937310832        0.2199313019       -9.7623635668  MEMB      144             0.0000000000
     16514       144  CHL1      H18A           31.7989344525       -0.6949031007       -9.1610688377  MEMB      144             0.0000000000
     16515       144  CHL1      H18B           32.1671825334        0.0939291787      -10.7005025106  MEMB      144             0.0000000000
     16516       144  CHL1      H18C           31.9517993111        1.0910846043       -9.1919787830  MEMB      144             0.0000000000
     16517       144  CHL1      C12            29.6433727692       -0.9843664194      -10.5860458872  MEMB      144             0.0000000000
     16518       144  CHL1      H12A           29.9859364516       -1.6876835698       -9.8001554119  MEMB      144             0.0000000000
     16519       144  CHL1      H12B           28.5237463716       -0.8971890650      -10.6853889804  MEMB      144             0.0000000000
     16520       144  CHL1      C11            30.2058129627       -1.4429973847      -11.9229905240  MEMB      144             0.0000000000
     16521       144  CHL1      H11A           31.2947333975       -1.5191282124      -11.7687736832  MEMB      144             0.0000000000
     16522       144  CHL1      H11B           29.8548052883       -2.4664716180      -12.1961220017  MEMB      144             0.0000000000
     16523       144  CHL1      C9             29.8641642313       -0.3739438911      -12.9785156222  MEMB      144             0.0000000000
     16524       144  CHL1      H9             28.7470821965       -0.4094069528      -13.0858819955  MEMB      144             0.0000000000
     16525       144  CHL1      C10            30.4297074678       -0.6215604389      -14.3880632821  MEMB      144             0.0000000000
     16526       144  CHL1      C19            31.9377452115       -0.9477716392      -14.3049257728  MEMB      144             0.0000000000
     16527       144  CHL1      H19A           32.3650361560       -1.1176189247      -15.3138397501  MEMB      144             0.0000000000
     16528       144  CHL1      H19B           32.5080304813       -0.1384570855      -13.8061654074  MEMB      144             0.0000000000
     16529       144  CHL1      H19C           32.0681777464       -1.8863245126      -13.7350472176  MEMB      144             0.0000000000
     16530       144  CHL1      C1             29.7048543228       -1.8618258731      -14.9433234144  MEMB      144             0.0000000000
     16531       144  CHL1      H1A            30.1067167863       -2.7449169017      -14.3990978412  MEMB      144             0.0000000000
     16532       144  CHL1      H1B            28.6278429224       -1.8121721914      -14.6739208835  MEMB      144             0.0000000000
     16533       144  CHL1      C2             29.9307402020       -2.0875598527      -16.4415404567  MEMB      144             0.0000000000
     16534       144  CHL1      H2A            29.3092365414       -2.9511056922      -16.7468938330  MEMB      144             0.0000000000
     16535       144  CHL1      H2B            30.9919111566       -2.3786757038      -16.5902634473  MEMB      144             0.0000000000
     16536       144  CHL1      C20            29.7178675814        0.4086190991       -7.4112006343  MEMB      144             0.0000000000
     16537       144  CHL1      H20            30.7554680184        0.7456355745       -7.1923667966  MEMB      144             0.0000000000
     16538       144  CHL1      C21            29.6665803472       -1.0548101050       -7.1747255728  MEMB      144             0.0000000000
     16539       144  CHL1      H21A           29.6967176987       -1.4332219575       -6.1346605225  MEMB      144             0.0000000000
     16540       144  CHL1      H21B           30.5242818971       -1.5303048225       -7.6900276229  MEMB      144             0.0000000000
     16541       144  CHL1      H21C           28.6802158582       -1.3677481488       -7.5784852075  MEMB      144             0.0000000000
     16542       144  CHL1      C22            28.7421550218        0.9735019769       -6.4032585646  MEMB      144             0.0000000000
     16543       144  CHL1      H22A           28.7034370207        2.0133447316       -6.7445445929  MEMB      144             0.0000000000
     16544       144  CHL1      H22B           27.6712840124        0.7222354830       -6.4723406126  MEMB      144             0.0000000000
     16545       144  CHL1      C23            29.2181803885        0.7362643647       -4.9438899199  MEMB      144             0.0000000000
     16546       144  CHL1      H23A           29.2819040873       -0.3008995587       -4.5923099691  MEMB      144             0.0000000000
     16547       144  CHL1      H23B           30.2798381937        1.0759935667       -5.0160563310  MEMB      144             0.0000000000
     16548       144  CHL1      C24            28.1878033194        1.3961924679       -3.9824904758  MEMB      144             0.0000000000
     16549       144  CHL1      H24A           27.7617486268        2.0759501095       -4.7441115512  MEMB      144             0.0000000000
     16550       144  CHL1      H24B           27.2692201206        0.8398101968       -3.8076068153  MEMB      144             0.0000000000
     16551       144  CHL1      C25            28.5994370410        2.0434775256       -2.5903221096  MEMB      144             0.0000000000
     16552       144  CHL1      H25            29.5715237695        2.5805300168       -2.6898288853  MEMB      144             0.0000000000
     16553       144  CHL1      C26            27.5721486362        3.0045145744       -1.8904643176  MEMB      144             0.0000000000
     16554       144  CHL1      H26A           27.0936222753        3.8507855804       -2.4139750146  MEMB      144             0.0000000000
     16555       144  CHL1      H26B           26.6880406144        2.6172934784       -1.4176952412  MEMB      144             0.0000000000
     16556       144  CHL1      H26C           28.2298293607        3.6206572390       -1.2500151375  MEMB      144             0.0000000000
     16557       144  CHL1      C27            29.1619315691        1.1514671108       -1.5702208555  MEMB      144             0.0000000000
     16558       144  CHL1      H27A           30.0020883029        0.6308776189       -2.0858798039  MEMB      144             0.0000000000
     16559       144  CHL1      H27B           29.5291467191        1.7916186483       -0.7227815269  MEMB      144             0.0000000000
     16560       144  CHL1      H27C           28.2540136807        0.5773431542       -1.3336188316  MEMB      144             0.0000000000
     16561       145  SAPC      N             -16.3197049932       23.0966590096      -19.2854193075  MEMB      145             0.0000000000
     16562       145  SAPC      C12           -15.0124528285       23.8602558367      -19.4836998470  MEMB      145             0.0000000000
     16563       145  SAPC      H12A          -14.3477175678       23.2283069169      -20.0574110578  MEMB      145             0.0000000000
     16564       145  SAPC      H12B          -14.5739767924       24.0201196376      -18.5056538783  MEMB      145             0.0000000000
     16565       145  SAPC      C13           -17.2460424414       23.9261192161      -18.4532355140  MEMB      145             0.0000000000
     16566       145  SAPC      H13A          -16.7119238900       24.3820994274      -17.6282846195  MEMB      145             0.0000000000
     16567       145  SAPC      H13B          -17.5775398451       24.7587155425      -19.0842551732  MEMB      145             0.0000000000
     16568       145  SAPC      H13C          -18.1129529929       23.3996629844      -18.0924292774  MEMB      145             0.0000000000
     16569       145  SAPC      C14           -17.0327036222       22.8068570800      -20.5761837326  MEMB      145             0.0000000000
     16570       145  SAPC      H14A          -17.3503231997       23.7445398926      -21.0252252032  MEMB      145             0.0000000000
     16571       145  SAPC      H14B          -16.3997412751       22.2613047821      -21.2599537355  MEMB      145             0.0000000000
     16572       145  SAPC      H14C          -17.9216749008       22.1980172999      -20.4321792542  MEMB      145             0.0000000000
     16573       145  SAPC      C15           -16.0129586197       21.7982002158      -18.6287612473  MEMB      145             0.0000000000
     16574       145  SAPC      H15A          -15.1928882586       21.2994742631      -19.1341459812  MEMB      145             0.0000000000
     16575       145  SAPC      H15B          -15.7771038986       21.8969399869      -17.5809586928  MEMB      145             0.0000000000
     16576       145  SAPC      H15C          -16.8840703434       21.1635859228      -18.7170453362  MEMB      145             0.0000000000
     16577       145  SAPC      C11           -14.9788447861       25.2419684936      -20.1922060548  MEMB      145             0.0000000000
     16578       145  SAPC      H11A          -15.0932650537       25.0432565808      -21.2879113724  MEMB      145             0.0000000000
     16579       145  SAPC      H11B          -13.9574344095       25.6696993702      -20.0310555989  MEMB      145             0.0000000000
     16580       145  SAPC      P             -16.7491811406       27.0439338196      -20.7598694705  MEMB      145             0.0000000000
     16581       145  SAPC      O13           -15.8459226245       27.4101395723      -21.8804562015  MEMB      145             0.0000000000
     16582       145  SAPC      O14           -17.9910234383       26.3115537798      -21.0930547525  MEMB      145             0.0000000000
     16583       145  SAPC      O12           -15.9515438456       26.1601133940      -19.6833575074  MEMB      145             0.0000000000
     16584       145  SAPC      O11           -17.0970718073       28.3548598477      -19.9386665991  MEMB      145             0.0000000000
     16585       145  SAPC      C1            -17.9972768140       28.4133560983      -18.8339519265  MEMB      145             0.0000000000
     16586       145  SAPC      HA            -18.8800438163       29.0179718841      -19.1285611843  MEMB      145             0.0000000000
     16587       145  SAPC      HB            -18.3777585484       27.4044115498      -18.5600579933  MEMB      145             0.0000000000
     16588       145  SAPC      C2            -17.3351857038       29.1171812486      -17.6112937428  MEMB      145             0.0000000000
     16589       145  SAPC      HS            -17.0966738627       30.1806636094      -17.7855983684  MEMB      145             0.0000000000
     16590       145  SAPC      O21           -16.1118201626       28.4353952503      -17.4465171435  MEMB      145             0.0000000000
     16591       145  SAPC      C21           -15.4893583523       28.3532495185      -16.3560691545  MEMB      145             0.0000000000
     16592       145  SAPC      O22           -15.5689067434       28.9717645672      -15.3267817666  MEMB      145             0.0000000000
     16593       145  SAPC      C22           -14.5142758928       27.3006322903      -16.4462762639  MEMB      145             0.0000000000
     16594       145  SAPC      H2R           -13.9515130122       27.5742694686      -17.3505374362  MEMB      145             0.0000000000
     16595       145  SAPC      H2S           -14.0565822663       27.5316981972      -15.5056546518  MEMB      145             0.0000000000
     16596       145  SAPC      C3            -18.2193508018       29.0810840676      -16.3751623088  MEMB      145             0.0000000000
     16597       145  SAPC      HX            -19.2269895150       29.5129280291      -16.5884306860  MEMB      145             0.0000000000
     16598       145  SAPC      HY            -17.7529153782       29.7385525493      -15.5879880278  MEMB      145             0.0000000000
     16599       145  SAPC      O31           -18.3162997811       27.6760461415      -16.0548549333  MEMB      145             0.0000000000
     16600       145  SAPC      C31           -18.9224533810       27.5489710744      -14.9182865421  MEMB      145             0.0000000000
     16601       145  SAPC      O32           -19.2001132937       28.4753510737      -14.1948116121  MEMB      145             0.0000000000
     16602       145  SAPC      C32           -19.2254511361       26.1109032160      -14.6135532919  MEMB      145             0.0000000000
     16603       145  SAPC      H2X           -18.2600959591       25.5952910830      -14.5979070116  MEMB      145             0.0000000000
     16604       145  SAPC      H2Y           -19.9307706493       25.6904450835      -15.3656619883  MEMB      145             0.0000000000
     16605       145  SAPC      C23           -14.9159950540       25.8523845221      -16.2312106583  MEMB      145             0.0000000000
     16606       145  SAPC      H3R           -14.0086555608       25.2137593969      -16.3749543503  MEMB      145             0.0000000000
     16607       145  SAPC      H3S           -15.6696166525       25.6684180543      -17.0123158929  MEMB      145             0.0000000000
     16608       145  SAPC      C24           -15.5032858646       25.5505792217      -14.8412895620  MEMB      145             0.0000000000
     16609       145  SAPC      H4R           -15.9486594526       24.5356520821      -14.9131054159  MEMB      145             0.0000000000
     16610       145  SAPC      H4S           -16.3220935065       26.2770707947      -14.6560092977  MEMB      145             0.0000000000
     16611       145  SAPC      C25           -14.4903666668       25.5263905762      -13.7258364575  MEMB      145             0.0000000000
     16612       145  SAPC      H5R           -13.4477475324       25.4283923295      -14.0563355950  MEMB      145             0.0000000000
     16613       145  SAPC      C26           -14.7350948303       25.6306928609      -12.4102212965  MEMB      145             0.0000000000
     16614       145  SAPC      H6R           -13.8998993807       25.4529794759      -11.7107710738  MEMB      145             0.0000000000
     16615       145  SAPC      C27           -16.0899338966       25.7934273441      -11.7738607375  MEMB      145             0.0000000000
     16616       145  SAPC      H7R           -16.8793775356       25.4288346953      -12.4669129464  MEMB      145             0.0000000000
     16617       145  SAPC      H7S           -16.2997973080       26.8696371827      -11.5726836950  MEMB      145             0.0000000000
     16618       145  SAPC      C28           -16.0828333803       24.9825801985      -10.5048679079  MEMB      145             0.0000000000
     16619       145  SAPC      H8R           -15.9068824120       23.9065352835      -10.6568102952  MEMB      145             0.0000000000
     16620       145  SAPC      C29           -16.2357378871       25.4307926305       -9.2472584895  MEMB      145             0.0000000000
     16621       145  SAPC      H9R           -16.2366743454       24.6715355577       -8.4482715478  MEMB      145             0.0000000000
     16622       145  SAPC      C210          -16.4594568608       26.8656887694       -8.8128031620  MEMB      145             0.0000000000
     16623       145  SAPC      H10R          -17.1085717864       27.3792870724       -9.5520211729  MEMB      145             0.0000000000
     16624       145  SAPC      H10S          -15.5145159918       27.4618235596       -8.8066441763  MEMB      145             0.0000000000
     16625       145  SAPC      C211          -17.1448196152       26.8832857883       -7.4661155556  MEMB      145             0.0000000000
     16626       145  SAPC      H11R          -17.8451215512       26.0589621159       -7.2744208605  MEMB      145             0.0000000000
     16627       145  SAPC      C212          -16.8704043920       27.7202847636       -6.4595576492  MEMB      145             0.0000000000
     16628       145  SAPC      H12R          -17.3624400927       27.5971906392       -5.4836869761  MEMB      145             0.0000000000
     16629       145  SAPC      C213          -15.8219585232       28.7781810985       -6.5290482162  MEMB      145             0.0000000000
     16630       145  SAPC      H13R          -15.7412475023       29.2589308730       -7.5232371869  MEMB      145             0.0000000000
     16631       145  SAPC      H13S          -14.8639826654       28.1880101686       -6.4726248740  MEMB      145             0.0000000000
     16632       145  SAPC      C214          -16.0863207501       29.8880525999       -5.4995181040  MEMB      145             0.0000000000
     16633       145  SAPC      H14R          -17.0194399755       30.4145223627       -5.5383351660  MEMB      145             0.0000000000
     16634       145  SAPC      C215          -15.4527581653       30.0636893054       -4.3343430083  MEMB      145             0.0000000000
     16635       145  SAPC      H15R          -15.1650188461       31.0702711667       -3.9787359691  MEMB      145             0.0000000000
     16636       145  SAPC      C216          -14.4212298282       29.1039003006       -4.0548073776  MEMB      145             0.0000000000
     16637       145  SAPC      H16R          -13.9392833649       29.3634808643       -4.9436113384  MEMB      145             0.0000000000
     16638       145  SAPC      H16S          -14.3291911166       28.1849699598       -4.6279382752  MEMB      145             0.0000000000
     16639       145  SAPC      C217          -13.6692130063       28.9965127215       -2.7309670779  MEMB      145             0.0000000000
     16640       145  SAPC      H17R          -13.4449885840       29.8664693257       -2.0864744951  MEMB      145             0.0000000000
     16641       145  SAPC      H17S          -12.5967012547       28.8237463103       -2.6932687336  MEMB      145             0.0000000000
     16642       145  SAPC      C218          -14.3205549263       27.7626865842       -2.2998857101  MEMB      145             0.0000000000
     16643       145  SAPC      H18R          -14.5230967065       27.0282558553       -3.1073083707  MEMB      145             0.0000000000
     16644       145  SAPC      H18S          -15.2988087014       28.1700463544       -2.0453238887  MEMB      145             0.0000000000
     16645       145  SAPC      C219          -13.5385036120       27.1408941451       -1.2415730835  MEMB      145             0.0000000000
     16646       145  SAPC      H19R          -14.1664478336       26.8232259650       -0.4057701821  MEMB      145             0.0000000000
     16647       145  SAPC      H19S          -12.6466647788       27.7306175875       -0.8228388355  MEMB      145             0.0000000000
     16648       145  SAPC      C220          -13.0785338714       25.9671927963       -1.9056314984  MEMB      145             0.0000000000
     16649       145  SAPC      H20R          -13.5629742961       25.1818522780       -2.4648389436  MEMB      145             0.0000000000
     16650       145  SAPC      H20S          -12.3617668005       25.7323956113       -1.2474141884  MEMB      145             0.0000000000
     16651       145  SAPC      H20T          -12.3895654839       26.2341996590       -2.5963455448  MEMB      145             0.0000000000
     16652       145  SAPC      C33           -19.8568766786       26.0092745409      -13.2307231018  MEMB      145             0.0000000000
     16653       145  SAPC      H3X           -20.9157968296       26.1026040029      -13.4682198037  MEMB      145             0.0000000000
     16654       145  SAPC      H3Y           -19.5472216124       26.7893816293      -12.4910847308  MEMB      145             0.0000000000
     16655       145  SAPC      C34           -19.8758635318       24.6342866058      -12.6249455009  MEMB      145             0.0000000000
     16656       145  SAPC      H4X           -18.8355553375       24.3101954340      -12.4446506408  MEMB      145             0.0000000000
     16657       145  SAPC      H4Y           -20.3420420454       23.9516499150      -13.3722282662  MEMB      145             0.0000000000
     16658       145  SAPC      C35           -20.6303413499       24.6326600912      -11.3019332357  MEMB      145             0.0000000000
     16659       145  SAPC      H5X           -21.6791596931       25.0071742787      -11.3726833595  MEMB      145             0.0000000000
     16660       145  SAPC      H5Y           -20.1185357553       25.2840826247      -10.5590251524  MEMB      145             0.0000000000
     16661       145  SAPC      C36           -20.6830217987       23.2373553946      -10.7405650821  MEMB      145             0.0000000000
     16662       145  SAPC      H6X           -19.7506310320       22.6613402439      -10.8697402522  MEMB      145             0.0000000000
     16663       145  SAPC      H6Y           -21.3979265670       22.7069771364      -11.3997155354  MEMB      145             0.0000000000
     16664       145  SAPC      C37           -21.0063425493       23.3456001061       -9.2542431934  MEMB      145             0.0000000000
     16665       145  SAPC      H7X           -21.3134699094       22.3680962772       -8.8746064052  MEMB      145             0.0000000000
     16666       145  SAPC      H7Y           -21.8310287565       24.0611457876       -9.0321488105  MEMB      145             0.0000000000
     16667       145  SAPC      C38           -19.8254141144       23.5071691679       -8.3366079268  MEMB      145             0.0000000000
     16668       145  SAPC      H8X           -19.3979042931       24.5198410237       -8.4207033587  MEMB      145             0.0000000000
     16669       145  SAPC      H8Y           -19.0740309423       22.7670045358       -8.6973192832  MEMB      145             0.0000000000
     16670       145  SAPC      C39           -20.2742603840       23.1883283858       -6.9059782111  MEMB      145             0.0000000000
     16671       145  SAPC      H9X           -20.3979117342       22.0935278222       -6.8233520742  MEMB      145             0.0000000000
     16672       145  SAPC      H9Y           -21.2553974945       23.6605615386       -6.6659911151  MEMB      145             0.0000000000
     16673       145  SAPC      C310          -19.2354518738       23.5806661254       -5.8862170736  MEMB      145             0.0000000000
     16674       145  SAPC      H10X          -19.0290644336       24.6626733796       -5.9027480809  MEMB      145             0.0000000000
     16675       145  SAPC      H10Y          -18.3255805412       22.9554057410       -6.0646999655  MEMB      145             0.0000000000
     16676       145  SAPC      C311          -19.6175949970       23.3317036074       -4.4672462949  MEMB      145             0.0000000000
     16677       145  SAPC      H11X          -19.7825913720       22.2454516707       -4.4677396716  MEMB      145             0.0000000000
     16678       145  SAPC      H11Y          -20.5363417685       23.8479084830       -4.1268742466  MEMB      145             0.0000000000
     16679       145  SAPC      C312          -18.4035306115       23.5487613420       -3.5767823303  MEMB      145             0.0000000000
     16680       145  SAPC      H12X          -17.6833784089       22.7685254585       -3.9338209875  MEMB      145             0.0000000000
     16681       145  SAPC      H12Y          -18.6766947519       23.3757864432       -2.4975515247  MEMB      145             0.0000000000
     16682       145  SAPC      C313          -17.7113589126       24.8262200209       -3.4984239481  MEMB      145             0.0000000000
     16683       145  SAPC      H13X          -17.4422042564       25.1519797311       -4.5103886165  MEMB      145             0.0000000000
     16684       145  SAPC      H13Y          -16.8051996389       24.6219961304       -2.8713481540  MEMB      145             0.0000000000
     16685       145  SAPC      C314          -18.6659885813       25.7480728208       -2.8051116740  MEMB      145             0.0000000000
     16686       145  SAPC      H14X          -18.8538773787       25.2234167904       -1.8468795572  MEMB      145             0.0000000000
     16687       145  SAPC      H14Y          -19.6070113710       25.7966259863       -3.3896324971  MEMB      145             0.0000000000
     16688       145  SAPC      C315          -18.0432136267       27.1175565150       -2.6807979665  MEMB      145             0.0000000000
     16689       145  SAPC      H15X          -17.3469909140       27.2659279763       -3.5272835267  MEMB      145             0.0000000000
     16690       145  SAPC      H15Y          -17.2771804633       27.0462558428       -1.8745534038  MEMB      145             0.0000000000
     16691       145  SAPC      C316          -19.0324933923       28.3672870286       -2.5931858394  MEMB      145             0.0000000000
     16692       145  SAPC      H16X          -19.4342595830       28.4248197188       -3.6515087470  MEMB      145             0.0000000000
     16693       145  SAPC      H16Y          -18.4247871960       29.2374612493       -2.3281328089  MEMB      145             0.0000000000
     16694       145  SAPC      C317          -20.4440397645       28.4725364708       -1.7701174329  MEMB      145             0.0000000000
     16695       145  SAPC      H17X          -20.7525348094       27.5360213806       -2.2848688607  MEMB      145             0.0000000000
     16696       145  SAPC      H17Y          -20.8331497339       29.3389669125       -2.2762275560  MEMB      145             0.0000000000
     16697       145  SAPC      C318          -21.1844090893       28.9083711510       -0.2155946893  MEMB      145             0.0000000000
     16698       145  SAPC      H18X          -21.0531637546       28.6249596979        0.8771603322  MEMB      145             0.0000000000
     16699       145  SAPC      H18Y          -20.6426843146       29.6954630929       -0.3090509292  MEMB      145             0.0000000000
     16700       145  SAPC      H18Z          -20.8734243414       28.3077642148        0.7025971848  MEMB      145             0.0000000000
     16701       146  OSM       N              21.7132431081       17.7955919390      -21.0104757467  MEMB      146             0.0000000000
     16702       146  OSM       C15            20.4785442465       17.1225878584      -21.2806495522  MEMB      146             0.0000000000
     16703       146  OSM       H15A           19.6036127403       17.7485677697      -21.4100325544  MEMB      146             0.0000000000
     16704       146  OSM       H15B           20.2138340782       16.5119038685      -20.4012156989  MEMB      146             0.0000000000
     16705       146  OSM       H15C           20.5359058491       16.3676071610      -22.0609687283  MEMB      146             0.0000000000
     16706       146  OSM       C14            21.4660161139       18.8609012819      -20.0050307084  MEMB      146             0.0000000000
     16707       146  OSM       H14A           21.3307262434       18.4133998213      -19.0371241911  MEMB      146             0.0000000000
     16708       146  OSM       H14B           20.6205818718       19.4840030731      -20.2604582054  MEMB      146             0.0000000000
     16709       146  OSM       H14C           22.3663418637       19.4746224976      -19.9371760024  MEMB      146             0.0000000000
     16710       146  OSM       C13            22.5951311291       16.7781872346      -20.3643583658  MEMB      146             0.0000000000
     16711       146  OSM       H13A           22.6897219583       15.8912529914      -20.9653877725  MEMB      146             0.0000000000
     16712       146  OSM       H13B           22.1729730763       16.4675542848      -19.4092078232  MEMB      146             0.0000000000
     16713       146  OSM       H13C           23.5782931178       17.1842310281      -20.1656229546  MEMB      146             0.0000000000
     16714       146  OSM       C12            22.2580523608       18.3784800415      -22.2712424894  MEMB      146             0.0000000000
     16715       146  OSM       H12A           21.5813912608       19.1741447527      -22.5761080393  MEMB      146             0.0000000000
     16716       146  OSM       H12B           22.2509394653       17.6133916987      -23.0308596486  MEMB      146             0.0000000000
     16717       146  OSM       C11            23.7045979944       18.8719434777      -22.1738809970  MEMB      146             0.0000000000
     16718       146  OSM       H11A           23.9881717169       19.3131722583      -23.1332026603  MEMB      146             0.0000000000
     16719       146  OSM       H11B           24.3495627730       17.9645772049      -22.0778234777  MEMB      146             0.0000000000
     16720       146  OSM       P              25.4310322354       20.2552980288      -20.8321424899  MEMB      146             0.0000000000
     16721       146  OSM       O13            26.2549287074       19.2818965653      -21.5603915229  MEMB      146             0.0000000000
     16722       146  OSM       O14            25.5059954136       21.6931530963      -21.2082724614  MEMB      146             0.0000000000
     16723       146  OSM       O11            25.5756443778       20.1118816141      -19.2572719597  MEMB      146             0.0000000000
     16724       146  OSM       O12            23.9130299364       19.8092874393      -21.1085398990  MEMB      146             0.0000000000
     16725       146  OSM       C1S            24.4649817816       19.6807002840      -18.4939964698  MEMB      146             0.0000000000
     16726       146  OSM       H1S            24.3542818470       18.5888970941      -18.6708597700  MEMB      146             0.0000000000
     16727       146  OSM       H1T            23.5066089405       20.1692447565      -18.7902086073  MEMB      146             0.0000000000
     16728       146  OSM       NF             23.6794864279       19.3664101883      -16.2676937353  MEMB      146             0.0000000000
     16729       146  OSM       HNF            22.9641372485       19.8525830863      -15.7792053156  MEMB      146             0.0000000000
     16730       146  OSM       C2S            24.6537646847       20.0349914731      -16.9923117936  MEMB      146             0.0000000000
     16731       146  OSM       H2S            25.6195176459       19.6432578871      -16.6044055786  MEMB      146             0.0000000000
     16732       146  OSM       C3S            24.5179939857       21.5350239458      -16.7461554338  MEMB      146             0.0000000000
     16733       146  OSM       H3S            23.5978536907       21.8847920710      -17.2745515399  MEMB      146             0.0000000000
     16734       146  OSM       O3             25.6350957543       22.2870526112      -17.1998201687  MEMB      146             0.0000000000
     16735       146  OSM       HO3            26.2633355746       21.6190152008      -17.4915551621  MEMB      146             0.0000000000
     16736       146  OSM       C4S            24.2955666200       21.7952022047      -15.2667230636  MEMB      146             0.0000000000
     16737       146  OSM       H4S            23.2606459443       21.6632527675      -14.9154739125  MEMB      146             0.0000000000
     16738       146  OSM       C5S            25.2278577752       22.0591698132      -14.3409243512  MEMB      146             0.0000000000
     16739       146  OSM       H5S            26.2871297282       22.1088062183      -14.6284205390  MEMB      146             0.0000000000
     16740       146  OSM       C6S            24.9131316137       22.3135337266      -12.9093222494  MEMB      146             0.0000000000
     16741       146  OSM       H6S            23.8524537283       22.6255213491      -12.8288312208  MEMB      146             0.0000000000
     16742       146  OSM       H6T            25.5520866772       23.1505783677      -12.5918765359  MEMB      146             0.0000000000
     16743       146  OSM       C7S            25.0794252705       21.2257139581      -11.8586597072  MEMB      146             0.0000000000
     16744       146  OSM       H7S            25.0428348545       21.6675608504      -10.8277883129  MEMB      146             0.0000000000
     16745       146  OSM       H7T            26.0826551912       20.7750054030      -12.0051922385  MEMB      146             0.0000000000
     16746       146  OSM       C8S            23.9494059169       20.2094377681      -12.0088304335  MEMB      146             0.0000000000
     16747       146  OSM       H8S            23.7179521313       20.0943899643      -13.0859900286  MEMB      146             0.0000000000
     16748       146  OSM       H8T            23.0458654965       20.5897191285      -11.4746969303  MEMB      146             0.0000000000
     16749       146  OSM       C9S            24.3137243857       18.8395036525      -11.4811757699  MEMB      146             0.0000000000
     16750       146  OSM       H9S            25.0669129306       18.3618233801      -12.1456791596  MEMB      146             0.0000000000
     16751       146  OSM       H9T            23.3930569561       18.2119449079      -11.4682149082  MEMB      146             0.0000000000
     16752       146  OSM       C10S           24.8533788101       19.0123385739      -10.0792908675  MEMB      146             0.0000000000
     16753       146  OSM       H10S           24.1018914363       19.6300699853       -9.5315675661  MEMB      146             0.0000000000
     16754       146  OSM       H10T           25.8733467728       19.4389230638      -10.0160419922  MEMB      146             0.0000000000
     16755       146  OSM       C11S           24.9298097138       17.7523036558       -9.3265251492  MEMB      146             0.0000000000
     16756       146  OSM       H11S           25.3329902401       16.9267481371       -9.9647137672  MEMB      146             0.0000000000
     16757       146  OSM       H11T           23.8502638848       17.6032164159       -9.0391002343  MEMB      146             0.0000000000
     16758       146  OSM       C12S           25.7646694270       17.8353266840       -8.0776073243  MEMB      146             0.0000000000
     16759       146  OSM       H12S           26.7792864910       18.1304951322       -8.3755855218  MEMB      146             0.0000000000
     16760       146  OSM       H12T           26.0776439340       16.9748459862       -7.4983508650  MEMB      146             0.0000000000
     16761       146  OSM       C13S           25.0349294123       18.6464501374       -7.0479973169  MEMB      146             0.0000000000
     16762       146  OSM       H13S           24.0400738570       18.3295015509       -6.6702028946  MEMB      146             0.0000000000
     16763       146  OSM       H13T           24.9726672463       19.6551083054       -7.5028079275  MEMB      146             0.0000000000
     16764       146  OSM       C14S           25.9001935129       18.7527634910       -5.8728270872  MEMB      146             0.0000000000
     16765       146  OSM       H14S           26.8684815670       18.4140111250       -6.2879692652  MEMB      146             0.0000000000
     16766       146  OSM       H14T           25.7793791907       17.9942167687       -5.1107771557  MEMB      146             0.0000000000
     16767       146  OSM       C15S           25.7796920731       20.2197282417       -5.5166751192  MEMB      146             0.0000000000
     16768       146  OSM       H15S           26.0052813769       20.9121578006       -6.3511982031  MEMB      146             0.0000000000
     16769       146  OSM       H15T           26.6621293627       20.5574187383       -5.1081589163  MEMB      146             0.0000000000
     16770       146  OSM       C16S           24.6736384619       20.6836755845       -4.5771370312  MEMB      146             0.0000000000
     16771       146  OSM       H16S           23.7623245087       20.6058490831       -5.1791313190  MEMB      146             0.0000000000
     16772       146  OSM       H16T           24.9948807006       21.7370670657       -4.3475202165  MEMB      146             0.0000000000
     16773       146  OSM       C17S           24.4439304564       20.1146454141       -3.1660214499  MEMB      146             0.0000000000
     16774       146  OSM       H17S           25.2788236357       19.6590861579       -2.6975728629  MEMB      146             0.0000000000
     16775       146  OSM       H17T           23.8830884746       19.1864445581       -3.1143468373  MEMB      146             0.0000000000
     16776       146  OSM       C18S           24.1808317248       21.2768901423       -2.2074115267  MEMB      146             0.0000000000
     16777       146  OSM       H18S           24.9790439262       22.0492126342       -2.2027575509  MEMB      146             0.0000000000
     16778       146  OSM       H18T           24.2032882785       21.0156598939       -1.1581819310  MEMB      146             0.0000000000
     16779       146  OSM       H18U           23.1964944999       21.6937062715       -2.4591553015  MEMB      146             0.0000000000
     16780       146  OSM       C1F            23.6108247935       18.1312190164      -16.4535275101  MEMB      146             0.0000000000
     16781       146  OSM       OF             24.5439326853       17.3524456245      -16.5851762474  MEMB      146             0.0000000000
     16782       146  OSM       C2F            22.2564846026       17.8500140706      -16.3329554024  MEMB      146             0.0000000000
     16783       146  OSM       H2F            21.6787276444       17.4173175199      -17.1565485248  MEMB      146             0.0000000000
     16784       146  OSM       H2G            21.7636971554       18.4602579321      -15.5228959737  MEMB      146             0.0000000000
     16785       146  OSM       C3F            22.2244722945       16.8921028272      -15.4579357516  MEMB      146             0.0000000000
     16786       146  OSM       H3F            23.1340851656       16.8498532914      -14.7240612452  MEMB      146             0.0000000000
     16787       146  OSM       H3G            22.7091703918       15.8892417617      -15.8534567705  MEMB      146             0.0000000000
     16788       146  OSM       C4F            20.5037066673       17.1166004598      -14.7974084039  MEMB      146             0.0000000000
     16789       146  OSM       H4F            20.0216355201       16.2837947731      -14.2075920612  MEMB      146             0.0000000000
     16790       146  OSM       H4G            19.8854556023       16.2530533118      -14.7984425461  MEMB      146             0.0000000000
     16791       146  OSM       C5F            19.7761623221       17.2630023232      -13.3970803552  MEMB      146             0.0000000000
     16792       146  OSM       H5F            18.8445625201       16.6335753021      -13.0579827073  MEMB      146             0.0000000000
     16793       146  OSM       H5G            19.3687138954       18.0518935038      -14.0001260943  MEMB      146             0.0000000000
     16794       146  OSM       C6F            20.5795577267       17.6414702180      -12.2594693068  MEMB      146             0.0000000000
     16795       146  OSM       H6F            21.4698300222       18.1566242478      -12.6584846564  MEMB      146             0.0000000000
     16796       146  OSM       H6G            20.8360320188       16.8999328494      -11.4576938140  MEMB      146             0.0000000000
     16797       146  OSM       C7F            19.7060218359       18.2612395800      -11.3365263906  MEMB      146             0.0000000000
     16798       146  OSM       H7F            19.0922015749       17.4149785262      -10.9248877344  MEMB      146             0.0000000000
     16799       146  OSM       H7G            19.1644580795       18.8742110569      -12.0798773708  MEMB      146             0.0000000000
     16800       146  OSM       C8F            20.5752820502       18.8531163335      -10.2975476595  MEMB      146             0.0000000000
     16801       146  OSM       H8F            20.9970752936       19.7603582130      -10.7779941100  MEMB      146             0.0000000000
     16802       146  OSM       H8G            21.4173611291       18.2096722140       -9.9870222363  MEMB      146             0.0000000000
     16803       146  OSM       C9F            19.6817348536       19.1433898732       -9.1620172984  MEMB      146             0.0000000000
     16804       146  OSM       H9F            19.6116971152       20.1826202448       -9.0614014917  MEMB      146             0.0000000000
     16805       146  OSM       C10F           19.2632897850       18.5415343432       -8.0800697398  MEMB      146             0.0000000000
     16806       146  OSM       H10F           18.5303437396       19.0376161558       -7.4317328306  MEMB      146             0.0000000000
     16807       146  OSM       C11F           19.6627991951       17.2085849004       -7.6822341481  MEMB      146             0.0000000000
     16808       146  OSM       H11F           19.9406518052       16.6800016187       -8.5993582245  MEMB      146             0.0000000000
     16809       146  OSM       H11G           18.7729553364       16.7701190894       -7.1978175784  MEMB      146             0.0000000000
     16810       146  OSM       C12F           20.9322407102       17.1986795027       -6.8432587139  MEMB      146             0.0000000000
     16811       146  OSM       H12F           21.7735046122       17.5255316003       -7.4688564181  MEMB      146             0.0000000000
     16812       146  OSM       H12G           21.1541415651       16.1641294045       -6.4867445107  MEMB      146             0.0000000000
     16813       146  OSM       C13F           20.8922505005       18.1521355153       -5.7010802677  MEMB      146             0.0000000000
     16814       146  OSM       H13F           20.6614657008       19.2076936117       -5.9166857323  MEMB      146             0.0000000000
     16815       146  OSM       H13G           21.8472015031       18.0649115472       -5.1196593767  MEMB      146             0.0000000000
     16816       146  OSM       C14F           19.8282953952       17.7002914920       -4.8623095923  MEMB      146             0.0000000000
     16817       146  OSM       H14F           20.1297930312       16.7745052737       -4.5327260557  MEMB      146             0.0000000000
     16818       146  OSM       H14G           18.7163528440       17.8213626579       -5.0500641917  MEMB      146             0.0000000000
     16819       146  OSM       C15F           20.0941650926       18.2213354707       -3.6259088771  MEMB      146             0.0000000000
     16820       146  OSM       H15F           19.0531890221       17.7990823539       -3.3000825470  MEMB      146             0.0000000000
     16821       146  OSM       H15G           19.9485198248       19.2937388907       -3.8312688208  MEMB      146             0.0000000000
     16822       146  OSM       C16F           21.4079176062       18.2009427489       -2.6270599339  MEMB      146             0.0000000000
     16823       146  OSM       H16F           22.1264105005       18.7997165839       -3.1333432114  MEMB      146             0.0000000000
     16824       146  OSM       H16G           21.9109421275       17.3179547847       -2.7481310725  MEMB      146             0.0000000000
     16825       146  OSM       C17F           21.6088980526       18.2760206260       -1.0047891127  MEMB      146             0.0000000000
     16826       146  OSM       H17F           22.5443786710       17.7253947216       -0.8622098968  MEMB      146             0.0000000000
     16827       146  OSM       H17G           21.1256577373       17.6476145345       -0.2181868903  MEMB      146             0.0000000000
     16828       146  OSM       C18F           21.5374731606       19.7046921735       -0.3476372071  MEMB      146             0.0000000000
     16829       146  OSM       H18F           21.4902457405       19.6311694498        0.7584668507  MEMB      146             0.0000000000
     16830       146  OSM       H18G           20.7453334851       20.3382385136       -0.2631031371  MEMB      146             0.0000000000
     16831       146  OSM       H18H           22.0588454084       20.4330129468       -0.9754548957  MEMB      146             0.0000000000
     16832       147  CHL1      C3            -22.9282770196      -19.5244833446      -17.3192177315  MEMB      147             0.0000000000
     16833       147  CHL1      H3            -21.8208744254      -19.4577358484      -17.1701482126  MEMB      147             0.0000000000
     16834       147  CHL1      O3            -23.2541743149      -19.5817808475      -18.7047116754  MEMB      147             0.0000000000
     16835       147  CHL1      H3'           -22.7275704469      -20.2963068591      -19.0552733282  MEMB      147             0.0000000000
     16836       147  CHL1      C4            -23.4546574203      -20.7941361823      -16.6512814134  MEMB      147             0.0000000000
     16837       147  CHL1      H4A           -24.5337596324      -20.8424150732      -16.9029144247  MEMB      147             0.0000000000
     16838       147  CHL1      H4B           -22.9689869273      -21.6701434561      -17.1287717830  MEMB      147             0.0000000000
     16839       147  CHL1      C5            -23.2624596021      -20.7785405952      -15.1526352513  MEMB      147             0.0000000000
     16840       147  CHL1      C6            -22.6281601196      -21.7865127860      -14.5262858897  MEMB      147             0.0000000000
     16841       147  CHL1      H6            -22.2825478288      -22.6570391198      -15.0909846032  MEMB      147             0.0000000000
     16842       147  CHL1      C7            -22.3189128900      -21.8007824532      -13.0649516213  MEMB      147             0.0000000000
     16843       147  CHL1      H7A           -22.3892693874      -22.8011168373      -12.5891877190  MEMB      147             0.0000000000
     16844       147  CHL1      H7B           -21.2861288564      -21.3999656216      -12.9519840880  MEMB      147             0.0000000000
     16845       147  CHL1      C8            -23.1509063629      -20.7998834993      -12.2975488772  MEMB      147             0.0000000000
     16846       147  CHL1      H8            -24.1920438036      -20.9819652379      -12.1715907081  MEMB      147             0.0000000000
     16847       147  CHL1      C14           -22.6928061057      -20.7189403575      -10.8636154148  MEMB      147             0.0000000000
     16848       147  CHL1      H14           -21.7663955843      -20.1111479625      -10.9434406449  MEMB      147             0.0000000000
     16849       147  CHL1      C15           -22.2636229066      -21.9097120094      -10.0268258168  MEMB      147             0.0000000000
     16850       147  CHL1      H15A          -22.7401060193      -22.8681122249      -10.2303205469  MEMB      147             0.0000000000
     16851       147  CHL1      H15B          -21.2094210793      -22.0925045297      -10.2311215326  MEMB      147             0.0000000000
     16852       147  CHL1      C16           -22.4836101012      -21.4246357610       -8.5942085002  MEMB      147             0.0000000000
     16853       147  CHL1      H16A          -23.3173870605      -21.9915632216       -8.1655504582  MEMB      147             0.0000000000
     16854       147  CHL1      H16B          -21.5778058168      -21.5055896989       -7.9805681522  MEMB      147             0.0000000000
     16855       147  CHL1      C17           -22.9281878246      -19.9540339991       -8.6549234995  MEMB      147             0.0000000000
     16856       147  CHL1      H17           -22.0010998945      -19.3492314342       -8.7595187707  MEMB      147             0.0000000000
     16857       147  CHL1      C13           -23.5862839338      -19.9110911206      -10.0217973355  MEMB      147             0.0000000000
     16858       147  CHL1      C18           -25.0124324902      -20.4496700096       -9.8882729358  MEMB      147             0.0000000000
     16859       147  CHL1      H18A          -25.5894373837      -20.4033432902      -10.8348046341  MEMB      147             0.0000000000
     16860       147  CHL1      H18B          -24.9370873661      -21.3927684880       -9.4930912277  MEMB      147             0.0000000000
     16861       147  CHL1      H18C          -25.6383528571      -20.0775963324       -9.0901979931  MEMB      147             0.0000000000
     16862       147  CHL1      C12           -23.4899164028      -18.6518135628      -10.7947518357  MEMB      147             0.0000000000
     16863       147  CHL1      H12A          -24.4852769343      -18.5413148174      -10.4344337316  MEMB      147             0.0000000000
     16864       147  CHL1      H12B          -22.7312419029      -17.9517027144      -10.4264797038  MEMB      147             0.0000000000
     16865       147  CHL1      C11           -23.9179385264      -18.5239252498      -12.2252479736  MEMB      147             0.0000000000
     16866       147  CHL1      H11A          -25.0133836374      -18.7384266647      -12.1944793728  MEMB      147             0.0000000000
     16867       147  CHL1      H11B          -23.7960673800      -17.4806035610      -12.5851278730  MEMB      147             0.0000000000
     16868       147  CHL1      C9            -23.1757124552      -19.4764458307      -13.0424372834  MEMB      147             0.0000000000
     16869       147  CHL1      H9            -22.1362910562      -19.0968637822      -13.0291202596  MEMB      147             0.0000000000
     16870       147  CHL1      C10           -23.7448923907      -19.4820344722      -14.4659594029  MEMB      147             0.0000000000
     16871       147  CHL1      C19           -25.2965690711      -19.3009671259      -14.3907894356  MEMB      147             0.0000000000
     16872       147  CHL1      H19A          -25.8538707900      -19.5303956704      -15.3084683062  MEMB      147             0.0000000000
     16873       147  CHL1      H19B          -25.6355203114      -19.9676519342      -13.5751493481  MEMB      147             0.0000000000
     16874       147  CHL1      H19C          -25.6649284928      -18.2889288623      -14.1672172488  MEMB      147             0.0000000000
     16875       147  CHL1      C1            -23.2160646780      -18.2372116321      -15.2012616793  MEMB      147             0.0000000000
     16876       147  CHL1      H1A           -23.6239310425      -17.3281327353      -14.7066608787  MEMB      147             0.0000000000
     16877       147  CHL1      H1B           -22.1114580136      -18.2139888439      -15.0956148552  MEMB      147             0.0000000000
     16878       147  CHL1      C2            -23.5489896324      -18.2739320225      -16.6934089347  MEMB      147             0.0000000000
     16879       147  CHL1      H2A           -23.0959334121      -17.4095016196      -17.2165616502  MEMB      147             0.0000000000
     16880       147  CHL1      H2B           -24.6499963588      -18.2615134303      -16.8545850551  MEMB      147             0.0000000000
     16881       147  CHL1      C20           -23.6706218003      -19.5180513222       -7.3736490937  MEMB      147             0.0000000000
     16882       147  CHL1      H20           -24.7743747958      -19.5448471599       -7.5083141354  MEMB      147             0.0000000000
     16883       147  CHL1      C21           -23.2579094913      -18.1216056622       -6.9956899828  MEMB      147             0.0000000000
     16884       147  CHL1      H21A          -22.1876690842      -17.9237285769       -6.8568673360  MEMB      147             0.0000000000
     16885       147  CHL1      H21B          -23.9575938764      -17.6814033930       -6.2463269858  MEMB      147             0.0000000000
     16886       147  CHL1      H21C          -23.3153996381      -17.4713631703       -7.8126283030  MEMB      147             0.0000000000
     16887       147  CHL1      C22           -23.2259211917      -20.3125084550       -6.1313692705  MEMB      147             0.0000000000
     16888       147  CHL1      H22A          -23.5247580550      -21.3766709570       -6.2129565026  MEMB      147             0.0000000000
     16889       147  CHL1      H22B          -22.1261527590      -20.1697028987       -6.1058402029  MEMB      147             0.0000000000
     16890       147  CHL1      C23           -23.6053659327      -19.7870251942       -4.7332561980  MEMB      147             0.0000000000
     16891       147  CHL1      H23A          -23.2276214399      -18.7688412089       -4.5591640146  MEMB      147             0.0000000000
     16892       147  CHL1      H23B          -24.6752846917      -19.6111500961       -4.8166132857  MEMB      147             0.0000000000
     16893       147  CHL1      C24           -23.1815520658      -20.8032419674       -3.5961027406  MEMB      147             0.0000000000
     16894       147  CHL1      H24A          -23.6415924608      -21.7899000172       -3.8411622809  MEMB      147             0.0000000000
     16895       147  CHL1      H24B          -22.0892628547      -20.8135027762       -3.5711338178  MEMB      147             0.0000000000
     16896       147  CHL1      C25           -23.5288479354      -20.5828319017       -2.0935111989  MEMB      147             0.0000000000
     16897       147  CHL1      H25           -23.1315411778      -19.6095054371       -1.7560316474  MEMB      147             0.0000000000
     16898       147  CHL1      C26           -24.9313834150      -20.8268792070       -1.9749630625  MEMB      147             0.0000000000
     16899       147  CHL1      H26A          -25.2028160553      -20.3069705660       -2.8972464520  MEMB      147             0.0000000000
     16900       147  CHL1      H26B          -25.3505487451      -21.4180109660       -2.6496569765  MEMB      147             0.0000000000
     16901       147  CHL1      H26C          -25.5705170660      -20.4945023624       -1.1142251978  MEMB      147             0.0000000000
     16902       147  CHL1      C27           -23.2585815649      -21.5259207742       -0.9923273016  MEMB      147             0.0000000000
     16903       147  CHL1      H27A          -23.8033802490      -21.0879462143       -0.0965087135  MEMB      147             0.0000000000
     16904       147  CHL1      H27B          -23.7011477819      -22.5122389180       -1.2723376293  MEMB      147             0.0000000000
     16905       147  CHL1      H27C          -22.1749770056      -21.4781515606       -0.8839875992  MEMB      147             0.0000000000
     16906       148  OSM       N               4.6321304093       30.0362530975      -20.7818173922  MEMB      148             0.0000000000
     16907       148  OSM       C15             5.1086647987       29.6521831132      -19.4294148636  MEMB      148             0.0000000000
     16908       148  OSM       H15A            5.7933534034       28.8089522583      -19.3728009324  MEMB      148             0.0000000000
     16909       148  OSM       H15B            4.7421057639       30.0867620257      -18.5035374002  MEMB      148             0.0000000000
     16910       148  OSM       H15C            5.8825239340       30.4063047227      -19.2942303236  MEMB      148             0.0000000000
     16911       148  OSM       C14             5.4084303996       29.3054670913      -21.8472039170  MEMB      148             0.0000000000
     16912       148  OSM       H14A            6.3499605469       29.7926963107      -22.1054522831  MEMB      148             0.0000000000
     16913       148  OSM       H14B            4.8324797282       29.2010696248      -22.7516147664  MEMB      148             0.0000000000
     16914       148  OSM       H14C            5.7078406370       28.3183620139      -21.5022911840  MEMB      148             0.0000000000
     16915       148  OSM       C13             3.3554860637       29.4735237938      -20.4592365854  MEMB      148             0.0000000000
     16916       148  OSM       H13A            3.5208966814       28.4826271328      -20.0521765830  MEMB      148             0.0000000000
     16917       148  OSM       H13B            2.7133331471       29.5207575012      -21.3015243265  MEMB      148             0.0000000000
     16918       148  OSM       H13C            2.9288179268       30.0575501949      -19.6317615089  MEMB      148             0.0000000000
     16919       148  OSM       C12             4.5036616280       31.5600102474      -21.0102027471  MEMB      148             0.0000000000
     16920       148  OSM       H12A            5.4891165298       31.9560447629      -21.2371001206  MEMB      148             0.0000000000
     16921       148  OSM       H12B            4.2632719917       32.0460345377      -20.0582320431  MEMB      148             0.0000000000
     16922       148  OSM       C11             3.9456438906       32.2701344597      -22.1942943085  MEMB      148             0.0000000000
     16923       148  OSM       H11A            4.3999602595       31.8124549800      -23.0927003822  MEMB      148             0.0000000000
     16924       148  OSM       H11B            4.2972581512       33.3441024686      -22.1273426151  MEMB      148             0.0000000000
     16925       148  OSM       P               1.6931736049       33.0023876086      -21.2018145281  MEMB      148             0.0000000000
     16926       148  OSM       O13             1.8295728845       34.3608462576      -21.7624425645  MEMB      148             0.0000000000
     16927       148  OSM       O14             0.3437894009       32.3841396913      -21.0826964552  MEMB      148             0.0000000000
     16928       148  OSM       O11             2.4681666298       32.8944035015      -19.7827802131  MEMB      148             0.0000000000
     16929       148  OSM       O12             2.5630073300       32.1015537416      -22.1621538149  MEMB      148             0.0000000000
     16930       148  OSM       C1S             2.0209616980       33.6519254049      -18.6387109466  MEMB      148             0.0000000000
     16931       148  OSM       H1S             0.9054230828       33.6544901609      -18.5918896732  MEMB      148             0.0000000000
     16932       148  OSM       H1T             2.3646710542       34.7025058513      -18.6969569692  MEMB      148             0.0000000000
     16933       148  OSM       NF              3.6385527717       33.5686981055      -16.7161787213  MEMB      148             0.0000000000
     16934       148  OSM       HNF             4.3670981697       32.8862159573      -16.6842339240  MEMB      148             0.0000000000
     16935       148  OSM       C2S             2.4900403333       33.0527666373      -17.2622435587  MEMB      148             0.0000000000
     16936       148  OSM       H2S             1.7475203553       33.2676170882      -16.4637718392  MEMB      148             0.0000000000
     16937       148  OSM       C3S             2.6936241647       31.5815720125      -17.3365152636  MEMB      148             0.0000000000
     16938       148  OSM       H3S             3.2872484847       31.1619281608      -18.1556388392  MEMB      148             0.0000000000
     16939       148  OSM       O3              1.5280299814       31.1281675074      -17.7476189957  MEMB      148             0.0000000000
     16940       148  OSM       HO3             1.0132985072       31.8785338651      -18.0534328787  MEMB      148             0.0000000000
     16941       148  OSM       C4S             2.8914344381       30.8874186174      -16.0516576738  MEMB      148             0.0000000000
     16942       148  OSM       H4S             2.0163003356       30.8381719931      -15.3809083538  MEMB      148             0.0000000000
     16943       148  OSM       C5S             4.0271570307       30.2878334764      -15.7154562913  MEMB      148             0.0000000000
     16944       148  OSM       H5S             4.9072404652       30.3146523278      -16.3761688078  MEMB      148             0.0000000000
     16945       148  OSM       C6S             4.2106845588       29.5908422493      -14.4263450771  MEMB      148             0.0000000000
     16946       148  OSM       H6S             5.0987231833       30.0638892430      -13.9785367969  MEMB      148             0.0000000000
     16947       148  OSM       H6T             4.4279144301       28.5177308487      -14.6270822108  MEMB      148             0.0000000000
     16948       148  OSM       C7S             3.0873985931       29.7096624741      -13.3854466165  MEMB      148             0.0000000000
     16949       148  OSM       H7S             2.1572579909       29.2430859638      -13.7535163734  MEMB      148             0.0000000000
     16950       148  OSM       H7T             2.8930563514       30.7779983770      -13.1463309225  MEMB      148             0.0000000000
     16951       148  OSM       C8S             3.5078114586       29.0583221883      -12.0912839808  MEMB      148             0.0000000000
     16952       148  OSM       H8S             4.0272852474       28.1035899117      -12.3772938018  MEMB      148             0.0000000000
     16953       148  OSM       H8T             2.6732633704       28.7914957819      -11.4256937639  MEMB      148             0.0000000000
     16954       148  OSM       C9S             4.4442839319       29.9910634219      -11.3446661221  MEMB      148             0.0000000000
     16955       148  OSM       H9S             5.2167354068       30.4708057877      -11.9994278699  MEMB      148             0.0000000000
     16956       148  OSM       H9T             4.8855181619       29.3042836097      -10.5867011722  MEMB      148             0.0000000000
     16957       148  OSM       C10S            4.0543191787       30.9251207284      -10.2762342531  MEMB      148             0.0000000000
     16958       148  OSM       H10S            3.6528500044       30.2718740259       -9.4591673741  MEMB      148             0.0000000000
     16959       148  OSM       H10T            3.3242661719       31.6368294675      -10.6778634194  MEMB      148             0.0000000000
     16960       148  OSM       C11S            5.3123879848       31.6423219880       -9.8151111040  MEMB      148             0.0000000000
     16961       148  OSM       H11S            5.6145627771       32.4323044259      -10.5404591539  MEMB      148             0.0000000000
     16962       148  OSM       H11T            6.1853297624       30.9524815916       -9.6723695212  MEMB      148             0.0000000000
     16963       148  OSM       C12S            5.0359747316       32.2914628657       -8.5110848452  MEMB      148             0.0000000000
     16964       148  OSM       H12S            4.6434380014       31.5685235738       -7.7577604531  MEMB      148             0.0000000000
     16965       148  OSM       H12T            4.2987230251       33.1239001125       -8.6087540234  MEMB      148             0.0000000000
     16966       148  OSM       C13S            6.3288485853       32.7775164642       -7.9966998672  MEMB      148             0.0000000000
     16967       148  OSM       H13S            6.7241282347       33.6501317286       -8.6039840935  MEMB      148             0.0000000000
     16968       148  OSM       H13T            7.1572121403       32.0383070332       -7.9114254783  MEMB      148             0.0000000000
     16969       148  OSM       C14S            5.9902230708       33.1937754001       -6.6064995471  MEMB      148             0.0000000000
     16970       148  OSM       H14S            5.1140353739       33.8455648127       -6.5259870401  MEMB      148             0.0000000000
     16971       148  OSM       H14T            6.9557659146       33.7205030514       -6.6838180585  MEMB      148             0.0000000000
     16972       148  OSM       C15S            5.8305499657       32.2402763229       -5.3936485944  MEMB      148             0.0000000000
     16973       148  OSM       H15S            6.7861187405       31.6698694208       -5.3895871084  MEMB      148             0.0000000000
     16974       148  OSM       H15T            4.9624241281       31.6049151356       -5.5949962429  MEMB      148             0.0000000000
     16975       148  OSM       C16S            5.6942259848       32.6610899057       -3.9013457448  MEMB      148             0.0000000000
     16976       148  OSM       H16S            4.7904487670       32.1818787310       -3.4565003821  MEMB      148             0.0000000000
     16977       148  OSM       H16T            5.3676937307       33.6399237130       -3.4344376510  MEMB      148             0.0000000000
     16978       148  OSM       C17S            7.1352526164       32.2848337202       -3.3596659698  MEMB      148             0.0000000000
     16979       148  OSM       H17S            7.0732022249       31.2325231957       -3.1323979238  MEMB      148             0.0000000000
     16980       148  OSM       H17T            6.7912870055       32.5666832635       -2.3272483052  MEMB      148             0.0000000000
     16981       148  OSM       C18S            8.7176955389       32.6070357642       -4.0112345868  MEMB      148             0.0000000000
     16982       148  OSM       H18S            9.5965000181       32.2596545229       -3.4475590060  MEMB      148             0.0000000000
     16983       148  OSM       H18T            9.3089383405       33.5445742064       -3.7797359040  MEMB      148             0.0000000000
     16984       148  OSM       H18U            8.8489714891       33.1054351633       -4.9973939463  MEMB      148             0.0000000000
     16985       148  OSM       C1F             3.8140645735       34.7420737181      -16.2583621774  MEMB      148             0.0000000000
     16986       148  OSM       OF              3.3563776868       35.7811397919      -16.7045115378  MEMB      148             0.0000000000
     16987       148  OSM       C2F             4.9267480128       34.7811999905      -15.4072489816  MEMB      148             0.0000000000
     16988       148  OSM       H2F             5.3039237000       35.3287058827      -16.2897249705  MEMB      148             0.0000000000
     16989       148  OSM       H2G             5.6902171069       34.0230962137      -15.1093107763  MEMB      148             0.0000000000
     16990       148  OSM       C3F             4.9425506379       35.5021533440      -14.1467462970  MEMB      148             0.0000000000
     16991       148  OSM       H3F             4.4983090373       36.4996245235      -14.2637195925  MEMB      148             0.0000000000
     16992       148  OSM       H3G             6.0094023769       35.6712940209      -13.9604768898  MEMB      148             0.0000000000
     16993       148  OSM       C4F             4.4460945016       34.4626716051      -13.1820966063  MEMB      148             0.0000000000
     16994       148  OSM       H4F             4.9823534571       34.5180805397      -12.2173916151  MEMB      148             0.0000000000
     16995       148  OSM       H4G             4.6357665670       33.4215435437      -13.5475050918  MEMB      148             0.0000000000
     16996       148  OSM       C5F             2.9896303642       34.8091335753      -13.0873712619  MEMB      148             0.0000000000
     16997       148  OSM       H5F             2.4792960798       34.7439351813      -14.0754260946  MEMB      148             0.0000000000
     16998       148  OSM       H5G             3.0304967063       35.8865173616      -12.7929044216  MEMB      148             0.0000000000
     16999       148  OSM       C6F             2.2541474054       34.0403075706      -12.0219485491  MEMB      148             0.0000000000
     17000       148  OSM       H6F             2.9078549430       34.0658472129      -11.1188366230  MEMB      148             0.0000000000
     17001       148  OSM       H6G             2.1026647565       32.9772605173      -12.3052680237  MEMB      148             0.0000000000
     17002       148  OSM       C7F             0.9270956368       34.7185594929      -11.6820588820  MEMB      148             0.0000000000
     17003       148  OSM       H7F             0.1944962751       34.6696574883      -12.5166557444  MEMB      148             0.0000000000
     17004       148  OSM       H7G             1.1417128261       35.7921079481      -11.4901018190  MEMB      148             0.0000000000
     17005       148  OSM       C8F             0.3301094984       34.1401216323      -10.4148157985  MEMB      148             0.0000000000
     17006       148  OSM       H8F            -0.3304957136       34.8992938620       -9.9384172402  MEMB      148             0.0000000000
     17007       148  OSM       H8G             1.1706948656       33.9718965375       -9.7149316131  MEMB      148             0.0000000000
     17008       148  OSM       C9F            -0.4251138728       32.8740645261      -10.7053887091  MEMB      148             0.0000000000
     17009       148  OSM       H9F            -0.5605651394       32.5768646968      -11.7521197933  MEMB      148             0.0000000000
     17010       148  OSM       C10F           -0.9036606097       32.1378702185       -9.7141083184  MEMB      148             0.0000000000
     17011       148  OSM       H10F           -1.6161079598       31.3011964203       -9.9038033435  MEMB      148             0.0000000000
     17012       148  OSM       C11F           -0.6464858528       32.6363160733       -8.3176372298  MEMB      148             0.0000000000
     17013       148  OSM       H11F           -1.3972489081       32.1777978436       -7.7482602909  MEMB      148             0.0000000000
     17014       148  OSM       H11G           -0.9722468862       33.6700247775       -8.1004808531  MEMB      148             0.0000000000
     17015       148  OSM       C12F            0.7263184697       32.3312506158       -7.6680994956  MEMB      148             0.0000000000
     17016       148  OSM       H12F            1.5034215163       32.7631506216       -8.3065342861  MEMB      148             0.0000000000
     17017       148  OSM       H12G            1.0416641512       31.2671158779       -7.6695890737  MEMB      148             0.0000000000
     17018       148  OSM       C13F            0.9115097100       32.9142975561       -6.2518405522  MEMB      148             0.0000000000
     17019       148  OSM       H13F            1.1639916467       33.9736142840       -6.4545810824  MEMB      148             0.0000000000
     17020       148  OSM       H13G            1.7896897160       32.3794255130       -5.8143498302  MEMB      148             0.0000000000
     17021       148  OSM       C14F           -0.2562692508       32.9600616709       -5.2327633178  MEMB      148             0.0000000000
     17022       148  OSM       H14F           -0.3811385581       32.0189212389       -4.6970690664  MEMB      148             0.0000000000
     17023       148  OSM       H14G           -1.2480879015       33.1414453902       -5.6888872114  MEMB      148             0.0000000000
     17024       148  OSM       C15F           -0.0366365900       33.7830358938       -3.9872118252  MEMB      148             0.0000000000
     17025       148  OSM       H15F           -0.6735633347       33.3241383611       -3.1904725404  MEMB      148             0.0000000000
     17026       148  OSM       H15G           -0.4400104561       34.7815080421       -4.2263791642  MEMB      148             0.0000000000
     17027       148  OSM       C16F            1.4114781961       33.7179497290       -3.4893059473  MEMB      148             0.0000000000
     17028       148  OSM       H16F            2.1329639955       33.9527819393       -4.3000586797  MEMB      148             0.0000000000
     17029       148  OSM       H16G            1.6216992051       32.6633778622       -3.1872046220  MEMB      148             0.0000000000
     17030       148  OSM       C17F            1.6137621111       34.6224910526       -2.2723183416  MEMB      148             0.0000000000
     17031       148  OSM       H17F            0.7033277450       34.5127742185       -1.6383056115  MEMB      148             0.0000000000
     17032       148  OSM       H17G            1.6661066643       35.6906851073       -2.5775242730  MEMB      148             0.0000000000
     17033       148  OSM       C18F            2.7741029625       34.2310400439       -1.3600218349  MEMB      148             0.0000000000
     17034       148  OSM       H18F            2.6878522518       34.8112959856       -0.4162410130  MEMB      148             0.0000000000
     17035       148  OSM       H18G            3.7791983087       34.4252017742       -1.7856879658  MEMB      148             0.0000000000
     17036       148  OSM       H18H            2.6896260771       33.1455536279       -1.1325372278  MEMB      148             0.0000000000
     17037       149  SAPE      N              16.7170975738      -28.6469556586      -19.6402570505  MEMB      149             0.0000000000
     17038       149  SAPE      HN1            16.3916269412      -28.1213714116      -18.8012884657  MEMB      149             0.0000000000
     17039       149  SAPE      HN2            15.9322884688      -29.2352456002      -19.9806614303  MEMB      149             0.0000000000
     17040       149  SAPE      HN3            17.5378494412      -29.2671366906      -19.4191881136  MEMB      149             0.0000000000
     17041       149  SAPE      C12            17.0881463505      -27.6829596579      -20.7289656322  MEMB      149             0.0000000000
     17042       149  SAPE      H12A           17.1801669025      -28.2501607933      -21.6776468004  MEMB      149             0.0000000000
     17043       149  SAPE      H12B           18.0589879334      -27.2246412558      -20.4401826521  MEMB      149             0.0000000000
     17044       149  SAPE      C11            16.0189201360      -26.6077795167      -20.9132601309  MEMB      149             0.0000000000
     17045       149  SAPE      H11A           15.0070020953      -27.0440240106      -21.0449510400  MEMB      149             0.0000000000
     17046       149  SAPE      H11B           16.2584003660      -26.0586299425      -21.8615084029  MEMB      149             0.0000000000
     17047       149  SAPE      P              16.8073341221      -24.4056423758      -19.8301595991  MEMB      149             0.0000000000
     17048       149  SAPE      O13            18.2299940954      -24.8125765528      -19.9441034095  MEMB      149             0.0000000000
     17049       149  SAPE      O14            16.1973833582      -23.5333675894      -20.8546446049  MEMB      149             0.0000000000
     17050       149  SAPE      O12            15.9873539557      -25.7664759220      -19.7709191706  MEMB      149             0.0000000000
     17051       149  SAPE      O11            16.4937041989      -23.8420819790      -18.4055017910  MEMB      149             0.0000000000
     17052       149  SAPE      C1             16.9759906231      -24.5545547330      -17.2726262443  MEMB      149             0.0000000000
     17053       149  SAPE      HA             17.7191728608      -25.3496536617      -17.5252975681  MEMB      149             0.0000000000
     17054       149  SAPE      HB             17.4542878345      -23.8000132224      -16.6201165380  MEMB      149             0.0000000000
     17055       149  SAPE      C2             15.8273066110      -25.1833560979      -16.4744399532  MEMB      149             0.0000000000
     17056       149  SAPE      HS             15.1414046152      -25.6355600532      -17.2326906832  MEMB      149             0.0000000000
     17057       149  SAPE      O21            15.2104695562      -24.1147918916      -15.7498908490  MEMB      149             0.0000000000
     17058       149  SAPE      C21            13.9311614602      -24.3182107500      -15.5838576351  MEMB      149             0.0000000000
     17059       149  SAPE      O22            13.2916771060      -25.2834777520      -15.9698429730  MEMB      149             0.0000000000
     17060       149  SAPE      C22            13.4039539006      -23.1377664732      -14.8109700289  MEMB      149             0.0000000000
     17061       149  SAPE      H2R            14.0215130980      -22.2397560726      -14.9557440861  MEMB      149             0.0000000000
     17062       149  SAPE      H2S            12.3588780753      -22.9504031727      -15.1434684797  MEMB      149             0.0000000000
     17063       149  SAPE      C3             16.2487091925      -26.3006244948      -15.4859381522  MEMB      149             0.0000000000
     17064       149  SAPE      HX             17.1263248308      -26.0460195977      -14.8968827101  MEMB      149             0.0000000000
     17065       149  SAPE      HY             16.5179262622      -27.1939831802      -16.1190631249  MEMB      149             0.0000000000
     17066       149  SAPE      O31            15.2454026966      -26.4625416669      -14.4578741710  MEMB      149             0.0000000000
     17067       149  SAPE      C31            14.8950486665      -27.7365256729      -14.3280357738  MEMB      149             0.0000000000
     17068       149  SAPE      O32            15.4174404538      -28.6256415645      -14.8784514835  MEMB      149             0.0000000000
     17069       149  SAPE      C32            13.6724526448      -28.0752770432      -13.6057109371  MEMB      149             0.0000000000
     17070       149  SAPE      H2X            13.0309325775      -28.7951724180      -14.1591899372  MEMB      149             0.0000000000
     17071       149  SAPE      H2Y            13.3377166391      -27.1349540412      -13.7967959501  MEMB      149             0.0000000000
     17072       149  SAPE      C23            13.4991658854      -23.4158076608      -13.3303999460  MEMB      149             0.0000000000
     17073       149  SAPE      H3R            14.3839260320      -23.9377783250      -12.9076000393  MEMB      149             0.0000000000
     17074       149  SAPE      H3S            12.5966326966      -23.9661777670      -13.2142878317  MEMB      149             0.0000000000
     17075       149  SAPE      C24            13.1354722851      -22.2575184315      -12.5250615393  MEMB      149             0.0000000000
     17076       149  SAPE      H4R            12.2011196737      -21.8361924080      -12.8403843180  MEMB      149             0.0000000000
     17077       149  SAPE      H4S            13.8774944913      -21.5152645173      -12.3791935148  MEMB      149             0.0000000000
     17078       149  SAPE      C25            12.7127029428      -22.5164792977      -11.2317468999  MEMB      149             0.0000000000
     17079       149  SAPE      H5R            11.6953321985      -22.8174542262      -11.1070513124  MEMB      149             0.0000000000
     17080       149  SAPE      C26            13.3080650085      -22.7216603800      -10.1446104850  MEMB      149             0.0000000000
     17081       149  SAPE      H6R            12.5447165386      -22.8934130700       -9.4615392813  MEMB      149             0.0000000000
     17082       149  SAPE      C27            14.5657568661      -22.7567198225       -9.4493170336  MEMB      149             0.0000000000
     17083       149  SAPE      H7R            14.5006183189      -22.1666134421       -8.5509407206  MEMB      149             0.0000000000
     17084       149  SAPE      H7S            14.5753631555      -22.1425894977      -10.1900177785  MEMB      149             0.0000000000
     17085       149  SAPE      C28            15.6651437091      -23.7830001208       -9.5584741964  MEMB      149             0.0000000000
     17086       149  SAPE      H8R            15.8092569110      -24.1266717043      -10.5769034752  MEMB      149             0.0000000000
     17087       149  SAPE      C29            16.4893185054      -24.2332050377       -8.6181056154  MEMB      149             0.0000000000
     17088       149  SAPE      H9R            17.4776133832      -24.5925764784       -8.9324321137  MEMB      149             0.0000000000
     17089       149  SAPE      C210           16.4402803185      -23.8111910158       -7.2124098967  MEMB      149             0.0000000000
     17090       149  SAPE      H10R           16.0456684352      -24.5718974962       -6.5487592401  MEMB      149             0.0000000000
     17091       149  SAPE      H10S           15.6150717838      -23.1324612835       -7.0803796831  MEMB      149             0.0000000000
     17092       149  SAPE      C211           17.8343849811      -23.3816299559       -6.8840271571  MEMB      149             0.0000000000
     17093       149  SAPE      H11R           18.1027151334      -22.3464633571       -7.1637176490  MEMB      149             0.0000000000
     17094       149  SAPE      C212           18.6194230205      -24.0880256356       -6.0748526939  MEMB      149             0.0000000000
     17095       149  SAPE      H12R           19.6005968428      -23.7286560457       -5.7161294902  MEMB      149             0.0000000000
     17096       149  SAPE      C213           18.2249219080      -25.3230821407       -5.4120451741  MEMB      149             0.0000000000
     17097       149  SAPE      H13R           17.5128693158      -25.8147114851       -6.0662839749  MEMB      149             0.0000000000
     17098       149  SAPE      H13S           17.7454958729      -25.0693112490       -4.4416745419  MEMB      149             0.0000000000
     17099       149  SAPE      C214           19.4246576820      -26.1574866841       -5.2038471208  MEMB      149             0.0000000000
     17100       149  SAPE      H14R           20.3853890876      -25.6966448795       -5.4515733883  MEMB      149             0.0000000000
     17101       149  SAPE      C215           19.3669178022      -27.3415524838       -4.6215226484  MEMB      149             0.0000000000
     17102       149  SAPE      H15R           20.2763964027      -27.9210814794       -4.5624083922  MEMB      149             0.0000000000
     17103       149  SAPE      C216           18.1430751880      -28.0179004600       -4.0894779984  MEMB      149             0.0000000000
     17104       149  SAPE      H16R           18.3128946170      -29.1066521244       -4.0585045607  MEMB      149             0.0000000000
     17105       149  SAPE      H16S           17.2588186909      -27.8358616315       -4.7315470930  MEMB      149             0.0000000000
     17106       149  SAPE      C217           17.7668457852      -27.5392143344       -2.6810368672  MEMB      149             0.0000000000
     17107       149  SAPE      H17R           16.7735142802      -27.9666811272       -2.4214342460  MEMB      149             0.0000000000
     17108       149  SAPE      H17S           17.7499294408      -26.4334318774       -2.6361754023  MEMB      149             0.0000000000
     17109       149  SAPE      C218           18.7496528971      -27.9475123062       -1.6201956610  MEMB      149             0.0000000000
     17110       149  SAPE      H18R           19.6759440787      -27.3753389717       -1.6441032279  MEMB      149             0.0000000000
     17111       149  SAPE      H18S           19.2478143464      -28.8165865994       -1.9315068348  MEMB      149             0.0000000000
     17112       149  SAPE      C219           18.2008273362      -28.0952957608       -0.2190561354  MEMB      149             0.0000000000
     17113       149  SAPE      H19R           17.3771014660      -28.8149283806       -0.0346506961  MEMB      149             0.0000000000
     17114       149  SAPE      H19S           17.8146918303      -27.1001487551        0.0747626357  MEMB      149             0.0000000000
     17115       149  SAPE      C220           19.3649319757      -28.5340892308        0.6016245246  MEMB      149             0.0000000000
     17116       149  SAPE      H20R           19.0942763809      -28.4361481839        1.6832194367  MEMB      149             0.0000000000
     17117       149  SAPE      H20S           20.2727354283      -27.9421785235        0.3645206873  MEMB      149             0.0000000000
     17118       149  SAPE      H20T           19.7382999337      -29.5300362457        0.3715996433  MEMB      149             0.0000000000
     17119       149  SAPE      C33            13.8314947084      -28.3753164402      -12.1431830480  MEMB      149             0.0000000000
     17120       149  SAPE      H3X            14.6412491584      -29.1077081464      -12.0447887995  MEMB      149             0.0000000000
     17121       149  SAPE      H3Y            12.8959896931      -28.8379633894      -11.7587099956  MEMB      149             0.0000000000
     17122       149  SAPE      C34            14.1854444462      -27.1706499767      -11.3075383125  MEMB      149             0.0000000000
     17123       149  SAPE      H4X            13.4898890702      -26.3573912430      -11.4635372691  MEMB      149             0.0000000000
     17124       149  SAPE      H4Y            14.9850725363      -26.5205787997      -11.6893518643  MEMB      149             0.0000000000
     17125       149  SAPE      C35            14.4191207614      -27.5763635177       -9.8257426151  MEMB      149             0.0000000000
     17126       149  SAPE      H5X            14.5359333790      -26.6303925485       -9.3165195857  MEMB      149             0.0000000000
     17127       149  SAPE      H5Y            15.4115676790      -27.9845741631       -9.7166845340  MEMB      149             0.0000000000
     17128       149  SAPE      C36            13.4668062283      -28.5176739308       -9.0432082468  MEMB      149             0.0000000000
     17129       149  SAPE      H6X            13.7066804542      -28.8010784002       -8.0139948222  MEMB      149             0.0000000000
     17130       149  SAPE      H6Y            13.1835128303      -29.3864354176       -9.6881201485  MEMB      149             0.0000000000
     17131       149  SAPE      C37            12.1336687733      -28.0190432987       -8.7340104943  MEMB      149             0.0000000000
     17132       149  SAPE      H7X            11.4767263153      -28.8418672215       -8.3768932839  MEMB      149             0.0000000000
     17133       149  SAPE      H7Y            12.0329167809      -27.7189769043       -9.7797640278  MEMB      149             0.0000000000
     17134       149  SAPE      C38            11.7050034184      -27.0138485006       -7.7872238711  MEMB      149             0.0000000000
     17135       149  SAPE      H8X            10.8084893135      -26.6731190649       -8.3027443756  MEMB      149             0.0000000000
     17136       149  SAPE      H8Y            11.4984783328      -25.9654266609       -7.7602125545  MEMB      149             0.0000000000
     17137       149  SAPE      C39            12.3259250675      -27.1566317850       -6.4839434481  MEMB      149             0.0000000000
     17138       149  SAPE      H9X            13.3065096222      -27.5424490719       -6.6513330736  MEMB      149             0.0000000000
     17139       149  SAPE      H9Y            11.5100813212      -27.7976781534       -6.1861999525  MEMB      149             0.0000000000
     17140       149  SAPE      C310           12.7235981897      -25.8768658938       -5.8357635717  MEMB      149             0.0000000000
     17141       149  SAPE      H10X           11.7500673574      -25.5829537332       -5.9928276132  MEMB      149             0.0000000000
     17142       149  SAPE      H10Y           12.4813759541      -25.0464271145       -6.0755104606  MEMB      149             0.0000000000
     17143       149  SAPE      C311           13.3541008903      -25.2539151419       -4.6126422262  MEMB      149             0.0000000000
     17144       149  SAPE      H11X           12.7948982217      -25.1141309621       -3.7223929462  MEMB      149             0.0000000000
     17145       149  SAPE      H11Y           13.5926963545      -24.1600752160       -4.6735326996  MEMB      149             0.0000000000
     17146       149  SAPE      C312           14.2775397662      -26.2415322655       -4.2884125963  MEMB      149             0.0000000000
     17147       149  SAPE      H12X           14.9399539308      -25.8649938050       -5.0764684953  MEMB      149             0.0000000000
     17148       149  SAPE      H12Y           13.7797217175      -27.2171356963       -4.5414779199  MEMB      149             0.0000000000
     17149       149  SAPE      C313           14.5117409562      -26.0640699843       -2.8422953671  MEMB      149             0.0000000000
     17150       149  SAPE      H13X           14.7867144165      -27.0488215801       -2.4405571794  MEMB      149             0.0000000000
     17151       149  SAPE      H13Y           13.6424460097      -25.7447938364       -2.2529069991  MEMB      149             0.0000000000
     17152       149  SAPE      C314           15.0133318875      -24.7500787546       -2.3874056223  MEMB      149             0.0000000000
     17153       149  SAPE      H14X           14.4068759194      -23.8631513617       -2.7045460492  MEMB      149             0.0000000000
     17154       149  SAPE      H14Y           15.9953893948      -24.8285179101       -2.8771429875  MEMB      149             0.0000000000
     17155       149  SAPE      C315           14.9845481193      -24.7849281966       -0.8723833321  MEMB      149             0.0000000000
     17156       149  SAPE      H15X           15.8738457571      -24.1544520370       -0.6856695455  MEMB      149             0.0000000000
     17157       149  SAPE      H15Y           15.1505199483      -25.8521182985       -0.5639296815  MEMB      149             0.0000000000
     17158       149  SAPE      C316           13.7619649891      -24.2388933158       -0.0546541934  MEMB      149             0.0000000000
     17159       149  SAPE      H16X           12.8300171988      -24.5249631011       -0.5282045174  MEMB      149             0.0000000000
     17160       149  SAPE      H16Y           13.7829072147      -23.1320958868       -0.0122093576  MEMB      149             0.0000000000
     17161       149  SAPE      C317           13.4175301050      -24.8343009822        1.3350700922  MEMB      149             0.0000000000
     17162       149  SAPE      H17X           13.8524927124      -25.8620343029        1.4647456464  MEMB      149             0.0000000000
     17163       149  SAPE      H17Y           12.3445213691      -24.8622121401        1.5636213337  MEMB      149             0.0000000000
     17164       149  SAPE      C318           13.7875888613      -23.9100230138        2.4362958254  MEMB      149             0.0000000000
     17165       149  SAPE      H18X           13.7308328347      -24.3338517058        3.4533550323  MEMB      149             0.0000000000
     17166       149  SAPE      H18Y           13.9540765010      -22.8402376718        2.2206812707  MEMB      149             0.0000000000
     17167       149  SAPE      H18Z           14.7934296930      -24.0204760155        2.3821483325  MEMB      149             0.0000000000
     17168       150  OSM       N             -27.8321403550        8.2992606890      -22.3402793649  MEMB      150             0.0000000000
     17169       150  OSM       C15           -27.8631545044        9.4767842422      -21.4256621982  MEMB      150             0.0000000000
     17170       150  OSM       H15A          -28.9117396418        9.7458396759      -21.2653407851  MEMB      150             0.0000000000
     17171       150  OSM       H15B          -27.3102248747       10.3196692704      -21.8170042149  MEMB      150             0.0000000000
     17172       150  OSM       H15C          -27.4923957096        9.2409581151      -20.4333985788  MEMB      150             0.0000000000
     17173       150  OSM       C14           -28.4912241371        8.6333575467      -23.6497294532  MEMB      150             0.0000000000
     17174       150  OSM       H14A          -28.0727269347        9.5253585224      -24.1169289223  MEMB      150             0.0000000000
     17175       150  OSM       H14B          -29.5546787651        8.8139892044      -23.4843103163  MEMB      150             0.0000000000
     17176       150  OSM       H14C          -28.4820086639        7.8178232527      -24.3672599929  MEMB      150             0.0000000000
     17177       150  OSM       C13           -26.4421403697        7.9806828097      -22.4985864881  MEMB      150             0.0000000000
     17178       150  OSM       H13A          -25.8669375637        8.8217638815      -22.8690913756  MEMB      150             0.0000000000
     17179       150  OSM       H13B          -26.2767214490        7.0855315050      -23.0909537838  MEMB      150             0.0000000000
     17180       150  OSM       H13C          -26.0887755808        7.7425981872      -21.4949788191  MEMB      150             0.0000000000
     17181       150  OSM       C12           -28.5425914149        7.1632173522      -21.6374350758  MEMB      150             0.0000000000
     17182       150  OSM       H12A          -28.1609343006        7.1262095432      -20.6195773641  MEMB      150             0.0000000000
     17183       150  OSM       H12B          -28.3580934181        6.2037931659      -22.1041105162  MEMB      150             0.0000000000
     17184       150  OSM       C11           -30.0652605413        7.2723730906      -21.5062891053  MEMB      150             0.0000000000
     17185       150  OSM       H11A          -30.3156851979        6.3864585029      -20.9379885174  MEMB      150             0.0000000000
     17186       150  OSM       H11B          -30.5842421519        7.2061907010      -22.4880589563  MEMB      150             0.0000000000
     17187       150  OSM       P             -31.5479362859        8.3219248422      -19.5807317648  MEMB      150             0.0000000000
     17188       150  OSM       O13           -31.4902280611        9.6267790609      -18.8948771054  MEMB      150             0.0000000000
     17189       150  OSM       O14           -32.8072861331        7.7858423463      -20.1364180775  MEMB      150             0.0000000000
     17190       150  OSM       O11           -31.0029360073        7.1790114811      -18.6271448353  MEMB      150             0.0000000000
     17191       150  OSM       O12           -30.4597281058        8.3980251835      -20.7574336711  MEMB      150             0.0000000000
     17192       150  OSM       C1S           -29.6651177738        7.0043604962      -18.2173437165  MEMB      150             0.0000000000
     17193       150  OSM       H1S           -28.9611232264        7.6825758646      -18.7454990599  MEMB      150             0.0000000000
     17194       150  OSM       H1T           -29.3432504185        5.9632704398      -18.4358327855  MEMB      150             0.0000000000
     17195       150  OSM       NF            -28.1767682671        7.4400524432      -16.3802506830  MEMB      150             0.0000000000
     17196       150  OSM       HNF           -27.5515705256        6.7363496579      -16.0542918242  MEMB      150             0.0000000000
     17197       150  OSM       C2S           -29.5497327770        7.1288337583      -16.6873086974  MEMB      150             0.0000000000
     17198       150  OSM       H2S           -30.2058528764        7.9443730584      -16.2931970821  MEMB      150             0.0000000000
     17199       150  OSM       C3S           -30.0312223488        5.8089810451      -16.0731630737  MEMB      150             0.0000000000
     17200       150  OSM       H3S           -29.4775815614        4.9605382092      -16.5495391065  MEMB      150             0.0000000000
     17201       150  OSM       O3            -31.4148751208        5.5434843440      -16.2426418307  MEMB      150             0.0000000000
     17202       150  OSM       HO3           -31.7174315411        6.2641030649      -16.8126366022  MEMB      150             0.0000000000
     17203       150  OSM       C4S           -29.7048019388        5.8572451515      -14.6271364567  MEMB      150             0.0000000000
     17204       150  OSM       H4S           -30.2056355543        6.6265404686      -14.0276248474  MEMB      150             0.0000000000
     17205       150  OSM       C5S           -28.8299111886        5.0203318639      -14.0750307370  MEMB      150             0.0000000000
     17206       150  OSM       H5S           -28.4688153138        4.1877574829      -14.7156962465  MEMB      150             0.0000000000
     17207       150  OSM       C6S           -28.4555339377        5.0307447738      -12.6172001601  MEMB      150             0.0000000000
     17208       150  OSM       H6S           -27.4178247681        5.3802205421      -12.5219245489  MEMB      150             0.0000000000
     17209       150  OSM       H6T           -28.3846990938        4.0128725101      -12.2501469729  MEMB      150             0.0000000000
     17210       150  OSM       C7S           -29.4046190730        5.6405065233      -11.5510724980  MEMB      150             0.0000000000
     17211       150  OSM       H7S           -30.3611583459        5.0747176246      -11.4906932852  MEMB      150             0.0000000000
     17212       150  OSM       H7T           -29.6835821922        6.6716278658      -11.8144826334  MEMB      150             0.0000000000
     17213       150  OSM       C8S           -28.7928801672        5.6206298591      -10.1430280980  MEMB      150             0.0000000000
     17214       150  OSM       H8S           -27.8844253476        6.2351817338      -10.0801157716  MEMB      150             0.0000000000
     17215       150  OSM       H8T           -28.3308417231        4.6798636589       -9.9167748220  MEMB      150             0.0000000000
     17216       150  OSM       C9S           -29.7860905776        5.9117589166       -9.0110206987  MEMB      150             0.0000000000
     17217       150  OSM       H9S           -30.8278732980        5.7339767529       -9.3577430941  MEMB      150             0.0000000000
     17218       150  OSM       H9T           -29.6587455330        6.9939570658       -8.8004849067  MEMB      150             0.0000000000
     17219       150  OSM       C10S          -29.5272638010        5.1027972969       -7.7240729435  MEMB      150             0.0000000000
     17220       150  OSM       H10S          -28.4203294360        5.0316395961       -7.5987194023  MEMB      150             0.0000000000
     17221       150  OSM       H10T          -29.9158897523        4.0636006880       -7.8065656512  MEMB      150             0.0000000000
     17222       150  OSM       C11S          -30.0625144324        5.7896789171       -6.4536687460  MEMB      150             0.0000000000
     17223       150  OSM       H11S          -31.1504958503        6.0084119313       -6.4887717187  MEMB      150             0.0000000000
     17224       150  OSM       H11T          -29.5445292987        6.7725679202       -6.4310098120  MEMB      150             0.0000000000
     17225       150  OSM       C12S          -29.6414051600        5.0344008053       -5.1818904162  MEMB      150             0.0000000000
     17226       150  OSM       H12S          -28.5236184983        5.0413958645       -5.2380983570  MEMB      150             0.0000000000
     17227       150  OSM       H12T          -29.9825176283        3.9793055686       -5.1766884853  MEMB      150             0.0000000000
     17228       150  OSM       C13S          -30.0196412473        5.6845020996       -3.8425942492  MEMB      150             0.0000000000
     17229       150  OSM       H13S          -29.6827477283        6.7430232261       -3.8672937252  MEMB      150             0.0000000000
     17230       150  OSM       H13T          -29.4617100627        5.1450741431       -3.0405433623  MEMB      150             0.0000000000
     17231       150  OSM       C14S          -31.4830009335        5.6391524286       -3.3839488906  MEMB      150             0.0000000000
     17232       150  OSM       H14S          -31.7862794877        4.5813180261       -3.1826175433  MEMB      150             0.0000000000
     17233       150  OSM       H14T          -32.1656403372        5.9794048262       -4.1857021419  MEMB      150             0.0000000000
     17234       150  OSM       C15S          -31.6221489875        6.4497922247       -2.0688247392  MEMB      150             0.0000000000
     17235       150  OSM       H15S          -30.8526792264        6.0589710014       -1.3681872524  MEMB      150             0.0000000000
     17236       150  OSM       H15T          -32.6188934713        6.2640326098       -1.6201419317  MEMB      150             0.0000000000
     17237       150  OSM       C16S          -31.3757822106        7.9775852374       -2.0779909213  MEMB      150             0.0000000000
     17238       150  OSM       H16S          -30.3367982471        8.2194208048       -2.3893671398  MEMB      150             0.0000000000
     17239       150  OSM       H16T          -31.4646792292        8.3096692400       -1.0159799512  MEMB      150             0.0000000000
     17240       150  OSM       C17S          -32.3305393233        8.7970338154       -2.9538408190  MEMB      150             0.0000000000
     17241       150  OSM       H17S          -32.2705056636        8.3906728211       -3.9875203837  MEMB      150             0.0000000000
     17242       150  OSM       H17T          -31.9691991998        9.8515583758       -2.9925541023  MEMB      150             0.0000000000
     17243       150  OSM       C18S          -33.7952544387        8.7736384408       -2.5138748940  MEMB      150             0.0000000000
     17244       150  OSM       H18S          -33.9130168194        9.1134512567       -1.4613894628  MEMB      150             0.0000000000
     17245       150  OSM       H18T          -34.1958033872        7.7414550693       -2.6099168689  MEMB      150             0.0000000000
     17246       150  OSM       H18U          -34.3973533046        9.4362916265       -3.1717795654  MEMB      150             0.0000000000
     17247       150  OSM       C1F           -27.7453012973        8.6715935712      -16.5710673667  MEMB      150             0.0000000000
     17248       150  OSM       OF            -28.4226695075        9.5344116499      -17.1014478728  MEMB      150             0.0000000000
     17249       150  OSM       C2F           -26.3502296390        8.8725078840      -16.1851544138  MEMB      150             0.0000000000
     17250       150  OSM       H2F           -25.8641386684        9.5797510841      -16.8677051397  MEMB      150             0.0000000000
     17251       150  OSM       H2G           -25.7559847010        7.9569961929      -16.2211812814  MEMB      150             0.0000000000
     17252       150  OSM       C3F           -26.2306697909        9.3745368122      -14.7734775082  MEMB      150             0.0000000000
     17253       150  OSM       H3F           -26.6030739961       10.3238572415      -14.7968507683  MEMB      150             0.0000000000
     17254       150  OSM       H3G           -25.1836030972        9.7336297935      -14.7660680012  MEMB      150             0.0000000000
     17255       150  OSM       C4F           -26.9701402320        8.5640081878      -13.6424798831  MEMB      150             0.0000000000
     17256       150  OSM       H4F           -26.3312704818        7.6597434091      -13.7492163321  MEMB      150             0.0000000000
     17257       150  OSM       H4G           -27.9864232437        8.2494286085      -13.8363283669  MEMB      150             0.0000000000
     17258       150  OSM       C5F           -27.1696309693        9.0758795406      -12.1545097274  MEMB      150             0.0000000000
     17259       150  OSM       H5F           -26.1877549525        9.3774854755      -12.2740368143  MEMB      150             0.0000000000
     17260       150  OSM       H5G           -27.0516890625        8.4250180407      -11.2821481701  MEMB      150             0.0000000000
     17261       150  OSM       C6F           -27.8577670685       10.3433424113      -11.6459689435  MEMB      150             0.0000000000
     17262       150  OSM       H6F           -28.5212580931       10.7994971309      -12.3205581008  MEMB      150             0.0000000000
     17263       150  OSM       H6G           -27.1769136791       11.0576430293      -11.8042561232  MEMB      150             0.0000000000
     17264       150  OSM       C7F           -27.4770912758       11.1058448276      -10.3777151080  MEMB      150             0.0000000000
     17265       150  OSM       H7F           -27.8315428765       12.1724284725      -10.6001786274  MEMB      150             0.0000000000
     17266       150  OSM       H7G           -26.4109043398       11.1778582454      -10.0819597043  MEMB      150             0.0000000000
     17267       150  OSM       C8F           -28.0032108461       10.1530390267       -9.3834286296  MEMB      150             0.0000000000
     17268       150  OSM       H8F           -27.3835516443        9.2422019978       -9.4312957525  MEMB      150             0.0000000000
     17269       150  OSM       H8G           -29.0167847930       10.0151900110       -9.7955345273  MEMB      150             0.0000000000
     17270       150  OSM       C9F           -28.1328722807       10.4651979108       -7.9781663470  MEMB      150             0.0000000000
     17271       150  OSM       H9F           -28.7465360920       11.3340854128       -7.8378371445  MEMB      150             0.0000000000
     17272       150  OSM       C10F          -27.7106435031        9.8693914512       -6.8845337646  MEMB      150             0.0000000000
     17273       150  OSM       H10F          -27.9045028796       10.1916564899       -5.9037253872  MEMB      150             0.0000000000
     17274       150  OSM       C11F          -27.0054998138        8.7723591428       -6.4236625160  MEMB      150             0.0000000000
     17275       150  OSM       H11F          -26.6695797195        8.4058274535       -7.3815682905  MEMB      150             0.0000000000
     17276       150  OSM       H11G          -27.7635283960        8.1232441832       -5.9642895866  MEMB      150             0.0000000000
     17277       150  OSM       C12F          -25.9400255716        9.3057482390       -5.4111167074  MEMB      150             0.0000000000
     17278       150  OSM       H12F          -25.1010654312        9.8014620410       -5.9465312675  MEMB      150             0.0000000000
     17279       150  OSM       H12G          -25.4595974547        8.4209764993       -5.0172497297  MEMB      150             0.0000000000
     17280       150  OSM       C13F          -26.2399084071        9.8051040375       -4.0132265804  MEMB      150             0.0000000000
     17281       150  OSM       H13F          -26.5866700193       10.8247434151       -4.1926031594  MEMB      150             0.0000000000
     17282       150  OSM       H13G          -25.2451049477        9.8725437823       -3.5007333759  MEMB      150             0.0000000000
     17283       150  OSM       C14F          -27.2391342794        8.9165498564       -3.2291405852  MEMB      150             0.0000000000
     17284       150  OSM       H14F          -27.0474612630        7.8460322993       -3.2363406901  MEMB      150             0.0000000000
     17285       150  OSM       H14G          -28.2053496552        8.8419093293       -3.7377965888  MEMB      150             0.0000000000
     17286       150  OSM       C15F          -27.4368317709        9.2424177809       -1.7467541172  MEMB      150             0.0000000000
     17287       150  OSM       H15F          -28.0298090700        8.4111587547       -1.3017269684  MEMB      150             0.0000000000
     17288       150  OSM       H15G          -28.0009697588       10.1643917570       -1.6127502744  MEMB      150             0.0000000000
     17289       150  OSM       C16F          -26.1729517019        9.4137520890       -0.9415705765  MEMB      150             0.0000000000
     17290       150  OSM       H16F          -26.4130098025        9.7364205699        0.0656271769  MEMB      150             0.0000000000
     17291       150  OSM       H16G          -25.4613915739       10.1462495956       -1.3855672270  MEMB      150             0.0000000000
     17292       150  OSM       C17F          -25.5657994978        8.0740477040       -0.8110721230  MEMB      150             0.0000000000
     17293       150  OSM       H17F          -24.6226103314        8.1665297370       -0.2884277652  MEMB      150             0.0000000000
     17294       150  OSM       H17G          -25.4608370632        7.8432124167       -1.8809298444  MEMB      150             0.0000000000
     17295       150  OSM       C18F          -26.2804855719        6.9810161200       -0.0661715509  MEMB      150             0.0000000000
     17296       150  OSM       H18F          -25.9816589796        5.9897945809       -0.3468748144  MEMB      150             0.0000000000
     17297       150  OSM       H18G          -27.3285199843        6.8795654357       -0.3391007335  MEMB      150             0.0000000000
     17298       150  OSM       H18H          -26.0660658631        7.0992195439        1.0159096320  MEMB      150             0.0000000000
     17299       151  CHL1      C3            -30.8194438594        0.6382316753      -17.2727701673  MEMB      151             0.0000000000
     17300       151  CHL1      H3            -31.7907805261        0.3670016364      -16.7940485371  MEMB      151             0.0000000000
     17301       151  CHL1      O3            -30.9749341398        0.6965203116      -18.6717192095  MEMB      151             0.0000000000
     17302       151  CHL1      H3'           -31.5082298361        1.4692061492      -18.8660691492  MEMB      151             0.0000000000
     17303       151  CHL1      C4            -30.3946085174        2.0068311794      -16.7107535023  MEMB      151             0.0000000000
     17304       151  CHL1      H4A           -29.5263690034        2.4440888261      -17.2480678338  MEMB      151             0.0000000000
     17305       151  CHL1      H4B           -31.2552934466        2.6919220384      -16.8947668237  MEMB      151             0.0000000000
     17306       151  CHL1      C5            -30.1002530110        1.8595422861      -15.2295588859  MEMB      151             0.0000000000
     17307       151  CHL1      C6            -30.7147022625        2.5968057434      -14.3098107604  MEMB      151             0.0000000000
     17308       151  CHL1      H6            -31.3619587525        3.4222620440      -14.6642551536  MEMB      151             0.0000000000
     17309       151  CHL1      C7            -30.3924576141        2.4639115413      -12.8407865366  MEMB      151             0.0000000000
     17310       151  CHL1      H7A           -30.3235233750        3.4477771124      -12.4085254114  MEMB      151             0.0000000000
     17311       151  CHL1      H7B           -31.2556194570        2.0629787104      -12.2802201114  MEMB      151             0.0000000000
     17312       151  CHL1      C8            -29.0792616622        1.6881833465      -12.4723268847  MEMB      151             0.0000000000
     17313       151  CHL1      H8            -28.1427293656        2.2436176117      -12.6701498299  MEMB      151             0.0000000000
     17314       151  CHL1      C14           -29.0864030987        1.2510145226      -11.0105856831  MEMB      151             0.0000000000
     17315       151  CHL1      H14           -29.9462135000        0.5536368106      -10.9568114173  MEMB      151             0.0000000000
     17316       151  CHL1      C15           -29.3738312101        2.2557220640       -9.8879112069  MEMB      151             0.0000000000
     17317       151  CHL1      H15A          -28.5999762732        2.9703605945      -10.0829259848  MEMB      151             0.0000000000
     17318       151  CHL1      H15B          -30.3671100324        2.7383134726       -9.9031793479  MEMB      151             0.0000000000
     17319       151  CHL1      C16           -28.8950148358        1.6135110304       -8.5843018009  MEMB      151             0.0000000000
     17320       151  CHL1      H16A          -28.0636188932        2.2078668169       -8.1319519528  MEMB      151             0.0000000000
     17321       151  CHL1      H16B          -29.7046820882        1.5615780186       -7.8330178623  MEMB      151             0.0000000000
     17322       151  CHL1      C17           -28.3376527673        0.2431013232       -9.0759349445  MEMB      151             0.0000000000
     17323       151  CHL1      H17           -29.2368372907       -0.4129604072       -9.1209483489  MEMB      151             0.0000000000
     17324       151  CHL1      C13           -27.8775655894        0.4573011071      -10.5351855873  MEMB      151             0.0000000000
     17325       151  CHL1      C18           -26.5660840883        1.2821868444      -10.4782165985  MEMB      151             0.0000000000
     17326       151  CHL1      H18A          -25.7424867201        0.6212996357      -10.1323987261  MEMB      151             0.0000000000
     17327       151  CHL1      H18B          -26.3081287650        1.6834724315      -11.4751824086  MEMB      151             0.0000000000
     17328       151  CHL1      H18C          -26.6370229780        2.1187464691       -9.7567732605  MEMB      151             0.0000000000
     17329       151  CHL1      C12           -27.7086557046       -0.7577341180      -11.4732977919  MEMB      151             0.0000000000
     17330       151  CHL1      H12A          -26.7425561996       -1.2662398620      -11.3061828575  MEMB      151             0.0000000000
     17331       151  CHL1      H12B          -28.5110507037       -1.4976178729      -11.2739521403  MEMB      151             0.0000000000
     17332       151  CHL1      C11           -27.6995587313       -0.3595817467      -12.9529614128  MEMB      151             0.0000000000
     17333       151  CHL1      H11A          -26.7931389367        0.2545184659      -13.1464755109  MEMB      151             0.0000000000
     17334       151  CHL1      H11B          -27.6069725514       -1.2986407659      -13.5379248087  MEMB      151             0.0000000000
     17335       151  CHL1      C9            -28.9556651094        0.4593192348      -13.3380109462  MEMB      151             0.0000000000
     17336       151  CHL1      H9            -29.8277859058       -0.1589064829      -13.0299912439  MEMB      151             0.0000000000
     17337       151  CHL1      C10           -29.1118632812        0.7524904767      -14.8519853619  MEMB      151             0.0000000000
     17338       151  CHL1      C19           -27.7444158186        1.1782638643      -15.4226531380  MEMB      151             0.0000000000
     17339       151  CHL1      H19A          -27.0771250586        0.2978141779      -15.4066882437  MEMB      151             0.0000000000
     17340       151  CHL1      H19B          -27.7822312749        1.5081369621      -16.4823195153  MEMB      151             0.0000000000
     17341       151  CHL1      H19C          -27.3075248179        1.9871593822      -14.8006000239  MEMB      151             0.0000000000
     17342       151  CHL1      C1            -29.5664369811       -0.5639970782      -15.5020185733  MEMB      151             0.0000000000
     17343       151  CHL1      H1A           -28.7946343981       -1.3382814713      -15.3291545049  MEMB      151             0.0000000000
     17344       151  CHL1      H1B           -30.5122778602       -0.9043230094      -15.0149323753  MEMB      151             0.0000000000
     17345       151  CHL1      C2            -29.8024009047       -0.4585040200      -17.0025380901  MEMB      151             0.0000000000
     17346       151  CHL1      H2A           -30.1636147782       -1.4436780437      -17.3720016183  MEMB      151             0.0000000000
     17347       151  CHL1      H2B           -28.8662822490       -0.2295441422      -17.5588692055  MEMB      151             0.0000000000
     17348       151  CHL1      C20           -27.3841850778       -0.4177340987       -8.1062763620  MEMB      151             0.0000000000
     17349       151  CHL1      H20           -26.5178686321        0.2717920975       -7.9304801630  MEMB      151             0.0000000000
     17350       151  CHL1      C21           -26.8629424986       -1.7216595498       -8.7831310051  MEMB      151             0.0000000000
     17351       151  CHL1      H21A          -27.6471480059       -2.4042529828       -9.1262411528  MEMB      151             0.0000000000
     17352       151  CHL1      H21B          -26.4084929785       -2.4093075273       -8.0978982111  MEMB      151             0.0000000000
     17353       151  CHL1      H21C          -26.0536661492       -1.5485596827       -9.5359750845  MEMB      151             0.0000000000
     17354       151  CHL1      C22           -28.1602301822       -0.6051238858       -6.7444341285  MEMB      151             0.0000000000
     17355       151  CHL1      H22A          -28.3057182731        0.4281998035       -6.3437572784  MEMB      151             0.0000000000
     17356       151  CHL1      H22B          -29.1103600608       -1.1342424298       -6.9107561823  MEMB      151             0.0000000000
     17357       151  CHL1      C23           -27.5254171052       -1.3738984569       -5.5786774144  MEMB      151             0.0000000000
     17358       151  CHL1      H23A          -27.2446587420       -2.4098376019       -5.8616210721  MEMB      151             0.0000000000
     17359       151  CHL1      H23B          -26.7007568359       -0.6732031382       -5.4841312150  MEMB      151             0.0000000000
     17360       151  CHL1      C24           -28.1016809426       -1.3259264208       -4.1843141007  MEMB      151             0.0000000000
     17361       151  CHL1      H24A          -28.1398633068       -0.2353155125       -3.9245650331  MEMB      151             0.0000000000
     17362       151  CHL1      H24B          -29.0560878404       -1.8359988204       -4.3269736969  MEMB      151             0.0000000000
     17363       151  CHL1      C25           -27.5148035608       -2.1175282287       -2.9861710248  MEMB      151             0.0000000000
     17364       151  CHL1      H25           -27.0339748186       -3.1134546714       -3.2301047398  MEMB      151             0.0000000000
     17365       151  CHL1      C26           -26.5565922825       -1.3625800425       -2.3033457585  MEMB      151             0.0000000000
     17366       151  CHL1      H26A          -25.8562454851       -1.7658485169       -1.5281876881  MEMB      151             0.0000000000
     17367       151  CHL1      H26B          -26.0203809899       -1.6182896853       -3.2017366880  MEMB      151             0.0000000000
     17368       151  CHL1      H26C          -26.6494758011       -0.2402964022       -2.2744806300  MEMB      151             0.0000000000
     17369       151  CHL1      C27           -28.3130595946       -1.8939429056       -1.7692988794  MEMB      151             0.0000000000
     17370       151  CHL1      H27A          -28.5287956504       -0.7854203516       -1.7474837336  MEMB      151             0.0000000000
     17371       151  CHL1      H27B          -29.2074378783       -2.4654265094       -1.9431479475  MEMB      151             0.0000000000
     17372       151  CHL1      H27C          -27.7519672669       -2.1625055244       -0.8260675192  MEMB      151             0.0000000000
     17373       152  OSM       N             -23.7101854767       22.2918263597      -21.9660706496  MEMB      152             0.0000000000
     17374       152  OSM       C15           -22.7571355503       22.7562342239      -20.9232078429  MEMB      152             0.0000000000
     17375       152  OSM       H15A          -23.2966730393       23.3903807165      -20.2297864151  MEMB      152             0.0000000000
     17376       152  OSM       H15B          -21.9640779376       23.3226920840      -21.3850962578  MEMB      152             0.0000000000
     17377       152  OSM       H15C          -22.3013362448       21.9172669847      -20.3926914334  MEMB      152             0.0000000000
     17378       152  OSM       C14           -24.4812179177       23.5076435640      -22.3598067828  MEMB      152             0.0000000000
     17379       152  OSM       H14A          -25.1187795548       23.3259102154      -23.2097121488  MEMB      152             0.0000000000
     17380       152  OSM       H14B          -23.7855183453       24.2969603087      -22.5931936250  MEMB      152             0.0000000000
     17381       152  OSM       H14C          -25.1151278438       23.8539341447      -21.5409626208  MEMB      152             0.0000000000
     17382       152  OSM       C13           -22.9323914563       21.7457308656      -23.1190932753  MEMB      152             0.0000000000
     17383       152  OSM       H13A          -23.5582517419       21.5265457388      -23.9709443139  MEMB      152             0.0000000000
     17384       152  OSM       H13B          -22.4607645144       20.7865239404      -22.8419194283  MEMB      152             0.0000000000
     17385       152  OSM       H13C          -22.1361648307       22.3995752824      -23.4009322119  MEMB      152             0.0000000000
     17386       152  OSM       C12           -24.6426110082       21.1917979771      -21.4152671680  MEMB      152             0.0000000000
     17387       152  OSM       H12A          -25.5520542353       21.2198196041      -21.9978913338  MEMB      152             0.0000000000
     17388       152  OSM       H12B          -24.9405028075       21.4408437754      -20.3953381107  MEMB      152             0.0000000000
     17389       152  OSM       C11           -24.1690997700       19.6923045878      -21.3985107749  MEMB      152             0.0000000000
     17390       152  OSM       H11A          -24.4648549372       19.1521549990      -22.3237287205  MEMB      152             0.0000000000
     17391       152  OSM       H11B          -24.7237354348       19.1460116999      -20.5913118097  MEMB      152             0.0000000000
     17392       152  OSM       P             -22.0218166312       19.1883776299      -19.9425613222  MEMB      152             0.0000000000
     17393       152  OSM       O13           -21.7849981129       17.7304181516      -19.8958059176  MEMB      152             0.0000000000
     17394       152  OSM       O14           -20.8568600698       20.0964753120      -19.8076664740  MEMB      152             0.0000000000
     17395       152  OSM       O11           -23.1604995785       19.5978845561      -18.9188719921  MEMB      152             0.0000000000
     17396       152  OSM       O12           -22.7564354497       19.5668525510      -21.2935065554  MEMB      152             0.0000000000
     17397       152  OSM       C1S           -23.2505943801       18.9460036089      -17.6683894913  MEMB      152             0.0000000000
     17398       152  OSM       H1S           -22.6039775993       18.0399345672      -17.5980055924  MEMB      152             0.0000000000
     17399       152  OSM       H1T           -24.2616913727       18.5557025427      -17.5254222539  MEMB      152             0.0000000000
     17400       152  OSM       NF            -22.5951482591       19.2513378597      -15.4128312121  MEMB      152             0.0000000000
     17401       152  OSM       HNF           -23.2294814151       19.1398452355      -14.6500862392  MEMB      152             0.0000000000
     17402       152  OSM       C2S           -22.9842555447       19.9581809075      -16.5425270319  MEMB      152             0.0000000000
     17403       152  OSM       H2S           -22.1011563770       20.5918975694      -16.7742705658  MEMB      152             0.0000000000
     17404       152  OSM       C3S           -24.2119837678       20.8335715850      -16.2566244666  MEMB      152             0.0000000000
     17405       152  OSM       H3S           -25.1108580847       20.1824839589      -16.1436018605  MEMB      152             0.0000000000
     17406       152  OSM       O3            -24.4653268065       21.8055582805      -17.2526267637  MEMB      152             0.0000000000
     17407       152  OSM       HO3           -23.6699090327       21.7744055302      -17.7912414012  MEMB      152             0.0000000000
     17408       152  OSM       C4S           -24.0306988960       21.6046990465      -14.9713101816  MEMB      152             0.0000000000
     17409       152  OSM       H4S           -23.0654135684       22.1251736150      -14.8748498374  MEMB      152             0.0000000000
     17410       152  OSM       C5S           -24.9405390375       21.6969711123      -13.9824434062  MEMB      152             0.0000000000
     17411       152  OSM       H5S           -25.9152043975       21.1952558688      -14.1024843166  MEMB      152             0.0000000000
     17412       152  OSM       C6S           -24.7553623318       22.4674433139      -12.7015336989  MEMB      152             0.0000000000
     17413       152  OSM       H6S           -25.3541938733       23.3984224115      -12.7487191653  MEMB      152             0.0000000000
     17414       152  OSM       H6T           -23.7063777039       22.8088195090      -12.5795386795  MEMB      152             0.0000000000
     17415       152  OSM       C7S           -25.2454933096       21.6320175850      -11.4913927291  MEMB      152             0.0000000000
     17416       152  OSM       H7S           -24.8280858532       20.5997508349      -11.5229751360  MEMB      152             0.0000000000
     17417       152  OSM       H7T           -26.3441598330       21.5719211532      -11.5677554512  MEMB      152             0.0000000000
     17418       152  OSM       C8S           -24.9557987216       22.2142476077      -10.1088928916  MEMB      152             0.0000000000
     17419       152  OSM       H8S           -25.5128778864       21.7673610926       -9.2644154970  MEMB      152             0.0000000000
     17420       152  OSM       H8T           -25.1481285183       23.3153023000      -10.1040682948  MEMB      152             0.0000000000
     17421       152  OSM       C9S           -23.5046270214       22.0349893385       -9.7847851891  MEMB      152             0.0000000000
     17422       152  OSM       H9S           -23.3264145029       22.7752511321       -8.9807419689  MEMB      152             0.0000000000
     17423       152  OSM       H9T           -23.0412996068       22.3832816669      -10.7121946141  MEMB      152             0.0000000000
     17424       152  OSM       C10S          -22.9489302985       20.6651932079       -9.3333974013  MEMB      152             0.0000000000
     17425       152  OSM       H10S          -21.8359788096       20.6555651913       -9.3232144317  MEMB      152             0.0000000000
     17426       152  OSM       H10T          -23.1674049525       19.8808273161      -10.0787648619  MEMB      152             0.0000000000
     17427       152  OSM       C11S          -23.4401395837       20.2655021540       -7.9305066918  MEMB      152             0.0000000000
     17428       152  OSM       H11S          -23.1122441541       19.2217617874       -7.7324355645  MEMB      152             0.0000000000
     17429       152  OSM       H11T          -24.5493370719       20.2974504553       -7.9350499294  MEMB      152             0.0000000000
     17430       152  OSM       C12S          -22.9137872275       21.0689083092       -6.7239575343  MEMB      152             0.0000000000
     17431       152  OSM       H12S          -23.1241290436       22.1559198409       -6.8152082776  MEMB      152             0.0000000000
     17432       152  OSM       H12T          -21.8242795119       20.9183046294       -6.6647432376  MEMB      152             0.0000000000
     17433       152  OSM       C13S          -23.4861257030       20.5203101064       -5.4065090017  MEMB      152             0.0000000000
     17434       152  OSM       H13S          -23.2119165441       19.4444243065       -5.3088170322  MEMB      152             0.0000000000
     17435       152  OSM       H13T          -24.5866424810       20.5919288552       -5.5077090917  MEMB      152             0.0000000000
     17436       152  OSM       C14S          -23.1295105578       21.3062449129       -4.1318341571  MEMB      152             0.0000000000
     17437       152  OSM       H14S          -23.8172945647       21.0030272466       -3.3156045749  MEMB      152             0.0000000000
     17438       152  OSM       H14T          -23.2547452430       22.3966559856       -4.3273278468  MEMB      152             0.0000000000
     17439       152  OSM       C15S          -21.7287455250       21.0286606498       -3.6069553643  MEMB      152             0.0000000000
     17440       152  OSM       H15S          -21.1262960304       21.0694482882       -4.5183833907  MEMB      152             0.0000000000
     17441       152  OSM       H15T          -21.5685410885       20.0015271494       -3.2885595769  MEMB      152             0.0000000000
     17442       152  OSM       C16S          -21.3594003966       21.8552436372       -2.3607707448  MEMB      152             0.0000000000
     17443       152  OSM       H16S          -22.2836675687       21.8610750865       -1.7411455488  MEMB      152             0.0000000000
     17444       152  OSM       H16T          -21.1800731585       22.9256953675       -2.5567185437  MEMB      152             0.0000000000
     17445       152  OSM       C17S          -20.1786602437       21.2857979957       -1.5352590549  MEMB      152             0.0000000000
     17446       152  OSM       H17S          -20.4962242922       20.3663944463       -1.0239815904  MEMB      152             0.0000000000
     17447       152  OSM       H17T          -19.9420970931       22.0443208217       -0.7561056881  MEMB      152             0.0000000000
     17448       152  OSM       C18S          -18.9337939496       20.8166943336       -2.2792469651  MEMB      152             0.0000000000
     17449       152  OSM       H18S          -18.7626211622       21.6074493978       -2.8825778739  MEMB      152             0.0000000000
     17450       152  OSM       H18T          -19.0271378484       20.3447129886       -3.2705349755  MEMB      152             0.0000000000
     17451       152  OSM       H18U          -17.9535577638       20.8828263407       -1.7644834341  MEMB      152             0.0000000000
     17452       152  OSM       C1F           -21.4061245295       18.7043314712      -15.4205180378  MEMB      152             0.0000000000
     17453       152  OSM       OF            -20.7008640246       18.3779168872      -16.3552558225  MEMB      152             0.0000000000
     17454       152  OSM       C2F           -21.1831035802       18.2523004119      -14.1386710220  MEMB      152             0.0000000000
     17455       152  OSM       H2F           -21.7242211699       17.3264565511      -14.5211637500  MEMB      152             0.0000000000
     17456       152  OSM       H2G           -21.5350738438       18.7872448986      -13.2302508078  MEMB      152             0.0000000000
     17457       152  OSM       C3F           -20.1735778176       17.3520896190      -13.7867697555  MEMB      152             0.0000000000
     17458       152  OSM       H3F           -19.6031483161       18.2976662538      -13.7099227515  MEMB      152             0.0000000000
     17459       152  OSM       H3G           -20.0403190768       16.5303979805      -14.5744955240  MEMB      152             0.0000000000
     17460       152  OSM       C4F           -19.6122702874       16.9684595268      -12.4343043317  MEMB      152             0.0000000000
     17461       152  OSM       H4F           -18.5754331151       16.9241384223      -12.3524840230  MEMB      152             0.0000000000
     17462       152  OSM       H4G           -19.7760622037       15.8874749620      -12.4147332404  MEMB      152             0.0000000000
     17463       152  OSM       C5F           -19.9398419728       17.8975131515      -11.2827318114  MEMB      152             0.0000000000
     17464       152  OSM       H5F           -20.9628471989       18.2759481287      -11.2731946099  MEMB      152             0.0000000000
     17465       152  OSM       H5G           -19.2007943895       18.7219215915      -11.2087682512  MEMB      152             0.0000000000
     17466       152  OSM       C6F           -19.9443910588       17.2058745346       -9.9877653302  MEMB      152             0.0000000000
     17467       152  OSM       H6F           -19.3270355939       16.3783354315      -10.4590990433  MEMB      152             0.0000000000
     17468       152  OSM       H6G           -19.8212832822       16.2293808618       -9.5007415916  MEMB      152             0.0000000000
     17469       152  OSM       C7F           -19.9667840076       18.1602096284       -8.8074788738  MEMB      152             0.0000000000
     17470       152  OSM       H7F           -21.0427833534       18.3126861441       -8.7638048760  MEMB      152             0.0000000000
     17471       152  OSM       H7G           -19.3757212202       19.0863900026       -9.0262667207  MEMB      152             0.0000000000
     17472       152  OSM       C8F           -19.5109546541       17.7357609866       -7.4211815335  MEMB      152             0.0000000000
     17473       152  OSM       H8F           -19.4483609169       18.4585252283       -6.5687507193  MEMB      152             0.0000000000
     17474       152  OSM       H8G           -18.5183212745       17.9183074460       -7.5699526900  MEMB      152             0.0000000000
     17475       152  OSM       C9F           -19.3150837196       16.3620894465       -6.9834092469  MEMB      152             0.0000000000
     17476       152  OSM       H9F           -18.5773595716       15.6343681235       -7.3726567835  MEMB      152             0.0000000000
     17477       152  OSM       C10F          -20.0478433574       15.9510665279       -6.1016935733  MEMB      152             0.0000000000
     17478       152  OSM       H10F          -19.6718882935       15.0335057865       -5.6561468360  MEMB      152             0.0000000000
     17479       152  OSM       C11F          -21.1418272837       16.7266965177       -5.5129102814  MEMB      152             0.0000000000
     17480       152  OSM       H11F          -22.0202298394       16.2234282024       -5.9940399236  MEMB      152             0.0000000000
     17481       152  OSM       H11G          -21.2111163840       17.7825845202       -5.7599652541  MEMB      152             0.0000000000
     17482       152  OSM       C12F          -21.0834409746       16.6963901869       -4.0128417378  MEMB      152             0.0000000000
     17483       152  OSM       H12F          -20.1066760100       16.8286630122       -3.5404671729  MEMB      152             0.0000000000
     17484       152  OSM       H12G          -20.7426651924       15.6743543537       -3.7917317831  MEMB      152             0.0000000000
     17485       152  OSM       C13F          -22.4460453540       17.3349217762       -3.3856634685  MEMB      152             0.0000000000
     17486       152  OSM       H13F          -23.3359316110       16.9898217946       -3.9547992675  MEMB      152             0.0000000000
     17487       152  OSM       H13G          -22.1800352743       18.3517514830       -3.5443458310  MEMB      152             0.0000000000
     17488       152  OSM       C14F          -22.9850426457       17.3614430376       -1.8769444970  MEMB      152             0.0000000000
     17489       152  OSM       H14F          -22.0253844956       17.4273765694       -1.4913671803  MEMB      152             0.0000000000
     17490       152  OSM       H14G          -23.5418763377       16.5341353073       -1.3389339249  MEMB      152             0.0000000000
     17491       152  OSM       C15F          -23.3206744480       18.3913629132       -0.9425352879  MEMB      152             0.0000000000
     17492       152  OSM       H15F          -22.8782407515       19.2326431093       -1.4748266392  MEMB      152             0.0000000000
     17493       152  OSM       H15G          -22.8849493276       18.1300194167        0.0929829635  MEMB      152             0.0000000000
     17494       152  OSM       C16F          -24.7759561721       18.1432932699       -1.0084125779  MEMB      152             0.0000000000
     17495       152  OSM       H16F          -24.9436544768       17.2576027083       -0.3525002962  MEMB      152             0.0000000000
     17496       152  OSM       H16G          -25.0267112598       17.8733227551       -2.0673074914  MEMB      152             0.0000000000
     17497       152  OSM       C17F          -25.5731676580       19.3309791463       -0.7465863555  MEMB      152             0.0000000000
     17498       152  OSM       H17F          -26.6452810061       19.0867308302       -0.7501081188  MEMB      152             0.0000000000
     17499       152  OSM       H17G          -25.2586328130       20.0213859502       -1.5504587948  MEMB      152             0.0000000000
     17500       152  OSM       C18F          -25.1500709642       19.9351778044        0.5125384029  MEMB      152             0.0000000000
     17501       152  OSM       H18F          -25.2031668896       19.2546195117        1.2959622283  MEMB      152             0.0000000000
     17502       152  OSM       H18G          -25.6712926864       20.8506085028        0.8156448618  MEMB      152             0.0000000000
     17503       152  OSM       H18H          -24.0759654068       19.9332264395        0.4933938137  MEMB      152             0.0000000000
     17504       153  SAPS      N             -30.7574417871       -6.8173113632      -21.7391590592  MEMB      153             0.0000000000
     17505       153  SAPS      HN1           -30.1677949894       -6.1252831061      -21.2347270114  MEMB      153             0.0000000000
     17506       153  SAPS      HN2           -30.6157290713       -6.7036356681      -22.7696412667  MEMB      153             0.0000000000
     17507       153  SAPS      HN3           -31.7360595833       -6.7612839422      -21.4008581970  MEMB      153             0.0000000000
     17508       153  SAPS      C12           -30.2094823574       -8.2050678837      -21.4624248573  MEMB      153             0.0000000000
     17509       153  SAPS      H12A          -30.9880852100       -8.9210377678      -21.6677354418  MEMB      153             0.0000000000
     17510       153  SAPS      C13           -29.0480422854       -8.5418306200      -22.4093731392  MEMB      153             0.0000000000
     17511       153  SAPS      O13A          -28.7894089464       -7.6629328286      -23.2847342421  MEMB      153             0.0000000000
     17512       153  SAPS      O13B          -28.7743346022       -9.7553023874      -22.5281563379  MEMB      153             0.0000000000
     17513       153  SAPS      C11           -29.7338155092       -8.3563252882      -19.9998051874  MEMB      153             0.0000000000
     17514       153  SAPS      H11A          -28.7691713410       -7.8079945783      -19.8865866534  MEMB      153             0.0000000000
     17515       153  SAPS      H11B          -29.5298220935       -9.4308812390      -19.7787569521  MEMB      153             0.0000000000
     17516       153  SAPS      P             -30.4302074433       -7.2140740522      -17.7380171110  MEMB      153             0.0000000000
     17517       153  SAPS      O13           -29.1568419684       -6.4816858638      -17.8067263688  MEMB      153             0.0000000000
     17518       153  SAPS      O14           -31.6399827848       -6.5124233627      -17.3913478826  MEMB      153             0.0000000000
     17519       153  SAPS      O12           -30.7488853227       -7.8746689253      -19.1353758615  MEMB      153             0.0000000000
     17520       153  SAPS      O11           -30.3218287774       -8.4137448892      -16.7547440423  MEMB      153             0.0000000000
     17521       153  SAPS      C1            -29.2061978018       -9.2601507224      -16.7602942827  MEMB      153             0.0000000000
     17522       153  SAPS      HA            -29.1423670705       -9.8373643606      -17.7105155828  MEMB      153             0.0000000000
     17523       153  SAPS      HB            -28.2662676350       -8.6883306469      -16.5956790012  MEMB      153             0.0000000000
     17524       153  SAPS      C2            -29.3345773597      -10.2365882335      -15.6097911483  MEMB      153             0.0000000000
     17525       153  SAPS      HS            -28.8314765699      -11.1334786818      -15.9536673246  MEMB      153             0.0000000000
     17526       153  SAPS      O21           -30.6476558962      -10.5524803899      -15.2830396056  MEMB      153             0.0000000000
     17527       153  SAPS      C21           -31.0617954251      -11.7302391902      -15.6890957575  MEMB      153             0.0000000000
     17528       153  SAPS      O22           -30.5558161968      -12.4632304421      -16.4895936141  MEMB      153             0.0000000000
     17529       153  SAPS      C22           -32.3733545796      -11.9884199512      -15.1047570431  MEMB      153             0.0000000000
     17530       153  SAPS      H2R           -32.4767591874      -11.0159343257      -14.6018471138  MEMB      153             0.0000000000
     17531       153  SAPS      H2S           -32.8938868757      -11.9129205099      -16.0714717991  MEMB      153             0.0000000000
     17532       153  SAPS      C3            -28.6864860422       -9.6658282802      -14.3460008334  MEMB      153             0.0000000000
     17533       153  SAPS      HX            -28.8588205900       -8.6085428373      -14.1845508399  MEMB      153             0.0000000000
     17534       153  SAPS      HY            -27.6380841416       -9.9295179421      -14.5744848601  MEMB      153             0.0000000000
     17535       153  SAPS      O31           -29.2153714015      -10.2315560135      -13.1754683363  MEMB      153             0.0000000000
     17536       153  SAPS      C31           -28.9305258557       -9.7844362444      -11.8961184473  MEMB      153             0.0000000000
     17537       153  SAPS      O32           -28.5334988479       -8.7202330618      -11.5564964211  MEMB      153             0.0000000000
     17538       153  SAPS      C32           -28.8441990314      -10.9194562891      -10.9469992776  MEMB      153             0.0000000000
     17539       153  SAPS      H2X           -28.6906215475      -11.5278742850      -11.8593684057  MEMB      153             0.0000000000
     17540       153  SAPS      H2Y           -29.6016512036      -11.3132816256      -10.2837353155  MEMB      153             0.0000000000
     17541       153  SAPS      C23           -32.9539152209      -13.3666749818      -14.4247877774  MEMB      153             0.0000000000
     17542       153  SAPS      H3R           -32.1594162735      -14.0678981389      -14.7283281694  MEMB      153             0.0000000000
     17543       153  SAPS      H3S           -33.8619469520      -13.5325883463      -14.9906711822  MEMB      153             0.0000000000
     17544       153  SAPS      C24           -33.7685512402      -13.7093353548      -12.8855982058  MEMB      153             0.0000000000
     17545       153  SAPS      H4R           -32.5473731269      -13.4603612685      -12.8338376062  MEMB      153             0.0000000000
     17546       153  SAPS      H4S           -33.0984760109      -14.5601634958      -12.5154336684  MEMB      153             0.0000000000
     17547       153  SAPS      C25           -35.0577259638      -12.6535012106      -11.6661876755  MEMB      153             0.0000000000
     17548       153  SAPS      H5R           -36.0035926927      -12.6099000340      -12.1866646971  MEMB      153             0.0000000000
     17549       153  SAPS      C26           -34.7189265612      -11.2811203830      -10.6642091766  MEMB      153             0.0000000000
     17550       153  SAPS      H6R           -35.1729142193      -10.3227388764      -10.9895240614  MEMB      153             0.0000000000
     17551       153  SAPS      C27           -33.1266069321      -10.3863469579      -10.2745707503  MEMB      153             0.0000000000
     17552       153  SAPS      H7R           -32.0698310914      -10.6733686296      -10.7511975535  MEMB      153             0.0000000000
     17553       153  SAPS      H7S           -32.4550652611      -10.7092211517       -9.4038943519  MEMB      153             0.0000000000
     17554       153  SAPS      C28           -32.6543835174       -8.9728258752      -10.4800547616  MEMB      153             0.0000000000
     17555       153  SAPS      H8R           -32.0557422874       -8.5949230806      -11.3367847534  MEMB      153             0.0000000000
     17556       153  SAPS      C29           -32.6986448830       -8.3262101535       -9.3644900335  MEMB      153             0.0000000000
     17557       153  SAPS      H9R           -32.4452756018       -7.2835115634       -9.2490231960  MEMB      153             0.0000000000
     17558       153  SAPS      C210          -33.1856345494       -9.0951290706       -8.2179140095  MEMB      153             0.0000000000
     17559       153  SAPS      H10R          -32.3212734318       -9.3665225350       -7.5672178458  MEMB      153             0.0000000000
     17560       153  SAPS      H10S          -33.8350954102      -10.0376164686       -8.3310521584  MEMB      153             0.0000000000
     17561       153  SAPS      C211          -34.2318366739       -8.3529985713       -7.6845461904  MEMB      153             0.0000000000
     17562       153  SAPS      H11R          -34.9192658167       -7.6609137362       -8.1828952765  MEMB      153             0.0000000000
     17563       153  SAPS      C212          -34.3143417773       -8.6609270321       -6.4722040823  MEMB      153             0.0000000000
     17564       153  SAPS      H12R          -35.3650194868       -8.9470478777       -6.4456290731  MEMB      153             0.0000000000
     17565       153  SAPS      C213          -33.6189652064       -9.5263523702       -5.5080497540  MEMB      153             0.0000000000
     17566       153  SAPS      H13R          -34.0942527402       -9.3751423519       -4.5113615028  MEMB      153             0.0000000000
     17567       153  SAPS      H13S          -32.7226932363       -9.1403078145       -5.0139415471  MEMB      153             0.0000000000
     17568       153  SAPS      C214          -33.7125585167      -10.9261918835       -6.0528103969  MEMB      153             0.0000000000
     17569       153  SAPS      H14R          -34.6910024841      -11.3158724334       -6.3984010560  MEMB      153             0.0000000000
     17570       153  SAPS      C215          -32.8191246630      -11.8131046302       -5.8592853088  MEMB      153             0.0000000000
     17571       153  SAPS      H15R          -33.2008890037      -12.8168198601       -5.8997449655  MEMB      153             0.0000000000
     17572       153  SAPS      C216          -31.5903316716      -11.5986283939       -5.1317328921  MEMB      153             0.0000000000
     17573       153  SAPS      H16R          -31.4151411084      -10.5217868119       -4.9412870515  MEMB      153             0.0000000000
     17574       153  SAPS      H16S          -30.8015511066      -11.9542139324       -5.8125639781  MEMB      153             0.0000000000
     17575       153  SAPS      C217          -31.3477573502      -12.3493323701       -3.8687118579  MEMB      153             0.0000000000
     17576       153  SAPS      H17R          -31.5061633364      -13.4407448439       -3.9803211816  MEMB      153             0.0000000000
     17577       153  SAPS      H17S          -31.7803471572      -12.2470277316       -2.9117239636  MEMB      153             0.0000000000
     17578       153  SAPS      C218          -30.1257531806      -11.6344993680       -3.3596862926  MEMB      153             0.0000000000
     17579       153  SAPS      H18R          -29.9709812794      -10.5628431962       -3.2407562544  MEMB      153             0.0000000000
     17580       153  SAPS      H18S          -29.4477707717      -11.9629338011       -4.0922365890  MEMB      153             0.0000000000
     17581       153  SAPS      C219          -29.7776065303      -11.9015794112       -2.0004189107  MEMB      153             0.0000000000
     17582       153  SAPS      H19R          -30.0914723933      -13.0055645993       -1.9399694598  MEMB      153             0.0000000000
     17583       153  SAPS      H19S          -30.6451380383      -11.8919852048       -1.3142727803  MEMB      153             0.0000000000
     17584       153  SAPS      C220          -28.3345396764      -11.1956337499       -1.4313527464  MEMB      153             0.0000000000
     17585       153  SAPS      H20R          -27.5910864935      -11.7844307997       -0.7943454193  MEMB      153             0.0000000000
     17586       153  SAPS      H20S          -28.6002642254      -10.6216930133       -0.6246965962  MEMB      153             0.0000000000
     17587       153  SAPS      H20T          -27.2524904138      -11.5829855045       -1.3542389969  MEMB      153             0.0000000000
     17588       153  SAPS      C33           -27.7292894946      -11.0934621983       -9.8613062153  MEMB      153             0.0000000000
     17589       153  SAPS      H3X           -27.0437294355      -11.1597579877      -10.5243949135  MEMB      153             0.0000000000
     17590       153  SAPS      H3Y           -27.3874490913      -12.0407989021       -9.3870063273  MEMB      153             0.0000000000
     17591       153  SAPS      C34           -27.3477342518      -10.1931879661       -8.8081273274  MEMB      153             0.0000000000
     17592       153  SAPS      H4X           -27.0178194098       -9.2536475775       -9.2489017187  MEMB      153             0.0000000000
     17593       153  SAPS      H4Y           -26.4547772455      -10.5465597718       -8.3002547833  MEMB      153             0.0000000000
     17594       153  SAPS      C35           -28.5166035250      -10.5704030527       -8.0227418193  MEMB      153             0.0000000000
     17595       153  SAPS      H5X           -28.4021412847      -11.6485849370       -7.7034676223  MEMB      153             0.0000000000
     17596       153  SAPS      H5Y           -29.3682529757      -10.3096864151       -8.6576004428  MEMB      153             0.0000000000
     17597       153  SAPS      C36           -28.7632594894       -9.6992638487       -6.9210505487  MEMB      153             0.0000000000
     17598       153  SAPS      H6X           -27.8430306596       -9.8566907205       -6.5392088278  MEMB      153             0.0000000000
     17599       153  SAPS      H6Y           -29.3079559137      -10.1656528994       -6.1014013854  MEMB      153             0.0000000000
     17600       153  SAPS      C37           -29.0286407081       -8.2433597810       -7.2973583003  MEMB      153             0.0000000000
     17601       153  SAPS      H7X           -29.1518606481       -7.8183461889       -6.2834886955  MEMB      153             0.0000000000
     17602       153  SAPS      H7Y           -29.9313387677       -8.3060098153       -7.9202681150  MEMB      153             0.0000000000
     17603       153  SAPS      C38           -28.0391527789       -7.3783500323       -8.1182927350  MEMB      153             0.0000000000
     17604       153  SAPS      H8X           -27.9688477991       -7.6019165726       -9.2002739051  MEMB      153             0.0000000000
     17605       153  SAPS      H8Y           -27.1519561163       -7.8055495001       -7.7447595613  MEMB      153             0.0000000000
     17606       153  SAPS      C39           -28.1258403981       -5.8446624568       -8.0363079223  MEMB      153             0.0000000000
     17607       153  SAPS      H9X           -27.2191431380       -5.3723998933       -8.4916536022  MEMB      153             0.0000000000
     17608       153  SAPS      H9Y           -28.1630876172       -5.5001803996       -6.9863399259  MEMB      153             0.0000000000
     17609       153  SAPS      C310          -29.3499359552       -5.4063361309       -8.8527745014  MEMB      153             0.0000000000
     17610       153  SAPS      H10X          -30.0845670522       -6.2433976642       -8.8454256250  MEMB      153             0.0000000000
     17611       153  SAPS      H10Y          -29.0608379483       -5.2547732393       -9.9186871064  MEMB      153             0.0000000000
     17612       153  SAPS      C311          -30.0898237319       -4.1758986295       -8.3390720627  MEMB      153             0.0000000000
     17613       153  SAPS      H11X          -30.4528983907       -3.6248212498       -9.2367422029  MEMB      153             0.0000000000
     17614       153  SAPS      H11Y          -29.4105711626       -3.4982745674       -7.7838492387  MEMB      153             0.0000000000
     17615       153  SAPS      C312          -31.3148801521       -4.5412459003       -7.4880242012  MEMB      153             0.0000000000
     17616       153  SAPS      H12X          -32.0553857909       -5.1092825533       -8.1026474402  MEMB      153             0.0000000000
     17617       153  SAPS      H12Y          -31.8144192682       -3.5996759881       -7.1721117953  MEMB      153             0.0000000000
     17618       153  SAPS      C313          -31.0296581944       -5.4446410471       -6.2885662181  MEMB      153             0.0000000000
     17619       153  SAPS      H13X          -30.6004464635       -6.4005856367       -6.6202385974  MEMB      153             0.0000000000
     17620       153  SAPS      H13Y          -32.0006129226       -5.7399370601       -5.9111863161  MEMB      153             0.0000000000
     17621       153  SAPS      C314          -30.1983287696       -4.8009269964       -5.1776137057  MEMB      153             0.0000000000
     17622       153  SAPS      H14X          -30.7678667461       -3.9574776820       -4.7305962274  MEMB      153             0.0000000000
     17623       153  SAPS      H14Y          -29.2852160562       -4.3878130362       -5.6531799951  MEMB      153             0.0000000000
     17624       153  SAPS      C315          -29.7510803926       -5.7503836446       -4.0589498230  MEMB      153             0.0000000000
     17625       153  SAPS      H15X          -28.9876953995       -5.2088130992       -3.4601704180  MEMB      153             0.0000000000
     17626       153  SAPS      H15Y          -29.2609046782       -6.6540058776       -4.4872185559  MEMB      153             0.0000000000
     17627       153  SAPS      C316          -30.8602028053       -6.1633632016       -3.1008994402  MEMB      153             0.0000000000
     17628       153  SAPS      H16X          -31.8441154865       -5.9329012628       -3.4919337366  MEMB      153             0.0000000000
     17629       153  SAPS      H16Y          -30.8416623625       -5.6208295393       -2.1367252159  MEMB      153             0.0000000000
     17630       153  SAPS      C317          -30.9468853947       -7.6426953843       -2.9365682927  MEMB      153             0.0000000000
     17631       153  SAPS      H17X          -30.0081364871       -8.1211349294       -2.5954380804  MEMB      153             0.0000000000
     17632       153  SAPS      H17Y          -31.2547547292       -8.1210803206       -3.9065036715  MEMB      153             0.0000000000
     17633       153  SAPS      C318          -31.9679050866       -7.9780941895       -1.9152446064  MEMB      153             0.0000000000
     17634       153  SAPS      H18X          -32.9951031669       -7.6414995076       -2.1633121754  MEMB      153             0.0000000000
     17635       153  SAPS      H18Y          -31.7721945129       -7.7753366197       -0.8469141898  MEMB      153             0.0000000000
     17636       153  SAPS      H18Z          -31.8341921769       -9.0594254360       -2.0663155539  MEMB      153             0.0000000000
     17637       154  SAPE      N              30.7025431457      -10.9873035997      -18.0226625155  MEMB      154             0.0000000000
     17638       154  SAPE      HN1            31.1496507658      -11.5749453304      -17.2936209702  MEMB      154             0.0000000000
     17639       154  SAPE      HN2            29.7151824804      -10.7710739857      -17.7951140946  MEMB      154             0.0000000000
     17640       154  SAPE      HN3            30.6796307739      -11.4371394748      -18.9581031257  MEMB      154             0.0000000000
     17641       154  SAPE      C12            31.3953789244       -9.6707009290      -18.1668201655  MEMB      154             0.0000000000
     17642       154  SAPE      H12A           32.3315027079       -9.8800708151      -18.7011773326  MEMB      154             0.0000000000
     17643       154  SAPE      H12B           31.6747600167       -9.3147478278      -17.1576768073  MEMB      154             0.0000000000
     17644       154  SAPE      C11            30.4786640018       -8.6700060593      -18.9043331652  MEMB      154             0.0000000000
     17645       154  SAPE      H11A           31.1184574241       -7.8760972411      -19.3631303652  MEMB      154             0.0000000000
     17646       154  SAPE      H11B           29.8376345518       -8.1549452558      -18.1523688963  MEMB      154             0.0000000000
     17647       154  SAPE      P              29.0268549484       -8.5342104294      -21.1103635479  MEMB      154             0.0000000000
     17648       154  SAPE      O13            30.0772599627       -7.9563659599      -21.9705319424  MEMB      154             0.0000000000
     17649       154  SAPE      O14            27.9308898355       -9.3075528118      -21.7123376837  MEMB      154             0.0000000000
     17650       154  SAPE      O12            29.6661129401       -9.3474644961      -19.8798187727  MEMB      154             0.0000000000
     17651       154  SAPE      O11            28.4617001188       -7.3346674277      -20.2390417803  MEMB      154             0.0000000000
     17652       154  SAPE      C1             27.2336908897       -7.6612617839      -19.5986062527  MEMB      154             0.0000000000
     17653       154  SAPE      HA             26.4751741568       -7.7387678904      -20.4005599407  MEMB      154             0.0000000000
     17654       154  SAPE      HB             27.1242503527       -8.6858990233      -19.1637830628  MEMB      154             0.0000000000
     17655       154  SAPE      C2             27.0049954612       -6.6905106183      -18.4305135737  MEMB      154             0.0000000000
     17656       154  SAPE      HS             26.9640945905       -5.6357457760      -18.7991600785  MEMB      154             0.0000000000
     17657       154  SAPE      O21            27.9974185408       -6.7594958712      -17.4048460588  MEMB      154             0.0000000000
     17658       154  SAPE      C21            27.9407474517       -5.9513030500      -16.3425648780  MEMB      154             0.0000000000
     17659       154  SAPE      O22            27.2078252495       -4.9973942295      -16.1597406040  MEMB      154             0.0000000000
     17660       154  SAPE      C22            29.0505735348       -6.3970441643      -15.4521354566  MEMB      154             0.0000000000
     17661       154  SAPE      H2R            29.2407896435       -7.4744368617      -15.6627070167  MEMB      154             0.0000000000
     17662       154  SAPE      H2S            29.9418306288       -5.8001418670      -15.7134647857  MEMB      154             0.0000000000
     17663       154  SAPE      C3             25.7033179985       -7.0467402900      -17.7984017653  MEMB      154             0.0000000000
     17664       154  SAPE      HX             24.7630431926       -6.9136031890      -18.3142382095  MEMB      154             0.0000000000
     17665       154  SAPE      HY             25.7364284025       -6.3404733798      -16.9887494956  MEMB      154             0.0000000000
     17666       154  SAPE      O31            25.4731422013       -8.3282442708      -17.3485102148  MEMB      154             0.0000000000
     17667       154  SAPE      C31            25.3956139285       -8.5535861280      -16.0736913169  MEMB      154             0.0000000000
     17668       154  SAPE      O32            25.5081591390       -7.8345777757      -15.1214749551  MEMB      154             0.0000000000
     17669       154  SAPE      C32            25.1791777259       -9.9482337133      -15.9135722222  MEMB      154             0.0000000000
     17670       154  SAPE      H2X            24.1329855924       -9.8749792616      -16.1996645463  MEMB      154             0.0000000000
     17671       154  SAPE      H2Y            25.3010704218      -10.2161812264      -14.8416888672  MEMB      154             0.0000000000
     17672       154  SAPE      C23            28.6838027707       -6.2486487378      -13.9837359957  MEMB      154             0.0000000000
     17673       154  SAPE      H3R            27.5741916139       -6.1978868333      -13.8624566302  MEMB      154             0.0000000000
     17674       154  SAPE      H3S            29.1462461618       -5.3144144004      -13.5973763294  MEMB      154             0.0000000000
     17675       154  SAPE      C24            29.2294683549       -7.4635794976      -13.2454921595  MEMB      154             0.0000000000
     17676       154  SAPE      H4R            30.2670981660       -7.6232681587      -13.6080864001  MEMB      154             0.0000000000
     17677       154  SAPE      H4S            28.6394970654       -8.3557898750      -13.5648387750  MEMB      154             0.0000000000
     17678       154  SAPE      C25            29.1960673539       -7.3193717516      -11.7539004353  MEMB      154             0.0000000000
     17679       154  SAPE      H5R            30.0632721881       -6.8256243842      -11.2849240269  MEMB      154             0.0000000000
     17680       154  SAPE      C26            28.0956318599       -7.5315370358      -11.0249637938  MEMB      154             0.0000000000
     17681       154  SAPE      H6R            28.1615428884       -7.3976110023       -9.9280963287  MEMB      154             0.0000000000
     17682       154  SAPE      C27            26.7459298436       -7.9265978442      -11.5901827036  MEMB      154             0.0000000000
     17683       154  SAPE      H7R            26.5255821826       -9.0105702217      -11.6645885066  MEMB      154             0.0000000000
     17684       154  SAPE      H7S            26.5626366835       -7.4895276015      -12.5967183020  MEMB      154             0.0000000000
     17685       154  SAPE      C28            25.8403749982       -7.2922024085      -10.6152269478  MEMB      154             0.0000000000
     17686       154  SAPE      H8R            25.1862388015       -8.0035625737      -10.0686044101  MEMB      154             0.0000000000
     17687       154  SAPE      C29            25.4151767953       -6.0352440946      -10.7966177159  MEMB      154             0.0000000000
     17688       154  SAPE      H9R            24.6531354528       -5.6150611412      -10.1275984021  MEMB      154             0.0000000000
     17689       154  SAPE      C210           25.6212383268       -4.9717606869      -11.8659745188  MEMB      154             0.0000000000
     17690       154  SAPE      H10R           24.9347728281       -5.1049083711      -12.6711053308  MEMB      154             0.0000000000
     17691       154  SAPE      H10S           26.4018212192       -5.1213631303      -12.6164059253  MEMB      154             0.0000000000
     17692       154  SAPE      C211           25.2289451928       -3.6027187233      -11.3447013898  MEMB      154             0.0000000000
     17693       154  SAPE      H11R           24.2038136835       -3.1927759334      -11.4461246533  MEMB      154             0.0000000000
     17694       154  SAPE      C212           26.0765681541       -3.1009602809      -10.4907469038  MEMB      154             0.0000000000
     17695       154  SAPE      H12R           25.9576881318       -2.1029403537      -10.0556784843  MEMB      154             0.0000000000
     17696       154  SAPE      C213           27.2575575071       -3.9938319234      -10.2369958848  MEMB      154             0.0000000000
     17697       154  SAPE      H13R           27.8059605624       -4.2098414841      -11.1890234718  MEMB      154             0.0000000000
     17698       154  SAPE      H13S           27.0498289776       -4.9081234418       -9.6829453210  MEMB      154             0.0000000000
     17699       154  SAPE      C214           28.1985927828       -3.3672149661       -9.4154509800  MEMB      154             0.0000000000
     17700       154  SAPE      H14R           28.3796622246       -2.5428324045       -9.9929678711  MEMB      154             0.0000000000
     17701       154  SAPE      C215           28.7798411101       -3.6696936468       -8.2825572353  MEMB      154             0.0000000000
     17702       154  SAPE      H15R           29.6434911167       -3.1373215081       -7.9502176340  MEMB      154             0.0000000000
     17703       154  SAPE      C216           28.6051564567       -4.8438551225       -7.4671626700  MEMB      154             0.0000000000
     17704       154  SAPE      H16R           29.6259788201       -5.2699443746       -7.4254106781  MEMB      154             0.0000000000
     17705       154  SAPE      H16S           27.9208929292       -5.5302106417       -7.9836754519  MEMB      154             0.0000000000
     17706       154  SAPE      C217           28.1396276781       -4.5555493866       -6.0483910895  MEMB      154             0.0000000000
     17707       154  SAPE      H17R           27.0807507922       -4.2149602615       -6.0001653889  MEMB      154             0.0000000000
     17708       154  SAPE      H17S           28.7597221641       -3.7551559164       -5.5758470180  MEMB      154             0.0000000000
     17709       154  SAPE      C218           28.3074801537       -5.8824514413       -5.3123460206  MEMB      154             0.0000000000
     17710       154  SAPE      H18R           29.3858569796       -6.1575506382       -5.3705099259  MEMB      154             0.0000000000
     17711       154  SAPE      H18S           27.7530289670       -6.6632227074       -5.8817459777  MEMB      154             0.0000000000
     17712       154  SAPE      C219           27.8421966161       -5.8740874669       -3.8586938124  MEMB      154             0.0000000000
     17713       154  SAPE      H19R           28.2603854212       -6.7716010804       -3.3501646946  MEMB      154             0.0000000000
     17714       154  SAPE      H19S           26.7318473261       -5.9539645898       -3.8130545535  MEMB      154             0.0000000000
     17715       154  SAPE      C220           28.2193469210       -4.6074435721       -3.1006777192  MEMB      154             0.0000000000
     17716       154  SAPE      H20R           27.8458187458       -3.7255388399       -3.6655247457  MEMB      154             0.0000000000
     17717       154  SAPE      H20S           29.3189868321       -4.5295112548       -2.9606091017  MEMB      154             0.0000000000
     17718       154  SAPE      H20T           27.7131960676       -4.6022418182       -2.1145286875  MEMB      154             0.0000000000
     17719       154  SAPE      C33            25.9547369084      -10.7197012375      -16.9522161115  MEMB      154             0.0000000000
     17720       154  SAPE      H3X            25.5962260226      -10.4428935755      -17.9739231703  MEMB      154             0.0000000000
     17721       154  SAPE      H3Y            25.9090209834      -11.8052886955      -16.9192370585  MEMB      154             0.0000000000
     17722       154  SAPE      C34            27.3817252353      -10.6521784468      -16.5745636350  MEMB      154             0.0000000000
     17723       154  SAPE      H4X            27.5741565508       -9.5959345971      -16.3032362136  MEMB      154             0.0000000000
     17724       154  SAPE      H4Y            27.9267847378      -10.9710515792      -17.4817255731  MEMB      154             0.0000000000
     17725       154  SAPE      C35            27.6537337435      -11.6311188039      -15.4149689065  MEMB      154             0.0000000000
     17726       154  SAPE      H5X            27.3073734768      -12.6480419002      -15.7165488510  MEMB      154             0.0000000000
     17727       154  SAPE      H5Y            27.1122381558      -11.3462796116      -14.4832329472  MEMB      154             0.0000000000
     17728       154  SAPE      C36            29.1473146453      -11.6949787850      -15.1924309538  MEMB      154             0.0000000000
     17729       154  SAPE      H6X            29.5043589526      -10.6425757382      -15.1559213809  MEMB      154             0.0000000000
     17730       154  SAPE      H6Y            29.5312041184      -12.1955086641      -16.1066411394  MEMB      154             0.0000000000
     17731       154  SAPE      C37            29.6859918578      -12.4413003925      -13.9627699198  MEMB      154             0.0000000000
     17732       154  SAPE      H7X            30.7795389780      -12.5422061220      -14.1517827969  MEMB      154             0.0000000000
     17733       154  SAPE      H7Y            29.2485046065      -13.4565045266      -13.8313619422  MEMB      154             0.0000000000
     17734       154  SAPE      C38            29.6082730168      -11.6682432526      -12.6360717855  MEMB      154             0.0000000000
     17735       154  SAPE      H8X            28.5905960258      -11.7846546555      -12.1997023959  MEMB      154             0.0000000000
     17736       154  SAPE      H8Y            29.7852165914      -10.5903284756      -12.8428487892  MEMB      154             0.0000000000
     17737       154  SAPE      C39            30.6376362953      -12.1751432596      -11.6051577401  MEMB      154             0.0000000000
     17738       154  SAPE      H9X            31.6757713722      -11.8607323727      -11.8504283970  MEMB      154             0.0000000000
     17739       154  SAPE      H9Y            30.6278318644      -13.2879781855      -11.6703311741  MEMB      154             0.0000000000
     17740       154  SAPE      C310           30.2934255346      -11.7954725408      -10.1495217362  MEMB      154             0.0000000000
     17741       154  SAPE      H10X           30.9415493327      -12.3997188809       -9.4764195135  MEMB      154             0.0000000000
     17742       154  SAPE      H10Y           29.2396042870      -12.0997577802       -9.9686176737  MEMB      154             0.0000000000
     17743       154  SAPE      C311           30.4226011132      -10.2980641691       -9.7992013431  MEMB      154             0.0000000000
     17744       154  SAPE      H11X           29.7330074476       -9.7213552172      -10.4497695122  MEMB      154             0.0000000000
     17745       154  SAPE      H11Y           31.4505377739       -9.9422278956      -10.0285991443  MEMB      154             0.0000000000
     17746       154  SAPE      C312           30.0876364053       -9.9462458375       -8.3326952220  MEMB      154             0.0000000000
     17747       154  SAPE      H12X           30.3379595385       -8.8724538221       -8.1706419736  MEMB      154             0.0000000000
     17748       154  SAPE      H12Y           30.7276808922      -10.5499572391       -7.6525953114  MEMB      154             0.0000000000
     17749       154  SAPE      C313           28.6048670884      -10.1667352682       -7.9730115406  MEMB      154             0.0000000000
     17750       154  SAPE      H13X           28.3721052523      -11.2374685479       -8.1550209426  MEMB      154             0.0000000000
     17751       154  SAPE      H13Y           27.9775578078       -9.5578162396       -8.6586762535  MEMB      154             0.0000000000
     17752       154  SAPE      C314           28.2611107061       -9.8357001901       -6.5105207401  MEMB      154             0.0000000000
     17753       154  SAPE      H14X           27.1642753699       -9.9566598461       -6.3260745119  MEMB      154             0.0000000000
     17754       154  SAPE      H14Y           28.5227958879       -8.7716159685       -6.3276283706  MEMB      154             0.0000000000
     17755       154  SAPE      C315           29.0589968540      -10.7326856094       -5.5607418565  MEMB      154             0.0000000000
     17756       154  SAPE      H15X           30.1460929368      -10.6781768896       -5.7147022909  MEMB      154             0.0000000000
     17757       154  SAPE      H15Y           28.7512126465      -11.7928345455       -5.7011802982  MEMB      154             0.0000000000
     17758       154  SAPE      C316           28.9127694672      -10.4264513343       -4.1199570886  MEMB      154             0.0000000000
     17759       154  SAPE      H16X           28.9544901658       -9.3401721201       -3.8718885376  MEMB      154             0.0000000000
     17760       154  SAPE      H16Y           29.7573860971      -10.9094853231       -3.5499806585  MEMB      154             0.0000000000
     17761       154  SAPE      C317           27.6535126793      -11.0874419192       -3.6915085188  MEMB      154             0.0000000000
     17762       154  SAPE      H17X           27.6074125937      -12.1978943457       -3.7217050476  MEMB      154             0.0000000000
     17763       154  SAPE      H17Y           26.6845587757      -10.5285444907       -3.8276609033  MEMB      154             0.0000000000
     17764       154  SAPE      C318           27.8043339077      -10.9528271503       -2.3320973261  MEMB      154             0.0000000000
     17765       154  SAPE      H18X           27.0436095292      -11.3576892323       -1.8238414708  MEMB      154             0.0000000000
     17766       154  SAPE      H18Y           27.3575411267       -9.9595914318       -2.1457790445  MEMB      154             0.0000000000
     17767       154  SAPE      H18Z           28.7678672135      -11.2885091663       -1.8503051036  MEMB      154             0.0000000000
     17768       155  POPC      N             -11.4589760920       30.4314180928      -20.1141293713  MEMB      155             0.0000000000
     17769       155  POPC      C12           -10.5138909930       31.1086837532      -19.1078916863  MEMB      155             0.0000000000
     17770       155  POPC      H12A          -10.8716921629       32.1079794335      -18.8719461006  MEMB      155             0.0000000000
     17771       155  POPC      H12B           -9.5541496225       31.2479871830      -19.5895986890  MEMB      155             0.0000000000
     17772       155  POPC      C13           -12.5693957215       29.7579429954      -19.3795749895  MEMB      155             0.0000000000
     17773       155  POPC      H13A          -13.2694219076       30.4521611751      -18.9509874317  MEMB      155             0.0000000000
     17774       155  POPC      H13B          -13.0798919899       29.0143437292      -19.9860918424  MEMB      155             0.0000000000
     17775       155  POPC      H13C          -12.1065889475       29.1799638697      -18.5680270329  MEMB      155             0.0000000000
     17776       155  POPC      C14           -11.9116007387       31.4259262431      -21.1314947372  MEMB      155             0.0000000000
     17777       155  POPC      H14A          -12.4407029434       30.9455354777      -21.9494500694  MEMB      155             0.0000000000
     17778       155  POPC      H14B          -12.5748888411       32.1686702841      -20.6915329319  MEMB      155             0.0000000000
     17779       155  POPC      H14C          -11.0473017716       31.9067219811      -21.5767210308  MEMB      155             0.0000000000
     17780       155  POPC      C15           -10.7764961064       29.3248839944      -20.8736271930  MEMB      155             0.0000000000
     17781       155  POPC      H15A           -9.8153826103       29.6123627946      -21.2695761706  MEMB      155             0.0000000000
     17782       155  POPC      H15B          -11.3976040205       28.9419847690      -21.6766281694  MEMB      155             0.0000000000
     17783       155  POPC      H15C          -10.6086659471       28.4608535122      -20.2242716267  MEMB      155             0.0000000000
     17784       155  POPC      C11           -10.2268501511       30.4045264447      -17.7489011168  MEMB      155             0.0000000000
     17785       155  POPC      H11A          -11.1247838426       30.4427939242      -17.0997493636  MEMB      155             0.0000000000
     17786       155  POPC      H11B           -9.4387981624       30.9808576929      -17.1995477779  MEMB      155             0.0000000000
     17787       155  POPC      P              -8.3481509816       28.6717689811      -18.2739728012  MEMB      155             0.0000000000
     17788       155  POPC      O13            -7.5170518553       29.8804002815      -18.1211329612  MEMB      155             0.0000000000
     17789       155  POPC      O14            -8.3455993474       27.9932412137      -19.5982047840  MEMB      155             0.0000000000
     17790       155  POPC      O12            -9.8700090813       29.0396294306      -17.9215777310  MEMB      155             0.0000000000
     17791       155  POPC      O11            -7.9396836507       27.6766382640      -17.1321352284  MEMB      155             0.0000000000
     17792       155  POPC      C1             -8.1749439444       26.2969792242      -17.3028292274  MEMB      155             0.0000000000
     17793       155  POPC      HA             -7.7626326749       25.7854869737      -16.4060672853  MEMB      155             0.0000000000
     17794       155  POPC      HB             -7.6959612742       25.8410234340      -18.1998275850  MEMB      155             0.0000000000
     17795       155  POPC      C2             -9.6527421690       26.0596983838      -17.3251649015  MEMB      155             0.0000000000
     17796       155  POPC      HS            -10.0954335672       26.2665984985      -18.3449709155  MEMB      155             0.0000000000
     17797       155  POPC      O21           -10.2338738217       26.7907372036      -16.2398533619  MEMB      155             0.0000000000
     17798       155  POPC      C21           -11.4511860260       27.0874651978      -16.4807965406  MEMB      155             0.0000000000
     17799       155  POPC      O22           -12.0695216361       26.6797116464      -17.4629206152  MEMB      155             0.0000000000
     17800       155  POPC      C22           -11.8667346420       28.0574602295      -15.3461625447  MEMB      155             0.0000000000
     17801       155  POPC      H2R           -12.5715164034       27.5773797506      -14.6394189017  MEMB      155             0.0000000000
     17802       155  POPC      H2S           -12.2974866033       28.9785325000      -15.7838412745  MEMB      155             0.0000000000
     17803       155  POPC      C3             -9.8466618497       24.6489887338      -17.0899323582  MEMB      155             0.0000000000
     17804       155  POPC      HX             -9.3825037864       24.0262544978      -17.9066233457  MEMB      155             0.0000000000
     17805       155  POPC      HY            -10.9683400569       24.5471820194      -17.1432522949  MEMB      155             0.0000000000
     17806       155  POPC      O31            -9.2775483931       24.2535540327      -15.8287703370  MEMB      155             0.0000000000
     17807       155  POPC      C31           -10.0323960569       24.4423579023      -14.7482605393  MEMB      155             0.0000000000
     17808       155  POPC      O32           -11.2022745552       24.8066681217      -14.7669573821  MEMB      155             0.0000000000
     17809       155  POPC      C32            -9.2737689181       23.7706134529      -13.5942813436  MEMB      155             0.0000000000
     17810       155  POPC      H2X            -8.2721525959       24.1619233935      -13.4924477272  MEMB      155             0.0000000000
     17811       155  POPC      H2Y            -8.9426544263       22.7326577840      -13.7927289575  MEMB      155             0.0000000000
     17812       155  POPC      C23           -10.9044897746       28.2050041650      -14.1762787704  MEMB      155             0.0000000000
     17813       155  POPC      H3R            -9.9489852482       28.6509482385      -14.5018429975  MEMB      155             0.0000000000
     17814       155  POPC      H3S           -10.7368448514       27.1844409122      -13.7470441409  MEMB      155             0.0000000000
     17815       155  POPC      C24           -11.5412088483       28.9616216285      -13.0350459639  MEMB      155             0.0000000000
     17816       155  POPC      H4R           -12.5213172727       28.5285615704      -12.7163678342  MEMB      155             0.0000000000
     17817       155  POPC      H4S           -11.8187657807       29.9725808769      -13.4334386133  MEMB      155             0.0000000000
     17818       155  POPC      C25           -10.4735693994       29.0357203747      -11.8800419014  MEMB      155             0.0000000000
     17819       155  POPC      H5R            -9.6168457333       29.6387752230      -12.2829251252  MEMB      155             0.0000000000
     17820       155  POPC      H5S           -10.1658531966       28.0907342616      -11.4261250456  MEMB      155             0.0000000000
     17821       155  POPC      C26           -10.8767421460       29.8238666312      -10.6602689539  MEMB      155             0.0000000000
     17822       155  POPC      H6R           -11.2766959575       30.2765184794      -11.5374978030  MEMB      155             0.0000000000
     17823       155  POPC      H6S           -10.2333142893       30.6320601305      -10.2729276541  MEMB      155             0.0000000000
     17824       155  POPC      C27           -11.9553891383       29.2209412616       -9.7292490562  MEMB      155             0.0000000000
     17825       155  POPC      H7R           -11.3959639749       28.5206982665       -9.1156981180  MEMB      155             0.0000000000
     17826       155  POPC      H7S           -12.8071609164       28.8467062858      -10.3447944330  MEMB      155             0.0000000000
     17827       155  POPC      C28           -12.5580935188       29.9354549843       -8.5167092648  MEMB      155             0.0000000000
     17828       155  POPC      H8R           -13.6150286699       29.8687746780       -8.2192802164  MEMB      155             0.0000000000
     17829       155  POPC      H8S           -12.8572516757       30.6754508297       -9.2492778712  MEMB      155             0.0000000000
     17830       155  POPC      C29           -11.5366048627       30.4460489384       -7.4806576330  MEMB      155             0.0000000000
     17831       155  POPC      H91           -10.6263130880       30.6838791006       -7.9907202683  MEMB      155             0.0000000000
     17832       155  POPC      C210          -11.5825715135       30.9638415634       -6.2234943737  MEMB      155             0.0000000000
     17833       155  POPC      H101          -10.8369150326       31.6745759194       -5.8644619205  MEMB      155             0.0000000000
     17834       155  POPC      C211          -12.7641271752       31.1788103220       -5.4083209786  MEMB      155             0.0000000000
     17835       155  POPC      H11R          -13.6284933889       30.8541429735       -6.0280515085  MEMB      155             0.0000000000
     17836       155  POPC      H11S          -13.1063661897       32.1599805665       -4.9712187344  MEMB      155             0.0000000000
     17837       155  POPC      C212          -11.9910732797       30.2377419156       -4.4947206496  MEMB      155             0.0000000000
     17838       155  POPC      H12R          -12.7204579121       30.6717994566       -3.7549340200  MEMB      155             0.0000000000
     17839       155  POPC      H12S          -11.2184870343       30.5164353702       -3.7712710592  MEMB      155             0.0000000000
     17840       155  POPC      C213          -11.8653007014       28.6759066640       -5.0991450822  MEMB      155             0.0000000000
     17841       155  POPC      H13R          -11.4342936458       28.6115873491       -6.0684945655  MEMB      155             0.0000000000
     17842       155  POPC      H13S          -12.7073260584       28.1979533387       -5.6572029871  MEMB      155             0.0000000000
     17843       155  POPC      C214          -11.7101460773       27.4247059793       -4.2718004444  MEMB      155             0.0000000000
     17844       155  POPC      H14R          -11.7350071980       26.4412001767       -4.7774524718  MEMB      155             0.0000000000
     17845       155  POPC      H14S          -12.7518244865       27.2233381893       -3.9948413620  MEMB      155             0.0000000000
     17846       155  POPC      C215          -10.6302535968       27.6887250349       -3.1904100909  MEMB      155             0.0000000000
     17847       155  POPC      H15R          -10.6756162144       28.6856193330       -2.7013982777  MEMB      155             0.0000000000
     17848       155  POPC      H15S           -9.8252879652       27.7087768227       -3.9000919556  MEMB      155             0.0000000000
     17849       155  POPC      C216          -10.2155907988       26.6435592050       -2.1499181559  MEMB      155             0.0000000000
     17850       155  POPC      H16R          -10.8091650470       26.8736723709       -1.2301254291  MEMB      155             0.0000000000
     17851       155  POPC      H16S           -9.2425102046       26.8641297646       -1.6874916720  MEMB      155             0.0000000000
     17852       155  POPC      C217          -10.2856641860       25.2247061879       -2.8576685491  MEMB      155             0.0000000000
     17853       155  POPC      H17R           -9.9000151310       25.4192529656       -3.8699070490  MEMB      155             0.0000000000
     17854       155  POPC      H17S          -11.2952937924       24.7902266820       -3.0504172213  MEMB      155             0.0000000000
     17855       155  POPC      C218           -9.4890338834       24.0783793973       -2.2566571316  MEMB      155             0.0000000000
     17856       155  POPC      H18R           -9.4020792214       23.1381611495       -2.8161320783  MEMB      155             0.0000000000
     17857       155  POPC      H18S          -10.0274749181       23.4497912554       -1.5644961199  MEMB      155             0.0000000000
     17858       155  POPC      H18T           -8.7028415066       24.5129263106       -1.6120208352  MEMB      155             0.0000000000
     17859       155  POPC      C33           -10.0565930165       24.0320105854      -12.3281964462  MEMB      155             0.0000000000
     17860       155  POPC      H3X           -11.0937907408       23.7654719233      -12.3791942810  MEMB      155             0.0000000000
     17861       155  POPC      H3Y           -10.2554685353       25.0963271748      -12.2101783859  MEMB      155             0.0000000000
     17862       155  POPC      C34            -9.4174475342       23.3797387514      -11.1300516376  MEMB      155             0.0000000000
     17863       155  POPC      H4X            -8.3684163088       23.6291821716      -11.0171479074  MEMB      155             0.0000000000
     17864       155  POPC      H4Y            -9.3119161101       22.3099909773      -11.3612463180  MEMB      155             0.0000000000
     17865       155  POPC      C35           -10.2387461120       23.5767359228       -9.8450517829  MEMB      155             0.0000000000
     17866       155  POPC      H5X           -10.0738596118       22.7020805010       -9.1854234841  MEMB      155             0.0000000000
     17867       155  POPC      H5Y           -11.3442742716       23.6662356230       -9.9643336122  MEMB      155             0.0000000000
     17868       155  POPC      C36            -9.9608084828       24.7885731888       -9.1906417913  MEMB      155             0.0000000000
     17869       155  POPC      H6X           -10.6353858164       25.5239042915       -9.6944143754  MEMB      155             0.0000000000
     17870       155  POPC      H6Y            -8.8936588855       24.9005878866       -9.4685985818  MEMB      155             0.0000000000
     17871       155  POPC      C37           -10.1092150803       24.5333037303       -7.7181117935  MEMB      155             0.0000000000
     17872       155  POPC      H7X            -9.7994923175       23.4982691157       -7.4222808102  MEMB      155             0.0000000000
     17873       155  POPC      H7Y           -11.1576556931       24.6740122003       -7.3700892700  MEMB      155             0.0000000000
     17874       155  POPC      C38            -9.0737445640       25.4103832752       -7.0949484196  MEMB      155             0.0000000000
     17875       155  POPC      H8X            -8.0683153888       25.0647119340       -7.4419085556  MEMB      155             0.0000000000
     17876       155  POPC      H8Y            -9.1428470871       25.2608336900       -6.0058830897  MEMB      155             0.0000000000
     17877       155  POPC      C39            -9.3127897664       26.8528837295       -7.5147718367  MEMB      155             0.0000000000
     17878       155  POPC      H9X           -10.4140181578       27.0494358024       -7.4899476889  MEMB      155             0.0000000000
     17879       155  POPC      H9Y            -8.9910034768       27.0342129267       -8.5645045382  MEMB      155             0.0000000000
     17880       155  POPC      C310           -8.6629642628       27.8336249945       -6.5556072583  MEMB      155             0.0000000000
     17881       155  POPC      H10X           -9.1788193605       27.7405705394       -5.6006612954  MEMB      155             0.0000000000
     17882       155  POPC      H10Y           -8.8588786970       28.8581644446       -6.9350388893  MEMB      155             0.0000000000
     17883       155  POPC      C311           -7.1779783595       27.6948970478       -6.2388028609  MEMB      155             0.0000000000
     17884       155  POPC      H11X           -6.6866127783       27.3610447091       -7.1463982550  MEMB      155             0.0000000000
     17885       155  POPC      H11Y           -6.8842800748       26.8980892077       -5.5275280437  MEMB      155             0.0000000000
     17886       155  POPC      C312           -6.6939244152       29.0487039776       -5.7149647763  MEMB      155             0.0000000000
     17887       155  POPC      H12X           -7.0057856034       29.8634132339       -6.4168919781  MEMB      155             0.0000000000
     17888       155  POPC      H12Y           -5.5880147641       29.0127527390       -5.6513831360  MEMB      155             0.0000000000
     17889       155  POPC      C313           -7.2192092435       29.2928982041       -4.2997983532  MEMB      155             0.0000000000
     17890       155  POPC      H13X           -6.5148427704       28.7582835574       -3.6209040446  MEMB      155             0.0000000000
     17891       155  POPC      H13Y           -8.2224700411       28.8615561524       -4.1813270077  MEMB      155             0.0000000000
     17892       155  POPC      C314           -7.3289091909       30.7628722448       -3.9111564837  MEMB      155             0.0000000000
     17893       155  POPC      H14X           -7.8279477638       31.3837517226       -4.6786200657  MEMB      155             0.0000000000
     17894       155  POPC      H14Y           -6.2971169459       31.0435241851       -3.9710894329  MEMB      155             0.0000000000
     17895       155  POPC      C315           -7.8947084007       31.0456126263       -2.5089876236  MEMB      155             0.0000000000
     17896       155  POPC      H15X           -8.9324283699       30.6852681188       -2.4374891465  MEMB      155             0.0000000000
     17897       155  POPC      H15Y           -7.8551858149       32.1328562677       -2.2935491889  MEMB      155             0.0000000000
     17898       155  POPC      C316           -7.1390712834       30.4379040269       -1.3556886410  MEMB      155             0.0000000000
     17899       155  POPC      H16X           -6.2095682356       30.9205902774       -1.4613542045  MEMB      155             0.0000000000
     17900       155  POPC      H16Y           -6.8831259774       29.3724890085       -1.4497362313  MEMB      155             0.0000000000
     17901       155  POPC      H16Z           -7.5516161633       30.7255972319       -0.3634864241  MEMB      155             0.0000000000
     17902       156  SOPE      N              -3.5362131149      -33.3767088303      -19.9984604224  MEMB      156             0.0000000000
     17903       156  SOPE      HN1            -3.6444607463      -34.3906147143      -20.1726857707  MEMB      156             0.0000000000
     17904       156  SOPE      HN2            -2.7142758210      -33.0067346704      -20.5544574029  MEMB      156             0.0000000000
     17905       156  SOPE      HN3            -3.3363096461      -33.2284422252      -18.9936819887  MEMB      156             0.0000000000
     17906       156  SOPE      C12            -4.8452537038      -32.7427773886      -20.4179119751  MEMB      156             0.0000000000
     17907       156  SOPE      H12A           -5.6627725919      -33.1417471435      -19.7889139647  MEMB      156             0.0000000000
     17908       156  SOPE      H12B           -5.0172125909      -33.0663165606      -21.4615681619  MEMB      156             0.0000000000
     17909       156  SOPE      C11            -4.8507698510      -31.2106951081      -20.4183231924  MEMB      156             0.0000000000
     17910       156  SOPE      H11A           -4.5117994959      -30.7482794920      -19.4616804668  MEMB      156             0.0000000000
     17911       156  SOPE      H11B           -5.8961756065      -30.8665933079      -20.5824021836  MEMB      156             0.0000000000
     17912       156  SOPE      P              -2.6168266981      -30.3525577391      -21.5250745382  MEMB      156             0.0000000000
     17913       156  SOPE      O13            -2.4496459787      -29.2792699049      -22.5079300364  MEMB      156             0.0000000000
     17914       156  SOPE      O14            -1.8024790695      -31.5594085030      -21.5965781316  MEMB      156             0.0000000000
     17915       156  SOPE      O12            -4.1193390944      -30.7778991676      -21.5379133564  MEMB      156             0.0000000000
     17916       156  SOPE      O11            -2.4841340187      -29.7738163342      -20.0939798820  MEMB      156             0.0000000000
     17917       156  SOPE      C1             -1.6500055316      -28.6757058715      -19.7862047028  MEMB      156             0.0000000000
     17918       156  SOPE      HA             -1.4725082948      -27.9395101846      -20.5881119361  MEMB      156             0.0000000000
     17919       156  SOPE      HB             -0.6555161468      -28.9992468998      -19.6554341597  MEMB      156             0.0000000000
     17920       156  SOPE      C2             -2.2023313396      -28.0406638416      -18.5366430503  MEMB      156             0.0000000000
     17921       156  SOPE      HS             -1.5234112523      -27.1695723985      -18.2992607888  MEMB      156             0.0000000000
     17922       156  SOPE      O21            -2.3985847607      -28.9798928321      -17.4792696442  MEMB      156             0.0000000000
     17923       156  SOPE      C21            -1.5143629288      -28.8886953006      -16.5881415767  MEMB      156             0.0000000000
     17924       156  SOPE      O22            -0.4746888857      -28.2486881247      -16.7311572696  MEMB      156             0.0000000000
     17925       156  SOPE      C22            -1.9644172313      -29.9120190327      -15.4914016579  MEMB      156             0.0000000000
     17926       156  SOPE      H2R            -1.3231726929      -30.7747656974      -15.2063246127  MEMB      156             0.0000000000
     17927       156  SOPE      H2S            -2.9198011180      -30.4037205195      -15.7458895209  MEMB      156             0.0000000000
     17928       156  SOPE      C3             -3.5667085026      -27.5059900586      -18.8436268461  MEMB      156             0.0000000000
     17929       156  SOPE      HX             -4.2151883287      -28.2031989751      -19.3890706341  MEMB      156             0.0000000000
     17930       156  SOPE      HY             -3.7897405100      -26.8499442499      -19.5921195063  MEMB      156             0.0000000000
     17931       156  SOPE      O31            -4.0944887403      -26.8457603298      -17.7561695440  MEMB      156             0.0000000000
     17932       156  SOPE      C31            -4.7406037869      -27.8644167561      -17.2385190929  MEMB      156             0.0000000000
     17933       156  SOPE      O32            -4.9025455064      -29.0068127054      -17.5934323097  MEMB      156             0.0000000000
     17934       156  SOPE      C32            -5.1071763530      -27.5163861063      -16.0856260310  MEMB      156             0.0000000000
     17935       156  SOPE      H2X            -5.8037239115      -26.7278766478      -16.0994354474  MEMB      156             0.0000000000
     17936       156  SOPE      H2Y            -4.2055401484      -27.0133343616      -15.6658271526  MEMB      156             0.0000000000
     17937       156  SOPE      C23            -1.7386773461      -29.4581248227      -14.1362208163  MEMB      156             0.0000000000
     17938       156  SOPE      H3R            -2.3166202979      -28.5395146744      -14.2317285483  MEMB      156             0.0000000000
     17939       156  SOPE      H3S            -0.6343094977      -29.3165903333      -14.0377599529  MEMB      156             0.0000000000
     17940       156  SOPE      C24            -2.2661922503      -30.5402353210      -13.2144833123  MEMB      156             0.0000000000
     17941       156  SOPE      H4R            -3.2719089124      -30.8925020054      -13.5158265624  MEMB      156             0.0000000000
     17942       156  SOPE      H4S            -1.5202648037      -31.3875191226      -13.1895668901  MEMB      156             0.0000000000
     17943       156  SOPE      C25            -2.1854698701      -30.0865332105      -11.8157066925  MEMB      156             0.0000000000
     17944       156  SOPE      H5R            -1.1056055075      -30.1386063092      -11.8832889587  MEMB      156             0.0000000000
     17945       156  SOPE      H5S            -2.4199993118      -29.0341459162      -11.7368402449  MEMB      156             0.0000000000
     17946       156  SOPE      C26            -2.8640803168      -30.9370193509      -10.7389617780  MEMB      156             0.0000000000
     17947       156  SOPE      H6R            -2.4654629433      -30.8354592919       -9.7288543014  MEMB      156             0.0000000000
     17948       156  SOPE      H6S            -3.9314159747      -30.7626303634      -10.7165544509  MEMB      156             0.0000000000
     17949       156  SOPE      C27            -2.6903308948      -32.4015147689      -10.8526982031  MEMB      156             0.0000000000
     17950       156  SOPE      H7R            -2.9751255233      -32.6643994118      -11.8798447799  MEMB      156             0.0000000000
     17951       156  SOPE      H7S            -1.6232495790      -32.4222067184      -10.5955254960  MEMB      156             0.0000000000
     17952       156  SOPE      C28            -3.3162215864      -33.3075027415       -9.8150099006  MEMB      156             0.0000000000
     17953       156  SOPE      H8R            -4.3512265312      -32.9828289616       -9.7391052486  MEMB      156             0.0000000000
     17954       156  SOPE      H8S            -3.2854392797      -34.3512743968      -10.2119591045  MEMB      156             0.0000000000
     17955       156  SOPE      C29            -2.5259309551      -33.1895997587       -8.5489127944  MEMB      156             0.0000000000
     17956       156  SOPE      H91            -1.5445210759      -32.7830471477       -8.7369356716  MEMB      156             0.0000000000
     17957       156  SOPE      C210           -2.8373893910      -33.4383384234       -7.2975277219  MEMB      156             0.0000000000
     17958       156  SOPE      H101           -2.0695561343      -33.3487166143       -6.5088574466  MEMB      156             0.0000000000
     17959       156  SOPE      C211           -4.1895281187      -33.9233484175       -6.9658213105  MEMB      156             0.0000000000
     17960       156  SOPE      H11R           -4.2840895145      -34.9560143009       -7.2957262130  MEMB      156             0.0000000000
     17961       156  SOPE      H11S           -4.8871304987      -33.2210261759       -7.5016518448  MEMB      156             0.0000000000
     17962       156  SOPE      C212           -4.5906437172      -33.8591625512       -5.5239910662  MEMB      156             0.0000000000
     17963       156  SOPE      H12R           -5.6737082853      -33.8734409142       -5.2895021227  MEMB      156             0.0000000000
     17964       156  SOPE      H12S           -4.3806591208      -32.8288146176       -5.6176945862  MEMB      156             0.0000000000
     17965       156  SOPE      C213           -3.6927950433      -34.5003987983       -4.4572855023  MEMB      156             0.0000000000
     17966       156  SOPE      H13R           -2.6203112360      -34.4101531720       -4.6934739210  MEMB      156             0.0000000000
     17967       156  SOPE      H13S           -4.0076077694      -35.5497212658       -4.4285558203  MEMB      156             0.0000000000
     17968       156  SOPE      C214           -3.7669317731      -33.9205887451       -3.0516943427  MEMB      156             0.0000000000
     17969       156  SOPE      H14R           -3.0836425823      -33.1211153515       -3.1989761293  MEMB      156             0.0000000000
     17970       156  SOPE      H14S           -3.2552736722      -34.3999919733       -2.2048383163  MEMB      156             0.0000000000
     17971       156  SOPE      C215           -5.1478382179      -33.6709536368       -2.5454232659  MEMB      156             0.0000000000
     17972       156  SOPE      H15R           -5.9757766092      -33.0230182935       -2.9957938997  MEMB      156             0.0000000000
     17973       156  SOPE      H15S           -5.0489681145      -33.2907410796       -1.5058265998  MEMB      156             0.0000000000
     17974       156  SOPE      C216           -5.5677359425      -34.8964606614       -2.8568765535  MEMB      156             0.0000000000
     17975       156  SOPE      H16R           -4.8664438282      -35.7773424756       -2.5559221967  MEMB      156             0.0000000000
     17976       156  SOPE      H16S           -5.9703297505      -35.0378590807       -3.8604078496  MEMB      156             0.0000000000
     17977       156  SOPE      C217           -6.8469859581      -34.7769541797       -2.3296791880  MEMB      156             0.0000000000
     17978       156  SOPE      H17R           -6.6382452421      -35.5991483057       -1.7260238264  MEMB      156             0.0000000000
     17979       156  SOPE      H17S           -6.7241759907      -35.9659566246       -2.1846119399  MEMB      156             0.0000000000
     17980       156  SOPE      C218           -8.2889147072      -33.5831900871       -1.9701694182  MEMB      156             0.0000000000
     17981       156  SOPE      H18R           -9.1789109649      -34.0199500578       -1.3035167495  MEMB      156             0.0000000000
     17982       156  SOPE      H18S           -9.0452611118      -33.3944114953       -2.7600272781  MEMB      156             0.0000000000
     17983       156  SOPE      H18T           -8.2480195461      -32.7515017931       -1.3365313148  MEMB      156             0.0000000000
     17984       156  SOPE      C33            -5.8284079318      -28.6737615286      -15.4287191000  MEMB      156             0.0000000000
     17985       156  SOPE      H3X            -5.1822469584      -29.2820163589      -14.7840728690  MEMB      156             0.0000000000
     17986       156  SOPE      H3Y            -6.9324256750      -28.5043811177      -15.6664325754  MEMB      156             0.0000000000
     17987       156  SOPE      C34            -6.0160709729      -28.7204334688      -13.9131082018  MEMB      156             0.0000000000
     17988       156  SOPE      H4X            -7.0086462792      -29.2863750530      -13.6370540953  MEMB      156             0.0000000000
     17989       156  SOPE      H4Y            -7.1493495317      -28.1290704095      -14.0467549895  MEMB      156             0.0000000000
     17990       156  SOPE      C35            -4.5819938263      -27.8798392474      -12.4030815541  MEMB      156             0.0000000000
     17991       156  SOPE      H5X            -4.3714039146      -26.6834886771      -12.2774700049  MEMB      156             0.0000000000
     17992       156  SOPE      H5Y            -3.6790044017      -28.1711432542      -12.5883211860  MEMB      156             0.0000000000
     17993       156  SOPE      C36            -4.8181526086      -27.3265073763      -10.7771733143  MEMB      156             0.0000000000
     17994       156  SOPE      H6X            -5.5876987213      -26.4947808785      -10.7101408773  MEMB      156             0.0000000000
     17995       156  SOPE      H6Y            -4.0331256563      -26.8664139210      -10.1346376254  MEMB      156             0.0000000000
     17996       156  SOPE      C37            -5.3557693244      -28.4517972163       -9.9799379487  MEMB      156             0.0000000000
     17997       156  SOPE      H7X            -5.2564117184      -29.4229325245      -10.3706974480  MEMB      156             0.0000000000
     17998       156  SOPE      H7Y            -6.2509726907      -28.9537815818      -10.2533715933  MEMB      156             0.0000000000
     17999       156  SOPE      C38            -5.9622420658      -28.1504116012       -8.8081283084  MEMB      156             0.0000000000
     18000       156  SOPE      H8X            -6.9713065143      -27.5954574203       -8.8666843825  MEMB      156             0.0000000000
     18001       156  SOPE      H8Y            -5.1140806326      -27.6806809283       -8.3508331125  MEMB      156             0.0000000000
     18002       156  SOPE      C39            -6.1206000691      -29.3932352626       -8.2119452003  MEMB      156             0.0000000000
     18003       156  SOPE      H9X            -6.9986482061      -29.8707093386       -8.5622158705  MEMB      156             0.0000000000
     18004       156  SOPE      H9Y            -6.1397993509      -28.8780814538       -7.2580840557  MEMB      156             0.0000000000
     18005       156  SOPE      C310           -5.2297130748      -30.3090912617       -7.6657720630  MEMB      156             0.0000000000
     18006       156  SOPE      H10X           -5.2119683948      -31.1569732917       -8.3268053728  MEMB      156             0.0000000000
     18007       156  SOPE      H10Y           -6.0724248666      -30.7086278266       -7.0209144676  MEMB      156             0.0000000000
     18008       156  SOPE      C311           -3.9513687379      -29.6147423634       -7.1050184053  MEMB      156             0.0000000000
     18009       156  SOPE      H11X           -3.4247156639      -29.1121105260       -7.9386108723  MEMB      156             0.0000000000
     18010       156  SOPE      H11Y           -3.4076391069      -30.4664253918       -6.7563128500  MEMB      156             0.0000000000
     18011       156  SOPE      C312           -3.9320397813      -28.4356597332       -6.0804160005  MEMB      156             0.0000000000
     18012       156  SOPE      H12X           -4.5448777824      -27.7581985113       -6.6234816617  MEMB      156             0.0000000000
     18013       156  SOPE      H12Y           -3.0073370266      -27.9473024642       -5.8723595704  MEMB      156             0.0000000000
     18014       156  SOPE      C313           -4.2580437197      -28.5159044646       -4.5836143565  MEMB      156             0.0000000000
     18015       156  SOPE      H13X           -3.8569194109      -29.3124150248       -4.1745753051  MEMB      156             0.0000000000
     18016       156  SOPE      H13Y           -5.0520180233      -28.7973865943       -5.0582643282  MEMB      156             0.0000000000
     18017       156  SOPE      C314           -4.7836802740      -27.6761239128       -3.4297535627  MEMB      156             0.0000000000
     18018       156  SOPE      H14X           -5.3289617277      -26.7830950918       -3.5986450296  MEMB      156             0.0000000000
     18019       156  SOPE      H14Y           -3.7502387015      -27.4574052822       -3.2387048870  MEMB      156             0.0000000000
     18020       156  SOPE      C315           -5.5938485379      -28.2134759537       -2.1861184899  MEMB      156             0.0000000000
     18021       156  SOPE      H15X           -5.7728310510      -27.5766120799       -1.3521918290  MEMB      156             0.0000000000
     18022       156  SOPE      H15Y           -4.6137135110      -28.3152147968       -1.8618235913  MEMB      156             0.0000000000
     18023       156  SOPE      C316           -6.3120088808      -29.5561882527       -1.8715426707  MEMB      156             0.0000000000
     18024       156  SOPE      H16X           -5.9710113886      -30.1216130879       -0.9668629910  MEMB      156             0.0000000000
     18025       156  SOPE      H16Y           -6.2211756460      -30.3999525075       -2.4571913160  MEMB      156             0.0000000000
     18026       156  SOPE      C317           -7.7593806803      -29.4091527189       -2.1628565688  MEMB      156             0.0000000000
     18027       156  SOPE      H17X           -7.7153483376      -28.6828266642       -2.8604821444  MEMB      156             0.0000000000
     18028       156  SOPE      H17Y           -8.4379937475      -28.6635635211       -1.8085327680  MEMB      156             0.0000000000
     18029       156  SOPE      C318           -8.5909411237      -30.5983124871       -2.1792064314  MEMB      156             0.0000000000
     18030       156  SOPE      H18X           -9.6015146431      -30.2171298019       -2.3742682404  MEMB      156             0.0000000000
     18031       156  SOPE      H18Y           -8.5330414169      -30.9904604739       -1.1387650443  MEMB      156             0.0000000000
     18032       156  SOPE      H18Z           -8.2321995380      -31.3392893591       -2.9247516742  MEMB      156             0.0000000000
     18033       157  CHL1      C3             30.9360884713        6.5694361425      -17.3464146316  MEMB      157             0.0000000000
     18034       157  CHL1      H3             30.3485495863        5.6262182963      -17.3279569313  MEMB      157             0.0000000000
     18035       157  CHL1      O3             30.9419760737        7.0473457553      -18.6795272262  MEMB      157             0.0000000000
     18036       157  CHL1      H3'            31.3320179929        6.3595968608      -19.2081632672  MEMB      157             0.0000000000
     18037       157  CHL1      C4             30.1860677566        7.5908187271      -16.4883630252  MEMB      157             0.0000000000
     18038       157  CHL1      H4A            30.5473204475        8.6259280071      -16.6998485236  MEMB      157             0.0000000000
     18039       157  CHL1      H4B            29.1223584538        7.5822354690      -16.8224823073  MEMB      157             0.0000000000
     18040       157  CHL1      C5             30.2882899618        7.2632898780      -15.0193464749  MEMB      157             0.0000000000
     18041       157  CHL1      C6             29.2197982113        7.3591603695      -14.2278283268  MEMB      157             0.0000000000
     18042       157  CHL1      H6             28.2656291243        7.6758208106      -14.6600096027  MEMB      157             0.0000000000
     18043       157  CHL1      C7             29.2677370256        7.1768956785      -12.7463872529  MEMB      157             0.0000000000
     18044       157  CHL1      H7A            28.6982038847        7.9856509923      -12.2327509425  MEMB      157             0.0000000000
     18045       157  CHL1      H7B            28.8038646848        6.2051854445      -12.5062609564  MEMB      157             0.0000000000
     18046       157  CHL1      C8             30.7073725747        7.1610870021      -12.1876127731  MEMB      157             0.0000000000
     18047       157  CHL1      H8             31.0440308609        8.1879069936      -12.2967973950  MEMB      157             0.0000000000
     18048       157  CHL1      C14            30.7049489745        6.6907033415      -10.7502467091  MEMB      157             0.0000000000
     18049       157  CHL1      H14            30.3666913609        5.6381024865      -10.7285571615  MEMB      157             0.0000000000
     18050       157  CHL1      C15            29.7731860363        7.4509910802       -9.7678921167  MEMB      157             0.0000000000
     18051       157  CHL1      H15A           29.8574276406        8.5616308423       -9.8434815088  MEMB      157             0.0000000000
     18052       157  CHL1      H15B           28.7143142603        7.2080821293       -9.9630046167  MEMB      157             0.0000000000
     18053       157  CHL1      C16            30.2993749524        7.0052609227       -8.3974937911  MEMB      157             0.0000000000
     18054       157  CHL1      H16A           30.3886097096        7.9098358772       -7.7578128749  MEMB      157             0.0000000000
     18055       157  CHL1      H16B           29.5997304367        6.3010314899       -7.9049263701  MEMB      157             0.0000000000
     18056       157  CHL1      C17            31.7101366015        6.3353619805       -8.6185468159  MEMB      157             0.0000000000
     18057       157  CHL1      H17            31.5803330336        5.2351801095       -8.5921271401  MEMB      157             0.0000000000
     18058       157  CHL1      C13            32.0765991626        6.5644318682      -10.1278869263  MEMB      157             0.0000000000
     18059       157  CHL1      C18            32.7297903550        7.8087194951      -10.3999479204  MEMB      157             0.0000000000
     18060       157  CHL1      H18A           33.6038689674        7.8872620694       -9.7744577896  MEMB      157             0.0000000000
     18061       157  CHL1      H18B           33.0705554119        8.2389048127      -11.3559977817  MEMB      157             0.0000000000
     18062       157  CHL1      H18C           31.9101890033        8.4555689223      -10.1061392323  MEMB      157             0.0000000000
     18063       157  CHL1      C12            33.0079433938        5.6499013993      -10.8619950131  MEMB      157             0.0000000000
     18064       157  CHL1      H12A           34.0129417731        5.7218714553      -10.3761011541  MEMB      157             0.0000000000
     18065       157  CHL1      H12B           32.5587036326        4.6602095804      -10.7208315702  MEMB      157             0.0000000000
     18066       157  CHL1      C11            33.0864060723        6.0850302191      -12.3583685027  MEMB      157             0.0000000000
     18067       157  CHL1      H11A           33.7588068431        6.9606465063      -12.4899813033  MEMB      157             0.0000000000
     18068       157  CHL1      H11B           33.6388942910        5.3133075582      -12.9040730609  MEMB      157             0.0000000000
     18069       157  CHL1      C9             31.6740451925        6.3350449750      -13.0246417735  MEMB      157             0.0000000000
     18070       157  CHL1      H9             31.1873733830        5.3402045556      -13.0449263693  MEMB      157             0.0000000000
     18071       157  CHL1      C10            31.6763529187        6.8336926129      -14.4968888290  MEMB      157             0.0000000000
     18072       157  CHL1      C19            32.4247918549        8.1257398666      -14.5928644522  MEMB      157             0.0000000000
     18073       157  CHL1      H19A           33.4497116465        8.0924795662      -14.1560070193  MEMB      157             0.0000000000
     18074       157  CHL1      H19B           32.5112633486        8.6706623016      -15.5503361561  MEMB      157             0.0000000000
     18075       157  CHL1      H19C           31.7780964726        8.8083631999      -14.0012321114  MEMB      157             0.0000000000
     18076       157  CHL1      C1             32.3736925325        5.8142028837      -15.3796532361  MEMB      157             0.0000000000
     18077       157  CHL1      H1A            33.4190751742        5.7072245723      -15.0083743495  MEMB      157             0.0000000000
     18078       157  CHL1      H1B            31.8446216854        4.8509033311      -15.2398657100  MEMB      157             0.0000000000
     18079       157  CHL1      C2             32.3705714504        6.2713337397      -16.8474874756  MEMB      157             0.0000000000
     18080       157  CHL1      H2A            32.8517331736        5.4917828660      -17.4668586839  MEMB      157             0.0000000000
     18081       157  CHL1      H2B            32.9921877201        7.1922265454      -16.9266229171  MEMB      157             0.0000000000
     18082       157  CHL1      C20            32.6349237634        6.6001347232       -7.4082539338  MEMB      157             0.0000000000
     18083       157  CHL1      H20            32.4932158334        7.6559266952       -7.0903662824  MEMB      157             0.0000000000
     18084       157  CHL1      C21            34.1288552268        6.2780350443       -7.6535207591  MEMB      157             0.0000000000
     18085       157  CHL1      H21A           34.6043149376        6.9071855745       -8.4142354166  MEMB      157             0.0000000000
     18086       157  CHL1      H21B           34.2724949372        5.2374479811       -7.9764537570  MEMB      157             0.0000000000
     18087       157  CHL1      H21C           34.7167355523        6.5087420301       -6.7397872696  MEMB      157             0.0000000000
     18088       157  CHL1      C22            32.1969047388        5.8570818329       -6.1371180360  MEMB      157             0.0000000000
     18089       157  CHL1      H22A           31.0975645213        5.9552986736       -6.0032842282  MEMB      157             0.0000000000
     18090       157  CHL1      H22B           32.4442806158        4.7828103509       -6.2732984911  MEMB      157             0.0000000000
     18091       157  CHL1      C23            32.9175034733        6.3490896956       -4.8693168671  MEMB      157             0.0000000000
     18092       157  CHL1      H23A           33.9955727321        6.1381118687       -4.9777459806  MEMB      157             0.0000000000
     18093       157  CHL1      H23B           32.8036416376        7.4462289405       -4.7206583049  MEMB      157             0.0000000000
     18094       157  CHL1      C24            32.4815462689        5.5637151729       -3.6430241113  MEMB      157             0.0000000000
     18095       157  CHL1      H24A           31.4403993395        5.7332308950       -3.5207782849  MEMB      157             0.0000000000
     18096       157  CHL1      H24B           32.5790338166        4.4749093471       -3.8042683178  MEMB      157             0.0000000000
     18097       157  CHL1      C25            33.0916722440        5.9657010692       -2.3143003000  MEMB      157             0.0000000000
     18098       157  CHL1      H25            32.7953434521        5.1807664997       -1.5770292818  MEMB      157             0.0000000000
     18099       157  CHL1      C26            34.6141870981        5.9816992721       -2.4539260085  MEMB      157             0.0000000000
     18100       157  CHL1      H26A           34.9401926907        5.1979677064       -3.1651799356  MEMB      157             0.0000000000
     18101       157  CHL1      H26B           34.9719181613        6.9060567643       -2.9296057981  MEMB      157             0.0000000000
     18102       157  CHL1      H26C           35.1017926949        5.8479099707       -1.4709732807  MEMB      157             0.0000000000
     18103       157  CHL1      C27            32.4876450410        7.2771067900       -1.7990732407  MEMB      157             0.0000000000
     18104       157  CHL1      H27A           32.9151644612        7.4873652710       -0.8039582642  MEMB      157             0.0000000000
     18105       157  CHL1      H27B           32.6988597038        8.1122127486       -2.4882611241  MEMB      157             0.0000000000
     18106       157  CHL1      H27C           31.3878676145        7.2258870912       -1.7023801391  MEMB      157             0.0000000000
     18107       158  SLPC      N              23.9821520738      -19.9645770116      -15.2711511007  MEMB      158             0.0000000000
     18108       158  SLPC      C13            25.2768469600      -20.2583206361      -15.9311250200  MEMB      158             0.0000000000
     18109       158  SLPC      H13A           25.3538107563      -19.7330218772      -16.8797015019  MEMB      158             0.0000000000
     18110       158  SLPC      H13B           26.1028365935      -19.9967948029      -15.2881284979  MEMB      158             0.0000000000
     18111       158  SLPC      H13C           25.3048014584      -21.3086951050      -16.2082230335  MEMB      158             0.0000000000
     18112       158  SLPC      C14            24.0832969700      -18.5887769027      -14.7131096247  MEMB      158             0.0000000000
     18113       158  SLPC      H14A           23.2490397549      -18.3553644335      -14.0634694319  MEMB      158             0.0000000000
     18114       158  SLPC      H14B           25.0211068005      -18.4846076197      -14.1853021394  MEMB      158             0.0000000000
     18115       158  SLPC      H14C           24.0697339543      -17.8574987523      -15.5152066314  MEMB      158             0.0000000000
     18116       158  SLPC      C15            23.7098593593      -20.9612657949      -14.1893009009  MEMB      158             0.0000000000
     18117       158  SLPC      H15A           22.6977072232      -20.8604316016      -13.8128429956  MEMB      158             0.0000000000
     18118       158  SLPC      H15B           23.7896375920      -21.9621106043      -14.6030368185  MEMB      158             0.0000000000
     18119       158  SLPC      H15C           24.3828130773      -20.8405107612      -13.3478284695  MEMB      158             0.0000000000
     18120       158  SLPC      C12            22.8734395516      -19.9584899632      -16.3174888475  MEMB      158             0.0000000000
     18121       158  SLPC      H12A           23.0688692748      -19.1347318799      -16.9942619467  MEMB      158             0.0000000000
     18122       158  SLPC      H12B           21.9507865350      -19.6655081274      -15.8315447539  MEMB      158             0.0000000000
     18123       158  SLPC      C11            22.5224254912      -21.1912439922      -17.1882322316  MEMB      158             0.0000000000
     18124       158  SLPC      H11A           21.7879318539      -20.8731471356      -17.9765679362  MEMB      158             0.0000000000
     18125       158  SLPC      H11B           21.9756764525      -21.9554150068      -16.5924832849  MEMB      158             0.0000000000
     18126       158  SLPC      P              23.5140961188      -22.9864498668      -18.7417861968  MEMB      158             0.0000000000
     18127       158  SLPC      O13            23.8107402293      -22.6098864506      -20.1406736128  MEMB      158             0.0000000000
     18128       158  SLPC      O14            24.3068555498      -24.0694390419      -18.1347412736  MEMB      158             0.0000000000
     18129       158  SLPC      O12            23.6948665003      -21.7365250268      -17.7801647111  MEMB      158             0.0000000000
     18130       158  SLPC      O11            21.9867986519      -23.3170992110      -18.6381884217  MEMB      158             0.0000000000
     18131       158  SLPC      C1             21.4070940952      -24.5756948734      -18.9454769929  MEMB      158             0.0000000000
     18132       158  SLPC      HA             20.6346657717      -24.3899275205      -19.7201447685  MEMB      158             0.0000000000
     18133       158  SLPC      HB             22.1526107559      -25.2986566408      -19.3372219948  MEMB      158             0.0000000000
     18134       158  SLPC      C2             20.6856756567      -25.2195814625      -17.7316251937  MEMB      158             0.0000000000
     18135       158  SLPC      HS             19.7344732509      -25.6844256534      -18.0769018546  MEMB      158             0.0000000000
     18136       158  SLPC      O21            20.4260729244      -24.2136982979      -16.7742709941  MEMB      158             0.0000000000
     18137       158  SLPC      C21            19.7148467181      -24.5390504319      -15.7426989333  MEMB      158             0.0000000000
     18138       158  SLPC      O22            19.0862147844      -25.5543359146      -15.5621793240  MEMB      158             0.0000000000
     18139       158  SLPC      C22            19.6475984163      -23.3281417853      -14.9181842731  MEMB      158             0.0000000000
     18140       158  SLPC      H2R            19.4441458697      -22.6235173570      -15.7769721913  MEMB      158             0.0000000000
     18141       158  SLPC      H2S            18.7239277373      -23.2509005213      -14.3175901356  MEMB      158             0.0000000000
     18142       158  SLPC      C3             21.5457566412      -26.3154335054      -17.0840544231  MEMB      158             0.0000000000
     18143       158  SLPC      HX             21.8421628489      -27.0208231803      -17.8843029182  MEMB      158             0.0000000000
     18144       158  SLPC      HY             20.9027617742      -26.8402733815      -16.3355822735  MEMB      158             0.0000000000
     18145       158  SLPC      O31            22.7246427941      -25.7193035739      -16.5246546993  MEMB      158             0.0000000000
     18146       158  SLPC      C31            23.1015208581      -26.2107061223      -15.3820550794  MEMB      158             0.0000000000
     18147       158  SLPC      O32            22.5934271786      -27.1637952250      -14.8202807033  MEMB      158             0.0000000000
     18148       158  SLPC      C32            24.2893400853      -25.3376336901      -14.9087519491  MEMB      158             0.0000000000
     18149       158  SLPC      H2X            23.8719823554      -24.3970822497      -14.5258757521  MEMB      158             0.0000000000
     18150       158  SLPC      H2Y            24.9650238051      -25.2244297903      -15.7637127833  MEMB      158             0.0000000000
     18151       158  SLPC      C23            20.9927181498      -23.0527924262      -14.1612871961  MEMB      158             0.0000000000
     18152       158  SLPC      H3R            21.2181848755      -21.9911976878      -14.0361852096  MEMB      158             0.0000000000
     18153       158  SLPC      H3S            21.8712387538      -23.3563319964      -14.7291041122  MEMB      158             0.0000000000
     18154       158  SLPC      C24            21.1646683138      -23.4000400239      -12.6826665261  MEMB      158             0.0000000000
     18155       158  SLPC      H4R            20.3838361066      -22.9710954814      -12.2228091664  MEMB      158             0.0000000000
     18156       158  SLPC      H4S            21.8297725109      -22.7254233485      -12.1215620237  MEMB      158             0.0000000000
     18157       158  SLPC      C25            20.7044319108      -24.7072092683      -12.1025021017  MEMB      158             0.0000000000
     18158       158  SLPC      H5R            21.5519099859      -25.3023871517      -12.4580196040  MEMB      158             0.0000000000
     18159       158  SLPC      H5S            19.7440103791      -25.0531966363      -12.5617438905  MEMB      158             0.0000000000
     18160       158  SLPC      C26            20.5784796932      -24.7132872364      -10.5550873753  MEMB      158             0.0000000000
     18161       158  SLPC      H6R            20.5692583115      -25.7929956996      -10.2943726871  MEMB      158             0.0000000000
     18162       158  SLPC      H6S            19.6005781206      -24.3444211921      -10.1713566035  MEMB      158             0.0000000000
     18163       158  SLPC      C27            21.6818808938      -23.9276554809       -9.7928253730  MEMB      158             0.0000000000
     18164       158  SLPC      H7R            21.6780810045      -22.8502873526      -10.0787550867  MEMB      158             0.0000000000
     18165       158  SLPC      H7S            22.6736948223      -24.3411239392      -10.0735008021  MEMB      158             0.0000000000
     18166       158  SLPC      C28            21.4896293439      -23.9313350452       -8.2656821969  MEMB      158             0.0000000000
     18167       158  SLPC      H8R            20.4802499159      -23.5006796341       -8.0791504396  MEMB      158             0.0000000000
     18168       158  SLPC      H8S            22.1974258887      -23.2486010559       -7.7531608827  MEMB      158             0.0000000000
     18169       158  SLPC      C29            21.6181327833      -25.3394712573       -7.7593493126  MEMB      158             0.0000000000
     18170       158  SLPC      H9R            21.0287690226      -26.0859535798       -8.3008552153  MEMB      158             0.0000000000
     18171       158  SLPC      C210           22.3339891042      -25.7764450713       -6.7219298413  MEMB      158             0.0000000000
     18172       158  SLPC      H10R           22.1651060179      -26.8188781049       -6.4391542677  MEMB      158             0.0000000000
     18173       158  SLPC      C211           23.1864697995      -24.9545945516       -5.7973557272  MEMB      158             0.0000000000
     18174       158  SLPC      H11R           23.5209162389      -24.0450459102       -6.3294938493  MEMB      158             0.0000000000
     18175       158  SLPC      H11S           24.0940575697      -25.5567069131       -5.5864965064  MEMB      158             0.0000000000
     18176       158  SLPC      C212           22.5424758377      -24.4400124889       -4.5311297955  MEMB      158             0.0000000000
     18177       158  SLPC      H12R           22.0334822207      -23.4792006348       -4.6268872575  MEMB      158             0.0000000000
     18178       158  SLPC      C213           22.5506503508      -24.9893537288       -3.3148285925  MEMB      158             0.0000000000
     18179       158  SLPC      H13R           22.0699697463      -24.4991233083       -2.4658623775  MEMB      158             0.0000000000
     18180       158  SLPC      C214           23.2047950651      -26.2455903147       -2.9556315535  MEMB      158             0.0000000000
     18181       158  SLPC      H14R           23.9076228086      -26.1441504620       -2.1164431582  MEMB      158             0.0000000000
     18182       158  SLPC      H14S           23.8098559152      -26.6008467267       -3.8284988851  MEMB      158             0.0000000000
     18183       158  SLPC      C215           22.1171913873      -27.1573342526       -2.3917391079  MEMB      158             0.0000000000
     18184       158  SLPC      H15R           21.2905223484      -27.4345072894       -3.0573170614  MEMB      158             0.0000000000
     18185       158  SLPC      H15S           21.5688412779      -26.8879295510       -1.5047124246  MEMB      158             0.0000000000
     18186       158  SLPC      C216           22.7727352037      -28.3388785518       -1.8943244802  MEMB      158             0.0000000000
     18187       158  SLPC      H16R           21.9108048736      -29.0571867963       -1.9008590025  MEMB      158             0.0000000000
     18188       158  SLPC      H16S           23.3778776134      -28.3242437337       -0.9504373368  MEMB      158             0.0000000000
     18189       158  SLPC      C217           23.5729536386      -28.6343314028       -3.0394607384  MEMB      158             0.0000000000
     18190       158  SLPC      H17R           24.2695501610      -29.3980269472       -2.5967614965  MEMB      158             0.0000000000
     18191       158  SLPC      H17S           24.6435240258      -28.3180455667       -3.1296194203  MEMB      158             0.0000000000
     18192       158  SLPC      C218           22.5232791411      -28.6972985885       -4.4115725927  MEMB      158             0.0000000000
     18193       158  SLPC      H18R           21.7763235353      -29.5443549055       -4.6150414244  MEMB      158             0.0000000000
     18194       158  SLPC      H18S           22.8999760128      -29.0676430498       -5.3392511975  MEMB      158             0.0000000000
     18195       158  SLPC      H18T           22.4664322908      -27.8128168494       -4.9877534945  MEMB      158             0.0000000000
     18196       158  SLPC      C33            25.0190365533      -25.9961148565      -13.7922636661  MEMB      158             0.0000000000
     18197       158  SLPC      H3X            25.5042966249      -26.8950601352      -14.1941620387  MEMB      158             0.0000000000
     18198       158  SLPC      H3Y            24.1976832325      -26.0279093141      -13.0538118365  MEMB      158             0.0000000000
     18199       158  SLPC      C34            26.0819580658      -25.5165732421      -12.8829460452  MEMB      158             0.0000000000
     18200       158  SLPC      H4X            26.8875924310      -25.4009746399      -13.5872469623  MEMB      158             0.0000000000
     18201       158  SLPC      H4Y            26.2540728375      -26.4035921507      -12.2376176024  MEMB      158             0.0000000000
     18202       158  SLPC      C35            25.6373171636      -24.3831924746      -11.9972393710  MEMB      158             0.0000000000
     18203       158  SLPC      H5X            24.6942970411      -24.6403542323      -11.4793611359  MEMB      158             0.0000000000
     18204       158  SLPC      H5Y            25.4451117181      -23.5734339223      -12.7221719056  MEMB      158             0.0000000000
     18205       158  SLPC      C36            26.6371795831      -24.0742472868      -10.8929279607  MEMB      158             0.0000000000
     18206       158  SLPC      H6X            27.5735766173      -24.1964339237      -11.4750510262  MEMB      158             0.0000000000
     18207       158  SLPC      H6Y            26.6587748164      -24.7923608574      -10.0483246878  MEMB      158             0.0000000000
     18208       158  SLPC      C37            26.6255982906      -22.6649177026      -10.2842842001  MEMB      158             0.0000000000
     18209       158  SLPC      H7X            27.0898389731      -22.1474381064      -11.0583779697  MEMB      158             0.0000000000
     18210       158  SLPC      H7Y            27.3352787170      -22.4548220014       -9.4768619634  MEMB      158             0.0000000000
     18211       158  SLPC      C38            25.3709797374      -21.8664902537      -10.0562254286  MEMB      158             0.0000000000
     18212       158  SLPC      H8X            25.1435848117      -22.1483419519       -9.0085363822  MEMB      158             0.0000000000
     18213       158  SLPC      H8Y            24.6282761991      -22.2019738289      -10.8049636637  MEMB      158             0.0000000000
     18214       158  SLPC      C39            25.5365597025      -20.3316992326      -10.0926957831  MEMB      158             0.0000000000
     18215       158  SLPC      H9X            25.7655755498      -19.9548414702      -11.0993208831  MEMB      158             0.0000000000
     18216       158  SLPC      H9Y            26.3374837650      -19.9949807706       -9.3885702106  MEMB      158             0.0000000000
     18217       158  SLPC      C310           24.2549845118      -19.5602009814       -9.9109187746  MEMB      158             0.0000000000
     18218       158  SLPC      H10X           23.6081043599      -19.7917317123      -10.7889456203  MEMB      158             0.0000000000
     18219       158  SLPC      H10Y           24.5048242788      -18.4725703570       -9.9387024516  MEMB      158             0.0000000000
     18220       158  SLPC      C311           23.5685116041      -19.9646669902       -8.6244484665  MEMB      158             0.0000000000
     18221       158  SLPC      H11X           24.2747796249      -19.8965130819       -7.7643449333  MEMB      158             0.0000000000
     18222       158  SLPC      H11Y           23.2361065713      -21.0237007010       -8.7204888948  MEMB      158             0.0000000000
     18223       158  SLPC      C312           22.4244104744      -19.0349101598       -8.2670270060  MEMB      158             0.0000000000
     18224       158  SLPC      H12X           21.6121178785      -19.0993031971       -9.0239836657  MEMB      158             0.0000000000
     18225       158  SLPC      H12Y           22.8173818174      -17.9955374057       -8.2477892077  MEMB      158             0.0000000000
     18226       158  SLPC      C313           21.9068978942      -19.2943449311       -6.8642971596  MEMB      158             0.0000000000
     18227       158  SLPC      H13X           21.1412490942      -18.5271521920       -6.6200363396  MEMB      158             0.0000000000
     18228       158  SLPC      H13Y           22.7024146199      -19.2585059290       -6.0829325275  MEMB      158             0.0000000000
     18229       158  SLPC      C314           21.2768286914      -20.6355670864       -6.7291054090  MEMB      158             0.0000000000
     18230       158  SLPC      H14X           22.0042771607      -21.4705248472       -6.8065440481  MEMB      158             0.0000000000
     18231       158  SLPC      H14Y           20.5008575344      -20.7791317427       -7.5298391619  MEMB      158             0.0000000000
     18232       158  SLPC      C315           20.7353324578      -20.7323033409       -5.3345822217  MEMB      158             0.0000000000
     18233       158  SLPC      H15X           20.5729718753      -19.8458689223       -4.6875838738  MEMB      158             0.0000000000
     18234       158  SLPC      H15Y           21.2381844560      -21.5854356527       -4.8101913174  MEMB      158             0.0000000000
     18235       158  SLPC      C316           19.4285587316      -21.2726200619       -5.4877330624  MEMB      158             0.0000000000
     18236       158  SLPC      H16X           19.6836096251      -22.0167392041       -6.2107798849  MEMB      158             0.0000000000
     18237       158  SLPC      H16Y           18.6847326594      -20.6694498406       -6.0248674400  MEMB      158             0.0000000000
     18238       158  SLPC      C317           19.1499621092      -21.8192183250       -4.1600425575  MEMB      158             0.0000000000
     18239       158  SLPC      H17X           18.1942752998      -22.3208877130       -4.3282308874  MEMB      158             0.0000000000
     18240       158  SLPC      H17Y           19.2601501434      -21.0140651036       -3.3704644934  MEMB      158             0.0000000000
     18241       158  SLPC      C318           19.5271298364      -23.0185003113       -3.4626121910  MEMB      158             0.0000000000
     18242       158  SLPC      H18X           18.8070130280      -22.7698224118       -2.6582059547  MEMB      158             0.0000000000
     18243       158  SLPC      H18Y           20.5622487793      -22.9746488303       -3.1743645385  MEMB      158             0.0000000000
     18244       158  SLPC      H18Z           19.0976931645      -24.0019514012       -3.6248825588  MEMB      158             0.0000000000
     18245       159  SOPE      N               9.7664252294      -27.4477807421      -23.2886753053  MEMB      159             0.0000000000
     18246       159  SOPE      HN1            10.7969655804      -27.3883752046      -23.2284894730  MEMB      159             0.0000000000
     18247       159  SOPE      HN2             9.5872755915      -27.8407691633      -24.2398976113  MEMB      159             0.0000000000
     18248       159  SOPE      HN3             9.3968852017      -26.4719432334      -23.2183621643  MEMB      159             0.0000000000
     18249       159  SOPE      C12             9.2303487740      -28.3590769899      -22.2198171069  MEMB      159             0.0000000000
     18250       159  SOPE      H12A            8.2073551699      -28.6529505367      -22.5261148921  MEMB      159             0.0000000000
     18251       159  SOPE      H12B            9.1885490117      -27.7897854992      -21.2680821636  MEMB      159             0.0000000000
     18252       159  SOPE      C11            10.1367129871      -29.5780902432      -22.0203208419  MEMB      159             0.0000000000
     18253       159  SOPE      H11A           11.1637995915      -29.2128678752      -21.7773042491  MEMB      159             0.0000000000
     18254       159  SOPE      H11B           10.2136654251      -30.1827331658      -22.9435412657  MEMB      159             0.0000000000
     18255       159  SOPE      P              10.6124510188      -31.2705372818      -20.1055865191  MEMB      159             0.0000000000
     18256       159  SOPE      O13            11.5918178852      -30.3604541154      -19.4645224334  MEMB      159             0.0000000000
     18257       159  SOPE      O14            11.1381191285      -32.3287704156      -21.0048124409  MEMB      159             0.0000000000
     18258       159  SOPE      O12             9.6038402399      -30.3846946732      -20.9742667126  MEMB      159             0.0000000000
     18259       159  SOPE      O11             9.6484510329      -31.9101246143      -19.0312454835  MEMB      159             0.0000000000
     18260       159  SOPE      C1              8.3232066453      -32.2235475994      -19.4154596339  MEMB      159             0.0000000000
     18261       159  SOPE      HA              8.3234163099      -32.8572184083      -20.3414105162  MEMB      159             0.0000000000
     18262       159  SOPE      HB              7.7144420941      -31.3266473120      -19.6124014414  MEMB      159             0.0000000000
     18263       159  SOPE      C2              7.6968239841      -33.0187522052      -18.2857422195  MEMB      159             0.0000000000
     18264       159  SOPE      HS              6.6287656619      -33.2487134812      -18.5347267235  MEMB      159             0.0000000000
     18265       159  SOPE      O21             7.7963911022      -32.5584608472      -16.9312613024  MEMB      159             0.0000000000
     18266       159  SOPE      C21             7.3233373626      -31.3550417783      -16.7803438097  MEMB      159             0.0000000000
     18267       159  SOPE      O22             6.5743374240      -30.8187778046      -17.5871077009  MEMB      159             0.0000000000
     18268       159  SOPE      C22             7.7417660150      -30.8230829095      -15.4168843261  MEMB      159             0.0000000000
     18269       159  SOPE      H2R             8.4502751903      -31.5339431015      -14.9338786342  MEMB      159             0.0000000000
     18270       159  SOPE      H2S             6.8853748308      -30.7202762388      -14.7172561088  MEMB      159             0.0000000000
     18271       159  SOPE      C3              8.4561470839      -34.2997945354      -18.3495232348  MEMB      159             0.0000000000
     18272       159  SOPE      HX              8.3461874619      -34.8297107169      -19.2923757482  MEMB      159             0.0000000000
     18273       159  SOPE      HY              7.6518847642      -34.7950156272      -17.9128094386  MEMB      159             0.0000000000
     18274       159  SOPE      O31             9.6717521301      -34.4250690667      -17.5594675418  MEMB      159             0.0000000000
     18275       159  SOPE      C31            10.9308946597      -34.2679712439      -17.9955928814  MEMB      159             0.0000000000
     18276       159  SOPE      O32            11.3614252344      -34.3035271507      -19.1189922826  MEMB      159             0.0000000000
     18277       159  SOPE      C32            11.8953653393      -34.0326505471      -16.9239463935  MEMB      159             0.0000000000
     18278       159  SOPE      H2X            11.7787718097      -32.9537677099      -16.7182693426  MEMB      159             0.0000000000
     18279       159  SOPE      H2Y            12.9031485756      -34.2244727163      -17.3351293735  MEMB      159             0.0000000000
     18280       159  SOPE      C23             8.5655242554      -29.5496309333      -15.5492120718  MEMB      159             0.0000000000
     18281       159  SOPE      H3R             8.1360141241      -28.5645817438      -15.4705131967  MEMB      159             0.0000000000
     18282       159  SOPE      H3S             9.0452975105      -29.3288804782      -16.5075624316  MEMB      159             0.0000000000
     18283       159  SOPE      C24             9.3927704644      -29.5252367839      -14.3631294706  MEMB      159             0.0000000000
     18284       159  SOPE      H4R             8.9178913025      -29.9944910699      -13.4627757507  MEMB      159             0.0000000000
     18285       159  SOPE      H4S            10.4017319182      -29.8866033428      -14.6274677065  MEMB      159             0.0000000000
     18286       159  SOPE      C25             9.4520110808      -28.1834294724      -13.9268831285  MEMB      159             0.0000000000
     18287       159  SOPE      H5R            10.0100903654      -27.6320037823      -14.7375538403  MEMB      159             0.0000000000
     18288       159  SOPE      H5S             8.4630805981      -27.6492508856      -13.7197281065  MEMB      159             0.0000000000
     18289       159  SOPE      C26            10.0974069644      -28.4287936903      -12.6234187599  MEMB      159             0.0000000000
     18290       159  SOPE      H6R            11.1778923838      -28.6294737678      -12.5737754918  MEMB      159             0.0000000000
     18291       159  SOPE      H6S            10.0267380313      -27.4459869864      -12.8689213068  MEMB      159             0.0000000000
     18292       159  SOPE      C27             9.2013054862      -28.2332013402      -11.4291106699  MEMB      159             0.0000000000
     18293       159  SOPE      H7R             8.5931048800      -27.2848660115      -11.4310034992  MEMB      159             0.0000000000
     18294       159  SOPE      H7S             8.7547501535      -29.2193732152      -11.3299028381  MEMB      159             0.0000000000
     18295       159  SOPE      C28             9.8777134629      -28.1170483483      -10.1744215576  MEMB      159             0.0000000000
     18296       159  SOPE      H8R            10.6929928873      -28.8872978250      -10.3391955544  MEMB      159             0.0000000000
     18297       159  SOPE      H8S            10.3248322039      -27.1332736675      -10.1289920559  MEMB      159             0.0000000000
     18298       159  SOPE      C29             9.1377183053      -28.3978406741       -8.9147979592  MEMB      159             0.0000000000
     18299       159  SOPE      H91             9.3967595095      -29.4364673335       -8.7137704195  MEMB      159             0.0000000000
     18300       159  SOPE      C210            8.6756516938      -27.6354656058       -7.8873183356  MEMB      159             0.0000000000
     18301       159  SOPE      H101            8.5341538613      -28.1744536903       -6.9559683534  MEMB      159             0.0000000000
     18302       159  SOPE      C211            8.6999761729      -26.1559067276       -7.5607239584  MEMB      159             0.0000000000
     18303       159  SOPE      H11R            7.7867075347      -25.6235358646       -7.2765722773  MEMB      159             0.0000000000
     18304       159  SOPE      H11S            9.1426034828      -25.4746963099       -8.3416821468  MEMB      159             0.0000000000
     18305       159  SOPE      C212            9.4571368276      -25.8617960364       -6.2551747351  MEMB      159             0.0000000000
     18306       159  SOPE      H12R            9.4179373871      -24.7718715536       -6.2656531074  MEMB      159             0.0000000000
     18307       159  SOPE      H12S           10.2408588418      -25.5499434734       -6.7592905672  MEMB      159             0.0000000000
     18308       159  SOPE      C213            9.8429937378      -26.7848321661       -4.9566573572  MEMB      159             0.0000000000
     18309       159  SOPE      H13R            9.9543721782      -27.8432169102       -5.1864096935  MEMB      159             0.0000000000
     18310       159  SOPE      H13S            8.9145092221      -26.6457359603       -4.4569258829  MEMB      159             0.0000000000
     18311       159  SOPE      C214           11.0416389178      -26.7338405395       -3.8458911138  MEMB      159             0.0000000000
     18312       159  SOPE      H14R           11.2846955893      -25.7803128796       -3.3451660633  MEMB      159             0.0000000000
     18313       159  SOPE      H14S           11.9531499981      -27.1887089974       -4.1389225800  MEMB      159             0.0000000000
     18314       159  SOPE      C215           10.9374399685      -27.4323300435       -2.5038271978  MEMB      159             0.0000000000
     18315       159  SOPE      H15R           10.9467743927      -28.4591452991       -2.8453268684  MEMB      159             0.0000000000
     18316       159  SOPE      H15S           10.1505020167      -27.1214954760       -1.8206970377  MEMB      159             0.0000000000
     18317       159  SOPE      C216           12.0455600022      -27.0728816927       -1.5776299742  MEMB      159             0.0000000000
     18318       159  SOPE      H16R           12.0287583086      -25.9848959303       -1.3139681506  MEMB      159             0.0000000000
     18319       159  SOPE      H16S           12.8993081043      -27.4550971751       -2.1459362179  MEMB      159             0.0000000000
     18320       159  SOPE      C217           12.1998861521      -27.9208816860       -0.4063695880  MEMB      159             0.0000000000
     18321       159  SOPE      H17R           13.2199563843      -27.7589613056        0.0161872861  MEMB      159             0.0000000000
     18322       159  SOPE      H17S           12.0746966946      -28.9409938077       -0.8310114250  MEMB      159             0.0000000000
     18323       159  SOPE      C218           11.1577898762      -27.5544086109        0.5704498431  MEMB      159             0.0000000000
     18324       159  SOPE      H18R           11.3399957444      -28.1962593859        1.4528951595  MEMB      159             0.0000000000
     18325       159  SOPE      H18S           10.1389904996      -27.7199254448        0.1587873709  MEMB      159             0.0000000000
     18326       159  SOPE      H18T           11.2383957374      -26.4731929497        0.8431117822  MEMB      159             0.0000000000
     18327       159  SOPE      C33            11.7207125978      -34.9850628887      -15.7748876040  MEMB      159             0.0000000000
     18328       159  SOPE      H3X            12.1553197772      -35.9717002750      -16.0622279899  MEMB      159             0.0000000000
     18329       159  SOPE      H3Y            10.6506751944      -35.1608302320      -15.5958923287  MEMB      159             0.0000000000
     18330       159  SOPE      C34            12.3446767049      -34.3495150190      -14.5339629599  MEMB      159             0.0000000000
     18331       159  SOPE      H4X            13.4035506801      -34.0943091991      -14.7690022206  MEMB      159             0.0000000000
     18332       159  SOPE      H4Y            12.3095555356      -35.1364178691      -13.7607148358  MEMB      159             0.0000000000
     18333       159  SOPE      C35            11.5456126569      -33.1116384872      -14.0554927897  MEMB      159             0.0000000000
     18334       159  SOPE      H5X            10.5010181050      -33.2779642431      -14.4154058885  MEMB      159             0.0000000000
     18335       159  SOPE      H5Y            11.8992598163      -32.1881666326      -14.5657070747  MEMB      159             0.0000000000
     18336       159  SOPE      C36            11.3809265009      -32.8741602172      -12.5304683140  MEMB      159             0.0000000000
     18337       159  SOPE      H6X            10.8392512476      -33.7313828404      -12.0780856772  MEMB      159             0.0000000000
     18338       159  SOPE      H6Y            10.6870753848      -32.0027195561      -12.4548040177  MEMB      159             0.0000000000
     18339       159  SOPE      C37            12.6401585799      -32.5082036103      -11.7204259905  MEMB      159             0.0000000000
     18340       159  SOPE      H7X            13.1415251539      -31.6698808274      -12.2592519556  MEMB      159             0.0000000000
     18341       159  SOPE      H7Y            13.3730392286      -33.3408618548      -11.6453899024  MEMB      159             0.0000000000
     18342       159  SOPE      C38            12.3844943912      -32.0080032991      -10.2815354519  MEMB      159             0.0000000000
     18343       159  SOPE      H8X            11.6268205157      -31.1987329063      -10.2340469967  MEMB      159             0.0000000000
     18344       159  SOPE      H8Y            13.3644099640      -31.5674961101       -9.9735108593  MEMB      159             0.0000000000
     18345       159  SOPE      C39            12.0615449467      -33.0812718033       -9.2297612373  MEMB      159             0.0000000000
     18346       159  SOPE      H9X            12.7944672818      -33.9069839705       -9.3935328064  MEMB      159             0.0000000000
     18347       159  SOPE      H9Y            11.0468116595      -33.5172190125       -9.3500356564  MEMB      159             0.0000000000
     18348       159  SOPE      C310           12.2948903134      -32.5301491669       -7.8045688512  MEMB      159             0.0000000000
     18349       159  SOPE      H10X           13.1600443047      -31.8357754869       -7.8798156665  MEMB      159             0.0000000000
     18350       159  SOPE      H10Y           12.5952946856      -33.3680612766       -7.1389490874  MEMB      159             0.0000000000
     18351       159  SOPE      C311           11.1441039958      -31.7227012495       -7.1701879198  MEMB      159             0.0000000000
     18352       159  SOPE      H11X           10.3206183679      -32.4040506265       -6.8489797397  MEMB      159             0.0000000000
     18353       159  SOPE      H11Y           10.7477394095      -31.0240307263       -7.9366130847  MEMB      159             0.0000000000
     18354       159  SOPE      C312           11.5580891055      -30.8348280510       -5.9757832019  MEMB      159             0.0000000000
     18355       159  SOPE      H12X           10.6183043160      -30.4915146851       -5.4853793437  MEMB      159             0.0000000000
     18356       159  SOPE      H12Y           12.0993132051      -29.9228686075       -6.3043128640  MEMB      159             0.0000000000
     18357       159  SOPE      C313           12.4180735226      -31.5436963701       -4.9358578142  MEMB      159             0.0000000000
     18358       159  SOPE      H13X           13.4645212320      -31.6933918463       -5.2791101251  MEMB      159             0.0000000000
     18359       159  SOPE      H13Y           11.9695790094      -32.5491649693       -4.7798342508  MEMB      159             0.0000000000
     18360       159  SOPE      C314           12.3993832527      -30.8443132355       -3.5773506302  MEMB      159             0.0000000000
     18361       159  SOPE      H14X           11.3944249045      -30.4108167124       -3.4040956655  MEMB      159             0.0000000000
     18362       159  SOPE      H14Y           13.1445596700      -30.0182228781       -3.4999035449  MEMB      159             0.0000000000
     18363       159  SOPE      C315           12.5644774239      -31.8803411235       -2.4839206863  MEMB      159             0.0000000000
     18364       159  SOPE      H15X           11.8193584839      -32.6799269211       -2.5659716353  MEMB      159             0.0000000000
     18365       159  SOPE      H15Y           12.3874351705      -31.4057172497       -1.4977835493  MEMB      159             0.0000000000
     18366       159  SOPE      C316           13.8982446808      -32.5429563285       -2.5475486421  MEMB      159             0.0000000000
     18367       159  SOPE      H16X           14.3974863846      -32.4896862933       -3.5549555849  MEMB      159             0.0000000000
     18368       159  SOPE      H16Y           13.8546415365      -33.6289098121       -2.2865084982  MEMB      159             0.0000000000
     18369       159  SOPE      C317           14.7581535734      -31.7909826272       -1.5793411690  MEMB      159             0.0000000000
     18370       159  SOPE      H17X           15.0057292111      -30.7294721869       -1.7478828186  MEMB      159             0.0000000000
     18371       159  SOPE      H17Y           15.5812002061      -32.2360645628       -2.1202010763  MEMB      159             0.0000000000
     18372       159  SOPE      C318           14.6071496465      -32.1313533580       -0.0748105620  MEMB      159             0.0000000000
     18373       159  SOPE      H18X           15.2120440661      -31.4504697803        0.5695782856  MEMB      159             0.0000000000
     18374       159  SOPE      H18Y           14.9330942952      -33.1662368611        0.1750081428  MEMB      159             0.0000000000
     18375       159  SOPE      H18Z           13.5422428730      -32.0266859569        0.2000667416  MEMB      159             0.0000000000
     18376       160  SAPI      C12           -29.1976281118      -16.4983730003      -24.4431500616  MEMB      160             0.0000000000
     18377       160  SAPI      H2            -29.7597276703      -17.2362469719      -23.8157215913  MEMB      160             0.0000000000
     18378       160  SAPI      O2            -27.9404278296      -17.0484383588      -24.8126291071  MEMB      160             0.0000000000
     18379       160  SAPI      HO2           -27.6360419599      -17.6147560742      -24.1025093113  MEMB      160             0.0000000000
     18380       160  SAPI      C13           -30.0069126559      -16.2554673137      -25.6940643519  MEMB      160             0.0000000000
     18381       160  SAPI      H3            -31.0103589174      -15.8950748586      -25.3981643808  MEMB      160             0.0000000000
     18382       160  SAPI      O3            -30.1967002323      -17.4919188724      -26.3889222426  MEMB      160             0.0000000000
     18383       160  SAPI      HO3           -29.3592488375      -17.9695365796      -26.3128369026  MEMB      160             0.0000000000
     18384       160  SAPI      C14           -29.3311884382      -15.1827082296      -26.5433035258  MEMB      160             0.0000000000
     18385       160  SAPI      H4            -28.3282579842      -15.5624205972      -26.8521603326  MEMB      160             0.0000000000
     18386       160  SAPI      O4            -30.0421592145      -14.9341317142      -27.7510870592  MEMB      160             0.0000000000
     18387       160  SAPI      HO4           -30.7395920924      -14.2880496663      -27.6198632193  MEMB      160             0.0000000000
     18388       160  SAPI      C15           -29.1434514942      -13.9044329644      -25.7445504391  MEMB      160             0.0000000000
     18389       160  SAPI      H5            -30.1439876761      -13.5043400193      -25.4534473859  MEMB      160             0.0000000000
     18390       160  SAPI      O5            -28.5435617604      -12.8780468161      -26.5225075915  MEMB      160             0.0000000000
     18391       160  SAPI      HO5           -27.8086128312      -13.2695220787      -26.9996904400  MEMB      160             0.0000000000
     18392       160  SAPI      C16           -28.3246215022      -14.1988801995      -24.4873398191  MEMB      160             0.0000000000
     18393       160  SAPI      H6            -27.3191118238      -14.5713121536      -24.7690005274  MEMB      160             0.0000000000
     18394       160  SAPI      O6            -28.0776771051      -13.0217704073      -23.7665549537  MEMB      160             0.0000000000
     18395       160  SAPI      HO6           -27.4735162787      -12.4581490623      -24.2320560908  MEMB      160             0.0000000000
     18396       160  SAPI      C11           -29.0416560694      -15.2289112302      -23.6301762839  MEMB      160             0.0000000000
     18397       160  SAPI      H1            -30.0766751839      -14.8502303326      -23.4267183040  MEMB      160             0.0000000000
     18398       160  SAPI      P             -28.9105687374      -14.9141139992      -20.9697504760  MEMB      160             0.0000000000
     18399       160  SAPI      O13           -30.3320300661      -15.3147164271      -20.8599657666  MEMB      160             0.0000000000
     18400       160  SAPI      O14           -28.5214719607      -13.4906403407      -20.9187814268  MEMB      160             0.0000000000
     18401       160  SAPI      O12           -28.3949037691      -15.6001854572      -22.4003385534  MEMB      160             0.0000000000
     18402       160  SAPI      O11           -28.0143787343      -15.7480171744      -19.9513041733  MEMB      160             0.0000000000
     18403       160  SAPI      C1            -28.5260330705      -16.9660170865      -19.4121811957  MEMB      160             0.0000000000
     18404       160  SAPI      HA            -29.1991058903      -17.5153176793      -20.1174903330  MEMB      160             0.0000000000
     18405       160  SAPI      HB            -27.7044732296      -17.6511318339      -19.1104146238  MEMB      160             0.0000000000
     18406       160  SAPI      C2            -29.3076217996      -16.6901598377      -18.1437510584  MEMB      160             0.0000000000
     18407       160  SAPI      HS            -30.1368884362      -16.0101143437      -18.4362737354  MEMB      160             0.0000000000
     18408       160  SAPI      O21           -28.5226294414      -16.0848597712      -17.1317442488  MEMB      160             0.0000000000
     18409       160  SAPI      C21           -28.4351803222      -14.8115582207      -17.0654938695  MEMB      160             0.0000000000
     18410       160  SAPI      O22           -28.8865663664      -13.9595069935      -17.8009647099  MEMB      160             0.0000000000
     18411       160  SAPI      C22           -27.5535759050      -14.6017728795      -15.8742311082  MEMB      160             0.0000000000
     18412       160  SAPI      H2R           -27.7481670994      -15.3654832749      -15.0998297061  MEMB      160             0.0000000000
     18413       160  SAPI      H2S           -26.4792599673      -14.6100137696      -16.1456229752  MEMB      160             0.0000000000
     18414       160  SAPI      C3            -29.7994393296      -17.9985754858      -17.5366553526  MEMB      160             0.0000000000
     18415       160  SAPI      HX            -28.9398515405      -18.6948986115      -17.3723742972  MEMB      160             0.0000000000
     18416       160  SAPI      HY            -30.5292834417      -18.5324275707      -18.1924734271  MEMB      160             0.0000000000
     18417       160  SAPI      O31           -30.3729436420      -17.5698675169      -16.2948771276  MEMB      160             0.0000000000
     18418       160  SAPI      C31           -30.4258280725      -18.5220131156      -15.4558983973  MEMB      160             0.0000000000
     18419       160  SAPI      O32           -30.0911323848      -19.6454295739      -15.6247994430  MEMB      160             0.0000000000
     18420       160  SAPI      C32           -30.9446342676      -18.1155275131      -14.1885595181  MEMB      160             0.0000000000
     18421       160  SAPI      H2X           -31.6758892189      -18.8306739866      -13.8858523680  MEMB      160             0.0000000000
     18422       160  SAPI      H2Y           -31.3464844642      -17.1035608766      -14.3172147559  MEMB      160             0.0000000000
     18423       160  SAPI      C23           -27.8732092188      -13.3144215348      -15.2522166530  MEMB      160             0.0000000000
     18424       160  SAPI      H3R           -28.8416722634      -13.2398590807      -14.6794256972  MEMB      160             0.0000000000
     18425       160  SAPI      H3S           -27.7616133413      -12.5273789723      -16.0348433866  MEMB      160             0.0000000000
     18426       160  SAPI      C24           -26.8139971813      -13.0512078834      -14.2766345267  MEMB      160             0.0000000000
     18427       160  SAPI      H4R           -27.3459364778      -12.0787391713      -14.1835265355  MEMB      160             0.0000000000
     18428       160  SAPI      H4S           -25.8316641892      -12.7647044690      -14.7254773360  MEMB      160             0.0000000000
     18429       160  SAPI      C25           -26.6855067937      -14.0490965084      -13.1123217667  MEMB      160             0.0000000000
     18430       160  SAPI      H5R           -25.7892286580      -14.6355950520      -13.1316200284  MEMB      160             0.0000000000
     18431       160  SAPI      C26           -27.3294480763      -14.2559176085      -11.9541904994  MEMB      160             0.0000000000
     18432       160  SAPI      H6R           -26.8717683156      -14.3956962670      -10.9527410200  MEMB      160             0.0000000000
     18433       160  SAPI      C27           -28.3577833378      -13.6099466342      -11.3857958399  MEMB      160             0.0000000000
     18434       160  SAPI      H7R           -27.7031728156      -12.7962601643      -11.4728371951  MEMB      160             0.0000000000
     18435       160  SAPI      H7S           -28.0766208907      -13.1943654472      -10.4647557289  MEMB      160             0.0000000000
     18436       160  SAPI      C28           -29.7845561682      -13.6233789760      -11.6110302582  MEMB      160             0.0000000000
     18437       160  SAPI      H8R           -30.2805090962      -12.7031236093      -12.0622732005  MEMB      160             0.0000000000
     18438       160  SAPI      C29           -30.1236702868      -13.9130493848      -10.3605812925  MEMB      160             0.0000000000
     18439       160  SAPI      H9R           -31.0747608333      -14.3553195328      -10.4233121103  MEMB      160             0.0000000000
     18440       160  SAPI      C210          -29.3968214384      -14.1468873960       -9.0090579818  MEMB      160             0.0000000000
     18441       160  SAPI      H10R          -28.7009330705      -13.3498000865       -8.6470693829  MEMB      160             0.0000000000
     18442       160  SAPI      H10S          -28.7828350114      -15.0022875682       -9.2531235348  MEMB      160             0.0000000000
     18443       160  SAPI      C211          -30.2544219419      -14.3526408970       -7.8102846996  MEMB      160             0.0000000000
     18444       160  SAPI      H11R          -30.5816884295      -13.4864402581       -7.2364315429  MEMB      160             0.0000000000
     18445       160  SAPI      C212          -30.6484698325      -15.4429704361       -7.2343610019  MEMB      160             0.0000000000
     18446       160  SAPI      H12R          -31.6220928724      -15.4025915149       -6.6919881739  MEMB      160             0.0000000000
     18447       160  SAPI      C213          -30.2092095925      -16.7294288387       -7.7434960322  MEMB      160             0.0000000000
     18448       160  SAPI      H13R          -29.1364545360      -16.6408884410       -8.0281268435  MEMB      160             0.0000000000
     18449       160  SAPI      H13S          -30.7678682858      -17.1178114151       -8.6286145288  MEMB      160             0.0000000000
     18450       160  SAPI      C214          -30.4749697745      -17.4144188904       -6.4274991720  MEMB      160             0.0000000000
     18451       160  SAPI      H14R          -31.0997749264      -18.2598319908       -6.5996061854  MEMB      160             0.0000000000
     18452       160  SAPI      C215          -29.6859221561      -17.5814145521       -5.3539373278  MEMB      160             0.0000000000
     18453       160  SAPI      H15R          -29.9421019922      -18.4301034946       -4.7074544805  MEMB      160             0.0000000000
     18454       160  SAPI      C216          -28.2728320233      -17.0781169659       -5.2532960590  MEMB      160             0.0000000000
     18455       160  SAPI      H16R          -28.4552682904      -16.0510903993       -5.1995727447  MEMB      160             0.0000000000
     18456       160  SAPI      H16S          -27.5351191876      -17.2118499555       -6.0909230097  MEMB      160             0.0000000000
     18457       160  SAPI      C217          -27.4957298151      -17.3440462612       -4.0122807190  MEMB      160             0.0000000000
     18458       160  SAPI      H17R          -28.0560063363      -17.1447929985       -3.0887702482  MEMB      160             0.0000000000
     18459       160  SAPI      H17S          -26.4694793664      -16.9016779609       -4.0859743187  MEMB      160             0.0000000000
     18460       160  SAPI      C218          -27.2157329328      -18.7055995366       -3.7409818512  MEMB      160             0.0000000000
     18461       160  SAPI      H18R          -26.3184737390      -18.8978733266       -4.3619416285  MEMB      160             0.0000000000
     18462       160  SAPI      H18S          -27.9985382684      -19.4538927947       -3.9197604273  MEMB      160             0.0000000000
     18463       160  SAPI      C219          -26.7967609405      -18.8734101873       -2.3378061626  MEMB      160             0.0000000000
     18464       160  SAPI      H19R          -27.0468397976      -19.9942583506       -2.3679600624  MEMB      160             0.0000000000
     18465       160  SAPI      H19S          -27.3597772484      -18.8738808914       -1.4208278258  MEMB      160             0.0000000000
     18466       160  SAPI      C220          -25.3655580409      -18.1771646761       -2.1463605088  MEMB      160             0.0000000000
     18467       160  SAPI      H20R          -24.8406119339      -18.4519351571       -1.1976057381  MEMB      160             0.0000000000
     18468       160  SAPI      H20S          -25.1254375747      -17.2351854318       -2.6164437179  MEMB      160             0.0000000000
     18469       160  SAPI      H20T          -24.6028638680      -18.5648526601       -2.8565204979  MEMB      160             0.0000000000
     18470       160  SAPI      C33           -30.0590708717      -18.3678494279      -13.0504484245  MEMB      160             0.0000000000
     18471       160  SAPI      H3X           -29.9107003471      -19.4669855047      -12.8873466416  MEMB      160             0.0000000000
     18472       160  SAPI      H3Y           -30.5800893013      -17.9673940336      -12.1498511934  MEMB      160             0.0000000000
     18473       160  SAPI      C34           -28.9065794731      -17.5362692003      -13.4732259581  MEMB      160             0.0000000000
     18474       160  SAPI      H4X           -29.2973104448      -16.5789626538      -13.9139334762  MEMB      160             0.0000000000
     18475       160  SAPI      H4Y           -28.3103652349      -18.0720004777      -14.2469827512  MEMB      160             0.0000000000
     18476       160  SAPI      C35           -28.0859081624      -17.2084777142      -12.3076601658  MEMB      160             0.0000000000
     18477       160  SAPI      H5X           -28.6505712946      -16.5642369030      -11.5929612616  MEMB      160             0.0000000000
     18478       160  SAPI      H5Y           -27.2002954581      -16.6689571032      -12.6885721649  MEMB      160             0.0000000000
     18479       160  SAPI      C36           -27.6284422979      -18.4103686296      -11.5607791837  MEMB      160             0.0000000000
     18480       160  SAPI      H6X           -27.0126997463      -19.0760181188      -12.2011155253  MEMB      160             0.0000000000
     18481       160  SAPI      H6Y           -28.4713635256      -19.0659303269      -11.2374613775  MEMB      160             0.0000000000
     18482       160  SAPI      C37           -26.8976425894      -17.8052949825      -10.3579472280  MEMB      160             0.0000000000
     18483       160  SAPI      H7X           -26.4308088917      -18.6744577319       -9.9784286305  MEMB      160             0.0000000000
     18484       160  SAPI      H7Y           -27.5843379701      -17.4187690933       -9.5946170377  MEMB      160             0.0000000000
     18485       160  SAPI      C38           -25.8254427992      -16.7488963419      -10.5531895831  MEMB      160             0.0000000000
     18486       160  SAPI      H8X           -26.1451570998      -15.8589283422      -10.8869296350  MEMB      160             0.0000000000
     18487       160  SAPI      H8Y           -25.3634223622      -17.0023228664      -11.4710226405  MEMB      160             0.0000000000
     18488       160  SAPI      C39           -24.7785779960      -16.4793258642       -9.4801810699  MEMB      160             0.0000000000
     18489       160  SAPI      H9X           -23.8360742643      -16.0324303629       -9.8732098631  MEMB      160             0.0000000000
     18490       160  SAPI      H9Y           -24.4217008080      -17.4245983778       -9.1168393361  MEMB      160             0.0000000000
     18491       160  SAPI      C310          -25.3823882067      -16.0660113562       -8.1871140583  MEMB      160             0.0000000000
     18492       160  SAPI      H10X          -25.7381572404      -16.9770661008       -7.6502889324  MEMB      160             0.0000000000
     18493       160  SAPI      H10Y          -26.2355911067      -15.4232429431       -8.4757728959  MEMB      160             0.0000000000
     18494       160  SAPI      C311          -24.3692215677      -15.4052844361       -7.2944911671  MEMB      160             0.0000000000
     18495       160  SAPI      H11X          -24.1437365127      -14.5528627543       -7.8289377763  MEMB      160             0.0000000000
     18496       160  SAPI      H11Y          -23.3191132280      -15.7262176530       -7.3032904821  MEMB      160             0.0000000000
     18497       160  SAPI      C312          -24.8278853989      -15.0337486358       -5.9161168777  MEMB      160             0.0000000000
     18498       160  SAPI      H12X          -24.2309085957      -14.2392392117       -5.4142797481  MEMB      160             0.0000000000
     18499       160  SAPI      H12Y          -24.7770094603      -15.8973015375       -5.2330303343  MEMB      160             0.0000000000
     18500       160  SAPI      C313          -26.1760037329      -14.4303871897       -5.9931013352  MEMB      160             0.0000000000
     18501       160  SAPI      H13X          -26.9428449764      -15.0890577394       -6.4273045762  MEMB      160             0.0000000000
     18502       160  SAPI      H13Y          -26.1525602475      -13.5498697144       -6.6851016794  MEMB      160             0.0000000000
     18503       160  SAPI      C314          -26.5416105617      -14.1631378271       -4.5535218544  MEMB      160             0.0000000000
     18504       160  SAPI      H14X          -25.8433972422      -13.3995940268       -4.1294241502  MEMB      160             0.0000000000
     18505       160  SAPI      H14Y          -26.3859158540      -14.9777334711       -3.8421651787  MEMB      160             0.0000000000
     18506       160  SAPI      C315          -28.0186700498      -13.8450777224       -4.5411203530  MEMB      160             0.0000000000
     18507       160  SAPI      H15X          -28.5964708344      -14.3238485838       -5.3439895408  MEMB      160             0.0000000000
     18508       160  SAPI      H15Y          -28.3290119810      -12.9152418919       -5.0593025123  MEMB      160             0.0000000000
     18509       160  SAPI      C316          -28.6248362441      -14.2142434403       -3.1630805715  MEMB      160             0.0000000000
     18510       160  SAPI      H16X          -28.8241395419      -15.2450150547       -3.0235605953  MEMB      160             0.0000000000
     18511       160  SAPI      H16Y          -29.6334014833      -13.9540209570       -3.4621140396  MEMB      160             0.0000000000
     18512       160  SAPI      C317          -27.9787385092      -13.8330898907       -1.7173634596  MEMB      160             0.0000000000
     18513       160  SAPI      H17X          -27.3191827961      -13.1250522626       -2.2437382625  MEMB      160             0.0000000000
     18514       160  SAPI      H17Y          -26.9966111479      -14.2551214180       -1.5642528680  MEMB      160             0.0000000000
     18515       160  SAPI      C318          -28.8193140577      -13.4247594707       -0.2116494106  MEMB      160             0.0000000000
     18516       160  SAPI      H18X          -29.5867922833      -12.5674147454        0.0557545926  MEMB      160             0.0000000000
     18517       160  SAPI      H18Y          -28.4594100795      -12.6496387364        0.5319513638  MEMB      160             0.0000000000
     18518       160  SAPI      H18Z          -29.3248060819      -14.3085669626       -0.1472525770  MEMB      160             0.0000000000
     18519       161  SAPI      C12           -30.8070156836       13.8360131353      -23.2238552542  MEMB      161             0.0000000000
     18520       161  SAPI      H2            -30.6176748723       13.1574578395      -22.3663780270  MEMB      161             0.0000000000
     18521       161  SAPI      O2            -29.5462265202       14.1436803445      -23.8057959528  MEMB      161             0.0000000000
     18522       161  SAPI      HO2           -28.8692733206       13.6500789012      -23.3323706113  MEMB      161             0.0000000000
     18523       161  SAPI      C13           -31.6872677957       13.0546054587      -24.2099719895  MEMB      161             0.0000000000
     18524       161  SAPI      H3            -32.6307804369       12.7237540478      -23.7332124450  MEMB      161             0.0000000000
     18525       161  SAPI      O3            -31.0482544303       11.8780853938      -24.7275996391  MEMB      161             0.0000000000
     18526       161  SAPI      HO3           -31.3818735388       11.0847447590      -24.2943520064  MEMB      161             0.0000000000
     18527       161  SAPI      C14           -32.0526126133       13.9682807302      -25.3461359372  MEMB      161             0.0000000000
     18528       161  SAPI      H4            -31.1278930388       14.3693249410      -25.7316122798  MEMB      161             0.0000000000
     18529       161  SAPI      O4            -32.7190726289       13.2884704449      -26.4188547549  MEMB      161             0.0000000000
     18530       161  SAPI      HO4           -32.2261894647       12.4759476522      -26.5810904529  MEMB      161             0.0000000000
     18531       161  SAPI      C15           -32.7410574597       15.2056482980      -24.8621223227  MEMB      161             0.0000000000
     18532       161  SAPI      H5            -33.6326870624       14.8627929575      -24.2841775002  MEMB      161             0.0000000000
     18533       161  SAPI      O5            -33.1360074972       16.0248857929      -25.9675661671  MEMB      161             0.0000000000
     18534       161  SAPI      HO5           -34.0831790390       15.9561737999      -26.0592856701  MEMB      161             0.0000000000
     18535       161  SAPI      C16           -31.8483979689       15.9871451155      -23.9053600268  MEMB      161             0.0000000000
     18536       161  SAPI      H6            -30.8921452468       16.2680203881      -24.4166902912  MEMB      161             0.0000000000
     18537       161  SAPI      O6            -32.5204626470       17.2030537736      -23.5749321302  MEMB      161             0.0000000000
     18538       161  SAPI      HO6           -31.9859416112       17.8830985625      -23.9834790584  MEMB      161             0.0000000000
     18539       161  SAPI      C11           -31.4967582499       15.1111372634      -22.7043885750  MEMB      161             0.0000000000
     18540       161  SAPI      H1            -32.4651637466       14.8018400687      -22.2412974060  MEMB      161             0.0000000000
     18541       161  SAPI      P             -30.3358274837       15.0891082908      -20.2874514705  MEMB      161             0.0000000000
     18542       161  SAPI      O13           -29.2848139562       14.0836163295      -20.5715068103  MEMB      161             0.0000000000
     18543       161  SAPI      O14           -31.5525570170       14.6518358511      -19.5853403959  MEMB      161             0.0000000000
     18544       161  SAPI      O12           -30.7233740812       15.8368882317      -21.7234508023  MEMB      161             0.0000000000
     18545       161  SAPI      O11           -29.6261661299       16.2210238008      -19.4759780192  MEMB      161             0.0000000000
     18546       161  SAPI      C1            -28.3496004076       16.7138197200      -19.8755829136  MEMB      161             0.0000000000
     18547       161  SAPI      HA            -27.5721127709       15.9631563823      -19.5974717560  MEMB      161             0.0000000000
     18548       161  SAPI      HB            -28.2878859846       16.8614614347      -20.9818108547  MEMB      161             0.0000000000
     18549       161  SAPI      C2            -28.1255440245       18.0815463611      -19.1575680444  MEMB      161             0.0000000000
     18550       161  SAPI      HS            -27.1193290517       18.4756609446      -19.4646668918  MEMB      161             0.0000000000
     18551       161  SAPI      O21           -28.2969752131       17.9812459673      -17.7388951663  MEMB      161             0.0000000000
     18552       161  SAPI      C21           -27.2513276453       17.6354047455      -17.1270456612  MEMB      161             0.0000000000
     18553       161  SAPI      O22           -26.1572649635       17.5388544163      -17.7018408312  MEMB      161             0.0000000000
     18554       161  SAPI      C22           -27.8642378903       17.0934665066      -15.6937904470  MEMB      161             0.0000000000
     18555       161  SAPI      H2R           -28.3562902351       17.9708151453      -15.2962174629  MEMB      161             0.0000000000
     18556       161  SAPI      H2S           -28.5479617507       16.2332771825      -15.8714780168  MEMB      161             0.0000000000
     18557       161  SAPI      C3            -29.1318000130       19.1656669614      -19.5424360803  MEMB      161             0.0000000000
     18558       161  SAPI      HX            -29.0921028413       19.2833512832      -20.6368756977  MEMB      161             0.0000000000
     18559       161  SAPI      HY            -28.8501737679       20.1346703653      -19.0650542374  MEMB      161             0.0000000000
     18560       161  SAPI      O31           -30.4553509721       18.7518052190      -19.1894927255  MEMB      161             0.0000000000
     18561       161  SAPI      C31           -30.9441255486       19.1043330701      -18.0214618841  MEMB      161             0.0000000000
     18562       161  SAPI      O32           -30.4919781611       19.9524862068      -17.2670048055  MEMB      161             0.0000000000
     18563       161  SAPI      C32           -32.3023955586       18.4268553777      -17.8860896323  MEMB      161             0.0000000000
     18564       161  SAPI      H2X           -32.3478322554       17.5171779828      -18.5200124103  MEMB      161             0.0000000000
     18565       161  SAPI      H2Y           -33.0558996772       19.1364757030      -18.2951940878  MEMB      161             0.0000000000
     18566       161  SAPI      C23           -27.1087224143       16.5583561684      -14.4371720805  MEMB      161             0.0000000000
     18567       161  SAPI      H3R           -26.3337417671       17.2957506667      -14.2761133503  MEMB      161             0.0000000000
     18568       161  SAPI      H3S           -26.8354358220       15.6203285048      -14.8895233593  MEMB      161             0.0000000000
     18569       161  SAPI      C24           -27.5379568092       15.6305857949      -13.2204079334  MEMB      161             0.0000000000
     18570       161  SAPI      H4R           -27.8561073009       14.6739713818      -13.6771676189  MEMB      161             0.0000000000
     18571       161  SAPI      H4S           -28.3374730804       16.2959808511      -12.9201476799  MEMB      161             0.0000000000
     18572       161  SAPI      C25           -26.6645571892       15.2033689464      -12.0228420030  MEMB      161             0.0000000000
     18573       161  SAPI      H5R           -25.7870283390       14.5152260676      -12.1802787351  MEMB      161             0.0000000000
     18574       161  SAPI      C26           -26.4750584068       15.9765305764      -10.9610837164  MEMB      161             0.0000000000
     18575       161  SAPI      H6R           -25.5192631530       15.9122070525      -10.4545866100  MEMB      161             0.0000000000
     18576       161  SAPI      C27           -27.0667274584       17.2968136599      -10.7766774175  MEMB      161             0.0000000000
     18577       161  SAPI      H7R           -26.7811988671       17.5690215752       -9.7442041382  MEMB      161             0.0000000000
     18578       161  SAPI      H7S           -28.1078607126       16.9515596701      -10.7865352702  MEMB      161             0.0000000000
     18579       161  SAPI      C28           -26.9317190964       18.5041329544      -11.6864853085  MEMB      161             0.0000000000
     18580       161  SAPI      H8R           -26.1235568853       18.6326917823      -12.4030412852  MEMB      161             0.0000000000
     18581       161  SAPI      C29           -27.7905599534       19.5039254287      -11.7210382925  MEMB      161             0.0000000000
     18582       161  SAPI      H9R           -27.6059876991       20.3331895160      -12.4156142146  MEMB      161             0.0000000000
     18583       161  SAPI      C210          -29.0198763335       19.6722153130      -10.9208102756  MEMB      161             0.0000000000
     18584       161  SAPI      H10R          -29.3808571866       20.5984848848      -11.3508820880  MEMB      161             0.0000000000
     18585       161  SAPI      H10S          -28.8131489862       19.8505388604       -9.8386175124  MEMB      161             0.0000000000
     18586       161  SAPI      C211          -30.0590244421       18.6291670068      -11.1684674861  MEMB      161             0.0000000000
     18587       161  SAPI      H11R          -30.3000490702       18.4328084527      -12.2260702856  MEMB      161             0.0000000000
     18588       161  SAPI      C212          -30.7384485190       17.9991918827      -10.2072431503  MEMB      161             0.0000000000
     18589       161  SAPI      H12R          -31.4399885958       17.2285019712      -10.5226513568  MEMB      161             0.0000000000
     18590       161  SAPI      C213          -30.6245606747       18.1879573829       -8.7150529280  MEMB      161             0.0000000000
     18591       161  SAPI      H13R          -31.5586246422       17.7831272225       -8.2693892171  MEMB      161             0.0000000000
     18592       161  SAPI      H13S          -30.6237433464       19.2736005916       -8.4703232386  MEMB      161             0.0000000000
     18593       161  SAPI      C214          -29.4458250398       17.5754239103       -8.0047588163  MEMB      161             0.0000000000
     18594       161  SAPI      H14R          -28.6507236364       17.1593380047       -8.6405904023  MEMB      161             0.0000000000
     18595       161  SAPI      C215          -29.3124447352       17.5728534877       -6.6657855687  MEMB      161             0.0000000000
     18596       161  SAPI      H15R          -28.4218738668       17.1217065995       -6.2017255320  MEMB      161             0.0000000000
     18597       161  SAPI      C216          -30.3112144832       18.1784652135       -5.7124607649  MEMB      161             0.0000000000
     18598       161  SAPI      H16R          -31.0178510521       18.8588025150       -6.2368901188  MEMB      161             0.0000000000
     18599       161  SAPI      H16S          -29.7845756215       18.8419743171       -4.9947855019  MEMB      161             0.0000000000
     18600       161  SAPI      C217          -31.1097756864       17.1311035329       -4.9166200218  MEMB      161             0.0000000000
     18601       161  SAPI      H17R          -31.4709321132       16.2967693700       -5.5556309874  MEMB      161             0.0000000000
     18602       161  SAPI      H17S          -32.0209515936       17.6434243572       -4.5254733189  MEMB      161             0.0000000000
     18603       161  SAPI      C218          -30.2984086424       16.5597185979       -3.7461986541  MEMB      161             0.0000000000
     18604       161  SAPI      H18R          -29.7640580163       17.4209619461       -3.2644552242  MEMB      161             0.0000000000
     18605       161  SAPI      H18S          -29.5186387407       15.8517757479       -4.0765318865  MEMB      161             0.0000000000
     18606       161  SAPI      C219          -31.1792714976       15.8199634925       -2.7397063135  MEMB      161             0.0000000000
     18607       161  SAPI      H19R          -31.6871764571       14.9091315794       -3.0622831053  MEMB      161             0.0000000000
     18608       161  SAPI      H19S          -32.0875179725       16.4556774723       -2.6778233618  MEMB      161             0.0000000000
     18609       161  SAPI      C220          -30.4354381314       15.6015007187       -1.4087357130  MEMB      161             0.0000000000
     18610       161  SAPI      H20R          -29.8388308620       14.6959534480       -1.3343382238  MEMB      161             0.0000000000
     18611       161  SAPI      H20S          -31.1134647445       15.5665872301       -0.6318798595  MEMB      161             0.0000000000
     18612       161  SAPI      H20T          -29.8806082017       16.4704344422       -1.0154056992  MEMB      161             0.0000000000
     18613       161  SAPI      C33           -32.6301452706       18.0666226005      -16.4244393323  MEMB      161             0.0000000000
     18614       161  SAPI      H3X           -33.6839845909       17.7010647061      -16.4217147086  MEMB      161             0.0000000000
     18615       161  SAPI      H3Y           -32.5694686913       18.9824157547      -15.7970311478  MEMB      161             0.0000000000
     18616       161  SAPI      C34           -31.7840261547       16.9474154006      -15.7859701765  MEMB      161             0.0000000000
     18617       161  SAPI      H4X           -30.7091275705       17.2269031592      -15.7584731395  MEMB      161             0.0000000000
     18618       161  SAPI      H4Y           -31.8839627889       16.0167807084      -16.3968575058  MEMB      161             0.0000000000
     18619       161  SAPI      C35           -32.2636109758       16.6531807479      -14.3508068900  MEMB      161             0.0000000000
     18620       161  SAPI      H5X           -33.3651868798       16.4793680039      -14.4103540299  MEMB      161             0.0000000000
     18621       161  SAPI      H5Y           -32.0879913244       17.5388379480      -13.7042536654  MEMB      161             0.0000000000
     18622       161  SAPI      C36           -31.5816736318       15.4370059060      -13.7062606462  MEMB      161             0.0000000000
     18623       161  SAPI      H6X           -30.4917996585       15.6201828222      -13.5588503006  MEMB      161             0.0000000000
     18624       161  SAPI      H6Y           -31.7079582122       14.5743047903      -14.3961591046  MEMB      161             0.0000000000
     18625       161  SAPI      C37           -32.1463938501       15.0859186174      -12.3264950922  MEMB      161             0.0000000000
     18626       161  SAPI      H7X           -33.2271220876       15.3421011637      -12.2611389330  MEMB      161             0.0000000000
     18627       161  SAPI      H7Y           -31.6088920612       15.7326845291      -11.6154140969  MEMB      161             0.0000000000
     18628       161  SAPI      C38           -31.9384367027       13.6168520448      -11.9448339232  MEMB      161             0.0000000000
     18629       161  SAPI      H8X           -30.9129196021       13.2489274414      -12.1205882251  MEMB      161             0.0000000000
     18630       161  SAPI      H8Y           -32.6239748498       12.9977833606      -12.5813445201  MEMB      161             0.0000000000
     18631       161  SAPI      C39           -32.1274697835       13.3156540827      -10.4613726533  MEMB      161             0.0000000000
     18632       161  SAPI      H9X           -32.1777748595       12.2201198998      -10.2753416237  MEMB      161             0.0000000000
     18633       161  SAPI      H9Y           -33.0574107689       13.7776777700      -10.2168068094  MEMB      161             0.0000000000
     18634       161  SAPI      C310          -31.6751758402       14.2182585860       -9.3297689477  MEMB      161             0.0000000000
     18635       161  SAPI      H10X          -31.9907667976       13.7414209507       -8.3651482127  MEMB      161             0.0000000000
     18636       161  SAPI      H10Y          -32.1927209821       15.2089559540       -9.3953238069  MEMB      161             0.0000000000
     18637       161  SAPI      C311          -30.2236698045       14.4571238629       -9.3371052726  MEMB      161             0.0000000000
     18638       161  SAPI      H11X          -30.0365385648       15.0433066899       -8.4233508712  MEMB      161             0.0000000000
     18639       161  SAPI      H11Y          -29.9000362206       15.0399508597      -10.2244581722  MEMB      161             0.0000000000
     18640       161  SAPI      C312          -29.5116982498       13.1471420737       -9.2861129847  MEMB      161             0.0000000000
     18641       161  SAPI      H12X          -29.5800978748       12.7034053245      -10.2922911255  MEMB      161             0.0000000000
     18642       161  SAPI      H12Y          -30.0514326867       12.4112247277       -8.6565285408  MEMB      161             0.0000000000
     18643       161  SAPI      C313          -28.1458797132       13.4010728224       -8.6991806318  MEMB      161             0.0000000000
     18644       161  SAPI      H13X          -27.4904444262       14.0639123487       -9.2978396357  MEMB      161             0.0000000000
     18645       161  SAPI      H13Y          -27.4043226733       12.5919169616       -8.6442184062  MEMB      161             0.0000000000
     18646       161  SAPI      C314          -28.3091844549       13.7347415934       -7.2502072184  MEMB      161             0.0000000000
     18647       161  SAPI      H14X          -28.5370002852       14.8222386362       -7.2254364959  MEMB      161             0.0000000000
     18648       161  SAPI      H14Y          -27.3219488807       13.3199016709       -6.9298235894  MEMB      161             0.0000000000
     18649       161  SAPI      C315          -29.2092582393       13.2478425828       -6.1496460996  MEMB      161             0.0000000000
     18650       161  SAPI      H15X          -30.1387108719       13.0178979541       -6.6744548652  MEMB      161             0.0000000000
     18651       161  SAPI      H15Y          -29.3555443782       13.9830709918       -5.3343652410  MEMB      161             0.0000000000
     18652       161  SAPI      C316          -28.5657694398       12.1463273107       -5.3819371094  MEMB      161             0.0000000000
     18653       161  SAPI      H16X          -27.4460525484       12.0325736836       -5.4786286115  MEMB      161             0.0000000000
     18654       161  SAPI      H16Y          -29.1384045223       11.4636943912       -6.0327582864  MEMB      161             0.0000000000
     18655       161  SAPI      C317          -29.1599830058       11.5417575103       -4.1426317116  MEMB      161             0.0000000000
     18656       161  SAPI      H17X          -28.8170165279       10.5206519690       -4.0038169819  MEMB      161             0.0000000000
     18657       161  SAPI      H17Y          -30.2465696009       11.4749482014       -4.2949986514  MEMB      161             0.0000000000
     18658       161  SAPI      C318          -28.8539167287       12.2871865011       -2.9081888675  MEMB      161             0.0000000000
     18659       161  SAPI      H18X          -28.8857214095       13.3550878450       -3.2156943060  MEMB      161             0.0000000000
     18660       161  SAPI      H18Y          -27.8851736758       11.9985335923       -2.4632424888  MEMB      161             0.0000000000
     18661       161  SAPI      H18Z          -29.5651702451       12.0188199216       -2.1213605715  MEMB      161             0.0000000000
     18662       162  SOPE      N              30.9944381426       13.6301831971      -22.8062873916  MEMB      162             0.0000000000
     18663       162  SOPE      HN1            30.4520411847       13.4656230554      -21.9237613844  MEMB      162             0.0000000000
     18664       162  SOPE      HN2            30.2838629195       13.8284937675      -23.5411281962  MEMB      162             0.0000000000
     18665       162  SOPE      HN3            31.5539887506       12.7900998823      -23.0525147977  MEMB      162             0.0000000000
     18666       162  SOPE      C12            31.9015874058       14.8093417221      -22.6185198804  MEMB      162             0.0000000000
     18667       162  SOPE      H12A           32.2540524323       15.1432841366      -23.6176999941  MEMB      162             0.0000000000
     18668       162  SOPE      H12B           32.7610567024       14.4598955403      -22.0072555357  MEMB      162             0.0000000000
     18669       162  SOPE      C11            31.1544884750       15.9832136311      -21.9851577319  MEMB      162             0.0000000000
     18670       162  SOPE      H11A           30.2646436644       16.2538873314      -22.6080161899  MEMB      162             0.0000000000
     18671       162  SOPE      H11B           31.8185827263       16.8536982493      -22.0462871473  MEMB      162             0.0000000000
     18672       162  SOPE      P              29.3394440925       15.5706234117      -20.1510014830  MEMB      162             0.0000000000
     18673       162  SOPE      O13            28.7474616546       14.7782853535      -21.2598389999  MEMB      162             0.0000000000
     18674       162  SOPE      O14            28.7357556769       16.8453986087      -19.7607228301  MEMB      162             0.0000000000
     18675       162  SOPE      O12            30.8680932632       15.7433320996      -20.6055450731  MEMB      162             0.0000000000
     18676       162  SOPE      O11            29.4994820761       14.6500125534      -18.8784474170  MEMB      162             0.0000000000
     18677       162  SOPE      C1             30.7116387484       14.4143825902      -18.1766750379  MEMB      162             0.0000000000
     18678       162  SOPE      HA             31.4224462658       15.2662588149      -18.2513822595  MEMB      162             0.0000000000
     18679       162  SOPE      HB             31.1947089118       13.5030131476      -18.5929440656  MEMB      162             0.0000000000
     18680       162  SOPE      C2             30.4871027993       14.1169003732      -16.6730681039  MEMB      162             0.0000000000
     18681       162  SOPE      HS             30.3397760732       13.0074947664      -16.5991848488  MEMB      162             0.0000000000
     18682       162  SOPE      O21            29.3953842290       14.8615873117      -16.0848411216  MEMB      162             0.0000000000
     18683       162  SOPE      C21            28.6078554248       14.1739889120      -15.2581895379  MEMB      162             0.0000000000
     18684       162  SOPE      O22            28.7253612046       12.9918110338      -14.9916381510  MEMB      162             0.0000000000
     18685       162  SOPE      C22            27.6285366730       15.1203763493      -14.5920208311  MEMB      162             0.0000000000
     18686       162  SOPE      H2R            26.9434541714       15.5136898121      -15.3744034644  MEMB      162             0.0000000000
     18687       162  SOPE      H2S            28.1539015308       15.9746307944      -14.1243805693  MEMB      162             0.0000000000
     18688       162  SOPE      C3             31.7253087828       14.3881264650      -15.8427883159  MEMB      162             0.0000000000
     18689       162  SOPE      HX             31.9497530750       15.4194800885      -15.6893899340  MEMB      162             0.0000000000
     18690       162  SOPE      HY             32.6582042992       13.9678216978      -16.2664095417  MEMB      162             0.0000000000
     18691       162  SOPE      O31            31.3574166333       13.8245156120      -14.6181871352  MEMB      162             0.0000000000
     18692       162  SOPE      C31            31.3799184104       14.5871907031      -13.5880027266  MEMB      162             0.0000000000
     18693       162  SOPE      O32            31.9827732184       15.6226427654      -13.4720363545  MEMB      162             0.0000000000
     18694       162  SOPE      C32            30.7430164651       13.8043180710      -12.5094060139  MEMB      162             0.0000000000
     18695       162  SOPE      H2X            31.5629975305       13.1426268566      -12.6142666060  MEMB      162             0.0000000000
     18696       162  SOPE      H2Y            29.9745641751       13.0868378372      -12.6726949527  MEMB      162             0.0000000000
     18697       162  SOPE      C23            26.7779188347       14.3452148632      -13.5866071981  MEMB      162             0.0000000000
     18698       162  SOPE      H3R            26.4202310293       13.4143475721      -14.0637281320  MEMB      162             0.0000000000
     18699       162  SOPE      H3S            25.9236820774       15.0091900737      -13.3357541446  MEMB      162             0.0000000000
     18700       162  SOPE      C24            27.4185176507       13.9730449739      -12.2644667150  MEMB      162             0.0000000000
     18701       162  SOPE      H4R            28.0114452756       13.0344293984      -12.3521777590  MEMB      162             0.0000000000
     18702       162  SOPE      H4S            28.0926341154       14.8020525630      -11.9681828920  MEMB      162             0.0000000000
     18703       162  SOPE      C25            26.3232237832       13.8472810221      -11.2100955339  MEMB      162             0.0000000000
     18704       162  SOPE      H5R            25.7441556617       14.8002527507      -11.2100334840  MEMB      162             0.0000000000
     18705       162  SOPE      H5S            25.6233027271       13.0183944754      -11.4524541617  MEMB      162             0.0000000000
     18706       162  SOPE      C26            26.8494051195       13.5822272786       -9.8149458778  MEMB      162             0.0000000000
     18707       162  SOPE      H6R            27.4109192369       14.4748244684       -9.4571506020  MEMB      162             0.0000000000
     18708       162  SOPE      H6S            25.9618888557       13.3913203225       -9.1721734695  MEMB      162             0.0000000000
     18709       162  SOPE      C27            27.6920776766       12.3168675755       -9.7302521649  MEMB      162             0.0000000000
     18710       162  SOPE      H7R            27.0609066076       11.4708637887      -10.0676959780  MEMB      162             0.0000000000
     18711       162  SOPE      H7S            28.5489392373       12.4141566392      -10.4295243640  MEMB      162             0.0000000000
     18712       162  SOPE      C28            28.1209111938       11.9697460488       -8.3152993781  MEMB      162             0.0000000000
     18713       162  SOPE      H8R            27.3264492907       12.1684984237       -7.5667711110  MEMB      162             0.0000000000
     18714       162  SOPE      H8S            28.5009769061       10.9429972622       -8.2203649397  MEMB      162             0.0000000000
     18715       162  SOPE      C29            29.2609610187       12.7896018058       -8.0009228676  MEMB      162             0.0000000000
     18716       162  SOPE      H91            30.2101241225       12.6315897250       -8.5616670782  MEMB      162             0.0000000000
     18717       162  SOPE      C210           29.3327221184       13.4844027124       -6.9124178296  MEMB      162             0.0000000000
     18718       162  SOPE      H101           30.2619740735       13.9135735451       -7.1033076302  MEMB      162             0.0000000000
     18719       162  SOPE      C211           28.5406150384       13.8079958578       -5.6411676435  MEMB      162             0.0000000000
     18720       162  SOPE      H11R           27.5104787900       13.5079038589       -5.8709516322  MEMB      162             0.0000000000
     18721       162  SOPE      H11S           28.5205047693       14.9026452298       -5.3853092521  MEMB      162             0.0000000000
     18722       162  SOPE      C212           28.8631628103       12.9964515634       -4.3324410229  MEMB      162             0.0000000000
     18723       162  SOPE      H12R           28.9449584118       11.9209447823       -4.5816797294  MEMB      162             0.0000000000
     18724       162  SOPE      H12S           28.1704918389       13.2456319073       -3.5098318594  MEMB      162             0.0000000000
     18725       162  SOPE      C213           30.0747882301       13.2528648229       -3.4881600929  MEMB      162             0.0000000000
     18726       162  SOPE      H13R           30.7992501107       12.7098842672       -4.1275253345  MEMB      162             0.0000000000
     18727       162  SOPE      H13S           30.4631215658       12.5120298976       -2.7869212974  MEMB      162             0.0000000000
     18728       162  SOPE      C214           30.0894967678       14.7657769551       -3.0282346244  MEMB      162             0.0000000000
     18729       162  SOPE      H14R           29.4789285935       14.7538920493       -2.1214348446  MEMB      162             0.0000000000
     18730       162  SOPE      H14S           29.9156393553       15.6108230638       -3.7334898066  MEMB      162             0.0000000000
     18731       162  SOPE      C215           31.0287023152       15.4664059193       -2.1342344860  MEMB      162             0.0000000000
     18732       162  SOPE      H15R           31.8535200468       15.8211468113       -2.5659831473  MEMB      162             0.0000000000
     18733       162  SOPE      H15S           31.6086626694       14.8125676731       -1.4604584414  MEMB      162             0.0000000000
     18734       162  SOPE      C216           31.1179105330       16.9083371614       -2.3693697417  MEMB      162             0.0000000000
     18735       162  SOPE      H16R           31.6864334617       17.3663091468       -3.2699940314  MEMB      162             0.0000000000
     18736       162  SOPE      H16S           31.8887995054       17.3935248976       -1.9703656779  MEMB      162             0.0000000000
     18737       162  SOPE      C217           30.6436002192       17.1894099563       -0.9689759973  MEMB      162             0.0000000000
     18738       162  SOPE      H17R           29.6540854222       17.1740502068       -1.3619819281  MEMB      162             0.0000000000
     18739       162  SOPE      H17S           31.0919203831       18.1450247470       -0.5527491961  MEMB      162             0.0000000000
     18740       162  SOPE      C218           30.6228021291       16.0711165426        0.1507092043  MEMB      162             0.0000000000
     18741       162  SOPE      H18R           29.9443739569       16.4970425342        0.8452515470  MEMB      162             0.0000000000
     18742       162  SOPE      H18S           31.4999622887       15.9033146535        0.7473194317  MEMB      162             0.0000000000
     18743       162  SOPE      H18T           30.5080910961       14.9875220812       -0.0082727652  MEMB      162             0.0000000000
     18744       162  SOPE      C33            30.6005038820       14.4350263027      -11.1672714483  MEMB      162             0.0000000000
     18745       162  SOPE      H3X            30.1288269850       13.9482799695      -10.2954746298  MEMB      162             0.0000000000
     18746       162  SOPE      H3Y            30.6299173697       15.5369653629      -11.1465249228  MEMB      162             0.0000000000
     18747       162  SOPE      C34            31.7882692867       14.3696700768      -10.6220973715  MEMB      162             0.0000000000
     18748       162  SOPE      H4X            32.5114149017       14.0435245077      -11.4444541673  MEMB      162             0.0000000000
     18749       162  SOPE      H4Y            32.3357466287       13.3307358300      -10.5210518679  MEMB      162             0.0000000000
     18750       162  SOPE      C35            32.0301840095       15.9191031852       -9.5077056199  MEMB      162             0.0000000000
     18751       162  SOPE      H5X            33.1420934414       16.1203276296       -8.9320503903  MEMB      162             0.0000000000
     18752       162  SOPE      H5Y            31.3071181563       15.6098789345       -8.9221580794  MEMB      162             0.0000000000
     18753       162  SOPE      C36            32.4559561209       17.3866540439       -9.3325676140  MEMB      162             0.0000000000
     18754       162  SOPE      H6X            31.5235007719       17.6202824591       -9.7700347326  MEMB      162             0.0000000000
     18755       162  SOPE      H6Y            33.3721988231       17.7089681334       -9.8155359047  MEMB      162             0.0000000000
     18756       162  SOPE      C37            32.8603951610       17.9602750954       -7.9295799979  MEMB      162             0.0000000000
     18757       162  SOPE      H7X            32.9316572779       19.0012849485       -8.2567803923  MEMB      162             0.0000000000
     18758       162  SOPE      H7Y            33.8728633713       17.5867564562       -7.5620169803  MEMB      162             0.0000000000
     18759       162  SOPE      C38            31.8314901946       18.0613314834       -6.8356694695  MEMB      162             0.0000000000
     18760       162  SOPE      H8X            32.1052248144       18.4971187511       -5.8732122456  MEMB      162             0.0000000000
     18761       162  SOPE      H8Y            32.2170232889       17.4023329527       -6.0942743945  MEMB      162             0.0000000000
     18762       162  SOPE      C39            30.3799435205       17.6875734229       -7.2816297038  MEMB      162             0.0000000000
     18763       162  SOPE      H9X            29.7610486954       17.1564149702       -6.5314763404  MEMB      162             0.0000000000
     18764       162  SOPE      H9Y            30.2461222640       17.0253679592       -8.1678566050  MEMB      162             0.0000000000
     18765       162  SOPE      C310           29.7562098503       18.9642659225       -7.5715398602  MEMB      162             0.0000000000
     18766       162  SOPE      H10X           28.7312097275       18.7492658102       -7.9387386430  MEMB      162             0.0000000000
     18767       162  SOPE      H10Y           30.3845304497       19.4110787736       -8.3831116273  MEMB      162             0.0000000000
     18768       162  SOPE      C311           29.8322683759       19.7095424851       -6.2430905632  MEMB      162             0.0000000000
     18769       162  SOPE      H11X           29.5828818145       20.7339869668       -6.4702078514  MEMB      162             0.0000000000
     18770       162  SOPE      H11Y           30.7158005747       19.6653290484       -5.5933229350  MEMB      162             0.0000000000
     18771       162  SOPE      C312           28.6709714392       19.5133647601       -5.3489510666  MEMB      162             0.0000000000
     18772       162  SOPE      H12X           28.4612836873       18.4527991459       -5.1530282950  MEMB      162             0.0000000000
     18773       162  SOPE      H12Y           27.9949454595       19.8881359370       -6.1736144568  MEMB      162             0.0000000000
     18774       162  SOPE      C313           28.6755809333       20.4436653469       -4.0941695923  MEMB      162             0.0000000000
     18775       162  SOPE      H13X           28.5214919058       21.4763960045       -4.5118169388  MEMB      162             0.0000000000
     18776       162  SOPE      H13Y           29.6289033180       20.3150998404       -3.5731030476  MEMB      162             0.0000000000
     18777       162  SOPE      C314           27.6095294682       20.3848912943       -2.9620385294  MEMB      162             0.0000000000
     18778       162  SOPE      H14X           26.6808386179       20.5865570994       -3.3791625115  MEMB      162             0.0000000000
     18779       162  SOPE      H14Y           27.4463326453       21.3369200968       -2.4276989481  MEMB      162             0.0000000000
     18780       162  SOPE      C315           27.4247624327       19.1285333465       -2.1007191254  MEMB      162             0.0000000000
     18781       162  SOPE      H15X           26.6171563451       19.3449059525       -1.3471159761  MEMB      162             0.0000000000
     18782       162  SOPE      H15Y           28.3618893971       18.9589874850       -1.5710857868  MEMB      162             0.0000000000
     18783       162  SOPE      C316           26.9564255851       17.8416343784       -2.7740123141  MEMB      162             0.0000000000
     18784       162  SOPE      H16X           27.7308157875       17.3379029597       -3.3892307687  MEMB      162             0.0000000000
     18785       162  SOPE      H16Y           26.0093396747       17.9559935879       -3.3350985329  MEMB      162             0.0000000000
     18786       162  SOPE      C317           26.4721468949       16.8739279278       -1.7584364773  MEMB      162             0.0000000000
     18787       162  SOPE      H17X           25.4602819564       17.1931861658       -1.3731979991  MEMB      162             0.0000000000
     18788       162  SOPE      H17Y           27.1413611103       16.7048112810       -0.9061311357  MEMB      162             0.0000000000
     18789       162  SOPE      C318           26.2406615446       15.5901408753       -2.4309961302  MEMB      162             0.0000000000
     18790       162  SOPE      H18X           25.4681394544       15.7703694378       -3.1458521284  MEMB      162             0.0000000000
     18791       162  SOPE      H18Y           25.7369835009       15.1366717520       -1.5795548949  MEMB      162             0.0000000000
     18792       162  SOPE      H18Z           26.9454024423       14.9086949275       -2.9273974031  MEMB      162             0.0000000000
     18793       163  SAPC      N              30.4952590817      -15.5876622650      -19.2372209540  MEMB      163             0.0000000000
     18794       163  SAPC      C12            31.0575385034      -16.8435973125      -18.5739972708  MEMB      163             0.0000000000
     18795       163  SAPC      H12A           31.0038365904      -16.7077522490      -17.5035192978  MEMB      163             0.0000000000
     18796       163  SAPC      H12B           32.1166990413      -16.9406112680      -18.8099795843  MEMB      163             0.0000000000
     18797       163  SAPC      C13            31.2664694313      -14.4334266879      -18.7009471913  MEMB      163             0.0000000000
     18798       163  SAPC      H13A           31.1006348433      -14.3604194492      -17.6342969275  MEMB      163             0.0000000000
     18799       163  SAPC      H13B           32.3401824831      -14.5687423842      -18.8635514322  MEMB      163             0.0000000000
     18800       163  SAPC      H13C           30.9644617758      -13.5177747939      -19.1756250121  MEMB      163             0.0000000000
     18801       163  SAPC      C14            30.6969903868      -15.6647635806      -20.7240669735  MEMB      163             0.0000000000
     18802       163  SAPC      H14A           30.4176572935      -16.6510502722      -21.1069088450  MEMB      163             0.0000000000
     18803       163  SAPC      H14B           30.1153004219      -14.9297565177      -21.2554159380  MEMB      163             0.0000000000
     18804       163  SAPC      H14C           31.7438092105      -15.5452498132      -20.9833890797  MEMB      163             0.0000000000
     18805       163  SAPC      C15            29.0403856794      -15.4363104942      -18.9009409090  MEMB      163             0.0000000000
     18806       163  SAPC      H15A           28.6101615812      -14.5187593503      -19.2863300037  MEMB      163             0.0000000000
     18807       163  SAPC      H15B           28.4620430827      -16.2758920011      -19.2973130255  MEMB      163             0.0000000000
     18808       163  SAPC      H15C           28.9348844412      -15.4424722578      -17.8256939181  MEMB      163             0.0000000000
     18809       163  SAPC      C11            30.4219325522      -18.1998613475      -18.9517003286  MEMB      163             0.0000000000
     18810       163  SAPC      H11A           29.3308498683      -18.2095180731      -18.7331058869  MEMB      163             0.0000000000
     18811       163  SAPC      H11B           30.9058090603      -18.9883523945      -18.3294343036  MEMB      163             0.0000000000
     18812       163  SAPC      P              30.5627603804      -19.8388465008      -21.0469753310  MEMB      163             0.0000000000
     18813       163  SAPC      O13            29.1696379478      -20.3363932184      -21.0233880090  MEMB      163             0.0000000000
     18814       163  SAPC      O14            31.2805973883      -19.6991337745      -22.3333733817  MEMB      163             0.0000000000
     18815       163  SAPC      O12            30.6478091335      -18.4290275185      -20.3294880009  MEMB      163             0.0000000000
     18816       163  SAPC      O11            31.3955035892      -20.7841197490      -20.1227066408  MEMB      163             0.0000000000
     18817       163  SAPC      C1             32.7799996361      -21.0289158440      -20.2169627007  MEMB      163             0.0000000000
     18818       163  SAPC      HA             33.0429098955      -21.4414319299      -21.2140553469  MEMB      163             0.0000000000
     18819       163  SAPC      HB             33.3101315522      -20.0705394671      -20.1026996101  MEMB      163             0.0000000000
     18820       163  SAPC      C2             33.3114678687      -21.9573256194      -19.0860549409  MEMB      163             0.0000000000
     18821       163  SAPC      HS             33.1076510488      -23.0106014896      -19.3036595148  MEMB      163             0.0000000000
     18822       163  SAPC      O21            32.8284954072      -21.6099614183      -17.7782168225  MEMB      163             0.0000000000
     18823       163  SAPC      C21            31.5699252253      -21.5882663962      -17.3556841847  MEMB      163             0.0000000000
     18824       163  SAPC      O22            30.5230759844      -21.6997374429      -17.9288098953  MEMB      163             0.0000000000
     18825       163  SAPC      C22            31.5543718890      -21.1770897889      -15.8969801162  MEMB      163             0.0000000000
     18826       163  SAPC      H2R            32.6361585035      -21.2693613608      -15.7020021795  MEMB      163             0.0000000000
     18827       163  SAPC      H2S            31.3201814950      -20.1070731508      -15.8922450285  MEMB      163             0.0000000000
     18828       163  SAPC      C3             34.8620593820      -21.9666240268      -19.0658926449  MEMB      163             0.0000000000
     18829       163  SAPC      HX             35.1941897642      -22.4861940143      -19.9860315796  MEMB      163             0.0000000000
     18830       163  SAPC      HY             35.2280606683      -22.6001931819      -18.2146892676  MEMB      163             0.0000000000
     18831       163  SAPC      O31            35.3607101245      -20.6092494400      -19.0834504744  MEMB      163             0.0000000000
     18832       163  SAPC      C31            35.3038617697      -20.1251840533      -17.8652992593  MEMB      163             0.0000000000
     18833       163  SAPC      O32            35.2026656607      -20.8150572398      -16.8641389403  MEMB      163             0.0000000000
     18834       163  SAPC      C32            35.4666095273      -18.5567601460      -17.9076830674  MEMB      163             0.0000000000
     18835       163  SAPC      H2X            34.8096657143      -18.1031804877      -18.6462923365  MEMB      163             0.0000000000
     18836       163  SAPC      H2Y            36.4869310483      -18.3265275924      -18.2590579493  MEMB      163             0.0000000000
     18837       163  SAPC      C23            30.5425788036      -21.7356060094      -14.8102663256  MEMB      163             0.0000000000
     18838       163  SAPC      H3R            30.7628294656      -21.8925082967      -13.7659144065  MEMB      163             0.0000000000
     18839       163  SAPC      H3S            30.7108916535      -22.8259057881      -14.7581907881  MEMB      163             0.0000000000
     18840       163  SAPC      C24            29.1567001763      -20.9717876406      -14.8616338744  MEMB      163             0.0000000000
     18841       163  SAPC      H4R            28.8660356333      -20.8526321635      -15.9183997781  MEMB      163             0.0000000000
     18842       163  SAPC      H4S            29.2616864134      -19.9572679849      -14.4841987238  MEMB      163             0.0000000000
     18843       163  SAPC      C25            27.9518814590      -21.5626957759      -14.2265495820  MEMB      163             0.0000000000
     18844       163  SAPC      H5R            27.5610637441      -22.4561871824      -14.6175456120  MEMB      163             0.0000000000
     18845       163  SAPC      C26            27.2729403132      -21.2943420047      -13.1860565993  MEMB      163             0.0000000000
     18846       163  SAPC      H6R            26.7557072832      -22.1993252954      -12.8152895265  MEMB      163             0.0000000000
     18847       163  SAPC      C27            27.6281083224      -20.1591730958      -12.2985476248  MEMB      163             0.0000000000
     18848       163  SAPC      H7R            27.5470786348      -20.3952605099      -11.2291853792  MEMB      163             0.0000000000
     18849       163  SAPC      H7S            27.2398137424      -19.2820180003      -12.7343231603  MEMB      163             0.0000000000
     18850       163  SAPC      C28            28.8652989998      -19.5631108109      -12.0793643888  MEMB      163             0.0000000000
     18851       163  SAPC      H8R            29.3878767853      -20.5029396007      -12.2654968269  MEMB      163             0.0000000000
     18852       163  SAPC      C29            29.3663992682      -18.5673674519      -11.2666279364  MEMB      163             0.0000000000
     18853       163  SAPC      H9R            30.4022568444      -18.5826659165      -10.8588656967  MEMB      163             0.0000000000
     18854       163  SAPC      C210           28.6084731044      -17.8161318398      -10.3455492580  MEMB      163             0.0000000000
     18855       163  SAPC      H10R           27.8001118785      -18.5047044101      -10.0525482309  MEMB      163             0.0000000000
     18856       163  SAPC      H10S           28.3936858797      -17.1228885594      -11.1586374296  MEMB      163             0.0000000000
     18857       163  SAPC      C211           29.2175069017      -17.1064796230       -9.1629281061  MEMB      163             0.0000000000
     18858       163  SAPC      H11R           29.7782863257      -16.1921490641       -9.4066187802  MEMB      163             0.0000000000
     18859       163  SAPC      C212           29.2351844944      -17.5448108198       -7.8916765179  MEMB      163             0.0000000000
     18860       163  SAPC      H12R           29.5604323045      -16.8382936293       -7.1096787312  MEMB      163             0.0000000000
     18861       163  SAPC      C213           28.6592577003      -18.8512711302       -7.3934374663  MEMB      163             0.0000000000
     18862       163  SAPC      H13R           28.5722176838      -19.5760544484       -8.2200586784  MEMB      163             0.0000000000
     18863       163  SAPC      H13S           27.6257813556      -18.7629183752       -7.0023538971  MEMB      163             0.0000000000
     18864       163  SAPC      C214           29.5340923472      -19.4632543616       -6.3401758892  MEMB      163             0.0000000000
     18865       163  SAPC      H14R           30.1824311931      -20.2819027429       -6.6899904815  MEMB      163             0.0000000000
     18866       163  SAPC      C215           29.5324761376      -19.1846415840       -5.0291620825  MEMB      163             0.0000000000
     18867       163  SAPC      H15R           30.2238264601      -19.7799791125       -4.4193370547  MEMB      163             0.0000000000
     18868       163  SAPC      C216           28.6600665246      -18.1956346085       -4.2801469963  MEMB      163             0.0000000000
     18869       163  SAPC      H16R           27.8168210606      -17.8180131536       -4.9030886260  MEMB      163             0.0000000000
     18870       163  SAPC      H16S           29.2526321748      -17.3180388709       -3.9287405217  MEMB      163             0.0000000000
     18871       163  SAPC      C217           28.0092375486      -18.7745084641       -3.0120601590  MEMB      163             0.0000000000
     18872       163  SAPC      H17R           27.2106729056      -19.4925342491       -3.3020561431  MEMB      163             0.0000000000
     18873       163  SAPC      H17S           27.5305996399      -17.9148443832       -2.4868293936  MEMB      163             0.0000000000
     18874       163  SAPC      C218           29.0226016541      -19.4369923172       -2.0678929318  MEMB      163             0.0000000000
     18875       163  SAPC      H18R           29.8840352466      -18.7431653413       -1.9244527032  MEMB      163             0.0000000000
     18876       163  SAPC      H18S           29.3904225829      -20.3719036335       -2.5460559687  MEMB      163             0.0000000000
     18877       163  SAPC      C219           28.4868673998      -19.6760782357       -0.6538002256  MEMB      163             0.0000000000
     18878       163  SAPC      H19R           28.1859775537      -18.6689476474       -0.2893730916  MEMB      163             0.0000000000
     18879       163  SAPC      H19S           29.3117934146      -20.0325578537        0.0048950889  MEMB      163             0.0000000000
     18880       163  SAPC      C220           27.2851560338      -20.6137068453       -0.5442551043  MEMB      163             0.0000000000
     18881       163  SAPC      H20R           26.4850159232      -20.2857047692       -1.2394854889  MEMB      163             0.0000000000
     18882       163  SAPC      H20S           26.8730181732      -20.5880439163        0.4882626806  MEMB      163             0.0000000000
     18883       163  SAPC      H20T           27.5657343288      -21.6588151089       -0.7950564840  MEMB      163             0.0000000000
     18884       163  SAPC      C33            35.3034805845      -17.7936046572      -16.5769826613  MEMB      163             0.0000000000
     18885       163  SAPC      H3X            35.7575143840      -16.7836030733      -16.5700496944  MEMB      163             0.0000000000
     18886       163  SAPC      H3Y            35.9238906869      -18.1200593255      -15.7727425716  MEMB      163             0.0000000000
     18887       163  SAPC      C34            33.8493256634      -17.8310104358      -16.1987384428  MEMB      163             0.0000000000
     18888       163  SAPC      H4X            33.3557095420      -18.7801755470      -16.5277957490  MEMB      163             0.0000000000
     18889       163  SAPC      H4Y            33.3718089612      -16.9426645017      -16.6355900501  MEMB      163             0.0000000000
     18890       163  SAPC      C35            33.5586404041      -17.9195550440      -14.7563688853  MEMB      163             0.0000000000
     18891       163  SAPC      H5X            34.1496575136      -18.7413920554      -14.2950755062  MEMB      163             0.0000000000
     18892       163  SAPC      H5Y            32.4518971497      -17.8477545263      -14.5708685759  MEMB      163             0.0000000000
     18893       163  SAPC      C36            34.0378436405      -16.9331208925      -13.8598130676  MEMB      163             0.0000000000
     18894       163  SAPC      H6X            33.5708147709      -16.1252707023      -14.4193987436  MEMB      163             0.0000000000
     18895       163  SAPC      H6Y            35.1225440391      -16.9226113944      -14.0958044342  MEMB      163             0.0000000000
     18896       163  SAPC      C37            33.4666542065      -16.9442348879      -12.3874446311  MEMB      163             0.0000000000
     18897       163  SAPC      H7X            32.4132012892      -16.6412654316      -12.3199169573  MEMB      163             0.0000000000
     18898       163  SAPC      H7Y            33.7674687326      -16.1654943057      -11.6818385693  MEMB      163             0.0000000000
     18899       163  SAPC      C38            34.1264834078      -17.8278696476      -11.3945998657  MEMB      163             0.0000000000
     18900       163  SAPC      H8X            35.2063755498      -17.6862404049      -11.5965128640  MEMB      163             0.0000000000
     18901       163  SAPC      H8Y            33.9509063943      -18.8698040281      -11.5880586718  MEMB      163             0.0000000000
     18902       163  SAPC      C39            33.5542993437      -17.5153196484      -10.0126276210  MEMB      163             0.0000000000
     18903       163  SAPC      H9X            32.4734610979      -17.2954805757      -10.1511247332  MEMB      163             0.0000000000
     18904       163  SAPC      H9Y            34.0590480253      -16.6405956286       -9.5489425083  MEMB      163             0.0000000000
     18905       163  SAPC      C310           33.6527061580      -18.6581706296       -9.0451659197  MEMB      163             0.0000000000
     18906       163  SAPC      H10X           34.6940167022      -18.6420418972       -8.7940237741  MEMB      163             0.0000000000
     18907       163  SAPC      H10Y           33.4661625389      -19.6551036513       -9.4749470574  MEMB      163             0.0000000000
     18908       163  SAPC      C311           33.0637957616      -18.3568061360       -7.6922144251  MEMB      163             0.0000000000
     18909       163  SAPC      H11X           31.9863757626      -18.1384344694       -7.7786058102  MEMB      163             0.0000000000
     18910       163  SAPC      H11Y           33.5859594982      -17.4244854160       -7.3612299638  MEMB      163             0.0000000000
     18911       163  SAPC      C312           33.3638906584      -19.4766837468       -6.7006852062  MEMB      163             0.0000000000
     18912       163  SAPC      H12X           34.4074318544      -19.8266911309       -6.8729661824  MEMB      163             0.0000000000
     18913       163  SAPC      H12Y           32.6810283708      -20.3438044829       -6.8460003333  MEMB      163             0.0000000000
     18914       163  SAPC      C313           33.2414413264      -19.0062858283       -5.2550775624  MEMB      163             0.0000000000
     18915       163  SAPC      H13X           32.2621995289      -18.4874883348       -5.1582113459  MEMB      163             0.0000000000
     18916       163  SAPC      H13Y           34.0464755920      -18.2579036026       -5.0648549252  MEMB      163             0.0000000000
     18917       163  SAPC      C314           33.3659619604      -20.2005793933       -4.2897607636  MEMB      163             0.0000000000
     18918       163  SAPC      H14X           34.4392642540      -20.4884724506       -4.3207642598  MEMB      163             0.0000000000
     18919       163  SAPC      H14Y           32.7773603425      -21.0638802860       -4.6747080313  MEMB      163             0.0000000000
     18920       163  SAPC      C315           32.8671385462      -19.9170685545       -2.8606235374  MEMB      163             0.0000000000
     18921       163  SAPC      H15X           31.8200864050      -19.5462643597       -2.9255764397  MEMB      163             0.0000000000
     18922       163  SAPC      H15Y           33.5104378222      -19.1451752909       -2.3921833797  MEMB      163             0.0000000000
     18923       163  SAPC      C316           32.7895323649      -21.1123080171       -1.9076931301  MEMB      163             0.0000000000
     18924       163  SAPC      H16X           32.1916362933      -20.8011749683       -1.0099300265  MEMB      163             0.0000000000
     18925       163  SAPC      H16Y           33.8076058382      -21.3272788252       -1.5298901823  MEMB      163             0.0000000000
     18926       163  SAPC      C317           32.1988476276      -22.3636047980       -2.5856020117  MEMB      163             0.0000000000
     18927       163  SAPC      H17X           32.8393120333      -22.7885843332       -3.3746552049  MEMB      163             0.0000000000
     18928       163  SAPC      H17Y           31.1170132513      -22.2307128209       -2.8237726155  MEMB      163             0.0000000000
     18929       163  SAPC      C318           32.1319371850      -23.4821994043       -1.6870325961  MEMB      163             0.0000000000
     18930       163  SAPC      H18X           33.0906494468      -23.5431389789       -1.2211852805  MEMB      163             0.0000000000
     18931       163  SAPC      H18Y           31.9109204562      -24.5208852319       -1.8835598022  MEMB      163             0.0000000000
     18932       163  SAPC      H18Z           31.2910814788      -23.1195711589       -1.0621495195  MEMB      163             0.0000000000
     18933       164  CHL1      C3             -3.2944323848       33.3887195933      -17.3928912748  MEMB      164             0.0000000000
     18934       164  CHL1      H3             -2.6283565603       32.6463076581      -17.1378529135  MEMB      164             0.0000000000
     18935       164  CHL1      O3             -3.2674447695       33.6720596009      -18.7733523716  MEMB      164             0.0000000000
     18936       164  CHL1      H3'            -3.1397333070       32.7976758037      -19.1935686635  MEMB      164             0.0000000000
     18937       164  CHL1      C4             -4.5815444362       32.7412005259      -16.9836445356  MEMB      164             0.0000000000
     18938       164  CHL1      H4A            -5.4244310641       33.3414497143      -17.3421546570  MEMB      164             0.0000000000
     18939       164  CHL1      H4B            -4.6624930018       31.7140953808      -17.4427061593  MEMB      164             0.0000000000
     18940       164  CHL1      C5             -4.5724759905       32.7012498861      -15.4968057935  MEMB      164             0.0000000000
     18941       164  CHL1      C6             -5.0967607211       31.6890933647      -14.9350314167  MEMB      164             0.0000000000
     18942       164  CHL1      H6             -5.3222184812       30.8326973738      -15.5958256211  MEMB      164             0.0000000000
     18943       164  CHL1      C7             -5.0125802250       31.6245919160      -13.4566830475  MEMB      164             0.0000000000
     18944       164  CHL1      H7A            -5.7462020513       30.9568972513      -13.0385676838  MEMB      164             0.0000000000
     18945       164  CHL1      H7B            -3.9433506067       31.4322341764      -13.2525086996  MEMB      164             0.0000000000
     18946       164  CHL1      C8             -5.0017448844       32.7285477218      -12.4974760995  MEMB      164             0.0000000000
     18947       164  CHL1      H8             -6.0104297565       33.0725008764      -12.5887544833  MEMB      164             0.0000000000
     18948       164  CHL1      C14            -4.6249901213       32.3326812053      -11.0360074950  MEMB      164             0.0000000000
     18949       164  CHL1      H14            -3.5895894425       31.9526145384      -11.0290623913  MEMB      164             0.0000000000
     18950       164  CHL1      C15            -5.5157264407       31.4242215558      -10.2013915970  MEMB      164             0.0000000000
     18951       164  CHL1      H15A           -6.5693924896       31.3172215227      -10.5638072045  MEMB      164             0.0000000000
     18952       164  CHL1      H15B           -4.8232301363       30.5887190754      -10.2939911409  MEMB      164             0.0000000000
     18953       164  CHL1      C16            -5.6072514358       31.8121460994       -8.7722940130  MEMB      164             0.0000000000
     18954       164  CHL1      H16A           -6.6947852542       31.9630995170       -8.5944742826  MEMB      164             0.0000000000
     18955       164  CHL1      H16B           -5.5801093643       31.2789648863       -7.8822571930  MEMB      164             0.0000000000
     18956       164  CHL1      C17            -4.4516007727       32.8528254780       -8.6956922982  MEMB      164             0.0000000000
     18957       164  CHL1      H17            -3.4342035189       32.5120486013       -8.6549407975  MEMB      164             0.0000000000
     18958       164  CHL1      C13            -4.4674957571       33.4022482214      -10.0804139578  MEMB      164             0.0000000000
     18959       164  CHL1      C18            -5.7231716887       33.7907173243      -10.0055707236  MEMB      164             0.0000000000
     18960       164  CHL1      H18A           -5.8381948454       34.4963706738       -9.2246920649  MEMB      164             0.0000000000
     18961       164  CHL1      H18B           -5.8016048800       34.1849356520      -11.0134535962  MEMB      164             0.0000000000
     18962       164  CHL1      H18C           -6.7090178375       33.3227605996       -9.8265357576  MEMB      164             0.0000000000
     18963       164  CHL1      C12            -3.6267551428       34.5168771904      -10.6617041891  MEMB      164             0.0000000000
     18964       164  CHL1      H12A           -3.6818708068       35.4242111323      -10.0457160702  MEMB      164             0.0000000000
     18965       164  CHL1      H12B           -2.6822265124       33.9819160141      -10.5637337662  MEMB      164             0.0000000000
     18966       164  CHL1      C11            -3.9073970740       34.8995588962      -12.1554759734  MEMB      164             0.0000000000
     18967       164  CHL1      H11A           -4.8428111396       35.4829647125      -12.2939098041  MEMB      164             0.0000000000
     18968       164  CHL1      H11B           -3.0732850427       35.5296875206      -12.4739970158  MEMB      164             0.0000000000
     18969       164  CHL1      C9             -3.9831655719       33.6652798721      -13.0603562860  MEMB      164             0.0000000000
     18970       164  CHL1      H9             -3.0215594397       33.1521199557      -12.8875483040  MEMB      164             0.0000000000
     18971       164  CHL1      C10            -3.9859210880       33.8157472255      -14.6382859915  MEMB      164             0.0000000000
     18972       164  CHL1      C19            -4.9415661974       34.8238622556      -14.9968640126  MEMB      164             0.0000000000
     18973       164  CHL1      H19A           -4.7759369072       35.8440190941      -14.6353773538  MEMB      164             0.0000000000
     18974       164  CHL1      H19B           -5.4550369468       34.8918609769      -15.9921089353  MEMB      164             0.0000000000
     18975       164  CHL1      H19C           -5.6181606204       34.4175159172      -14.2341294457  MEMB      164             0.0000000000
     18976       164  CHL1      C1             -2.7261113974       34.4447600222      -15.0915671760  MEMB      164             0.0000000000
     18977       164  CHL1      H1A            -2.7746910250       35.4994516894      -14.7096336056  MEMB      164             0.0000000000
     18978       164  CHL1      H1B            -1.8918769395       33.9030605424      -14.6218311229  MEMB      164             0.0000000000
     18979       164  CHL1      C2             -2.6795378234       34.5384367058      -16.6077973279  MEMB      164             0.0000000000
     18980       164  CHL1      H2A            -1.6020728656       34.5959006675      -16.8765133141  MEMB      164             0.0000000000
     18981       164  CHL1      H2B            -3.2590597233       35.4038359356      -16.9665401408  MEMB      164             0.0000000000
     18982       164  CHL1      C20            -4.6901768689       33.5994722315       -7.4415574199  MEMB      164             0.0000000000
     18983       164  CHL1      H20            -5.8059179457       33.6128939150       -7.5402276657  MEMB      164             0.0000000000
     18984       164  CHL1      C21            -4.1936361167       35.0648362156       -7.3665796087  MEMB      164             0.0000000000
     18985       164  CHL1      H21A           -3.1377973806       35.0321856300       -7.1126953621  MEMB      164             0.0000000000
     18986       164  CHL1      H21B           -4.5862687935       35.6933815082       -6.5478254371  MEMB      164             0.0000000000
     18987       164  CHL1      H21C           -4.5068683982       35.6586041819       -8.2449494144  MEMB      164             0.0000000000
     18988       164  CHL1      C22            -4.4021284955       32.7674528019       -6.1445027729  MEMB      164             0.0000000000
     18989       164  CHL1      H22A           -5.1201746449       31.8995986804       -6.0901687838  MEMB      164             0.0000000000
     18990       164  CHL1      H22B           -3.3626563253       32.5375126068       -6.3076891512  MEMB      164             0.0000000000
     18991       164  CHL1      C23            -4.3463530956       33.4359379524       -4.7496931970  MEMB      164             0.0000000000
     18992       164  CHL1      H23A           -3.9292587770       34.4520085160       -4.7023738289  MEMB      164             0.0000000000
     18993       164  CHL1      H23B           -5.3071210573       33.5382495987       -4.2533066427  MEMB      164             0.0000000000
     18994       164  CHL1      C24            -4.0411501579       32.5192581700       -3.6399099637  MEMB      164             0.0000000000
     18995       164  CHL1      H24A           -4.7911375179       31.7500330817       -3.4677313294  MEMB      164             0.0000000000
     18996       164  CHL1      H24B           -3.1633966945       31.9997839865       -3.9979167865  MEMB      164             0.0000000000
     18997       164  CHL1      C25            -4.0116630796       33.2639885291       -2.3222268109  MEMB      164             0.0000000000
     18998       164  CHL1      H25            -3.0649031487       33.8531734697       -2.3435609586  MEMB      164             0.0000000000
     18999       164  CHL1      C26            -5.1271251205       34.2026128195       -1.9179579778  MEMB      164             0.0000000000
     19000       164  CHL1      H26A           -4.8139984070       34.5864756214       -0.9278561165  MEMB      164             0.0000000000
     19001       164  CHL1      H26B           -5.1958617259       35.0402636541       -2.6303643780  MEMB      164             0.0000000000
     19002       164  CHL1      H26C           -6.1119799802       33.6943528946       -1.8115715084  MEMB      164             0.0000000000
     19003       164  CHL1      C27            -4.0497763594       32.2311871625       -1.2762359525  MEMB      164             0.0000000000
     19004       164  CHL1      H27A           -4.8627725250       31.7190197487       -0.9008998342  MEMB      164             0.0000000000
     19005       164  CHL1      H27B           -3.5689428463       31.3259447636       -1.7297516140  MEMB      164             0.0000000000
     19006       164  CHL1      H27C           -3.6466403328       32.6286355241       -0.3230884215  MEMB      164             0.0000000000
     19007       165  SAPE      N               5.0630160361      -35.4798286137      -18.0600791556  MEMB      165             0.0000000000
     19008       165  SAPE      HN1             6.0414358271      -35.7903293695      -17.9030794007  MEMB      165             0.0000000000
     19009       165  SAPE      HN2             4.9879321860      -34.4478195345      -18.0892481905  MEMB      165             0.0000000000
     19010       165  SAPE      HN3             4.4521906889      -35.8047966859      -17.2692087538  MEMB      165             0.0000000000
     19011       165  SAPE      C12             4.5383296726      -36.0374607630      -19.3635104516  MEMB      165             0.0000000000
     19012       165  SAPE      H12A            3.8188659017      -36.8497675396      -19.1438849087  MEMB      165             0.0000000000
     19013       165  SAPE      H12B            5.3964574946      -36.4510820028      -19.9307097993  MEMB      165             0.0000000000
     19014       165  SAPE      C11             3.8764999695      -34.9572595101      -20.2286665377  MEMB      165             0.0000000000
     19015       165  SAPE      H11A            3.7671284629      -35.3897917109      -21.2542541114  MEMB      165             0.0000000000
     19016       165  SAPE      H11B            4.5475336656      -34.0688787376      -20.2846623657  MEMB      165             0.0000000000
     19017       165  SAPE      P               1.6875633123      -33.5848329498      -20.5619780052  MEMB      165             0.0000000000
     19018       165  SAPE      O13             1.9549092247      -33.6721383750      -22.0093507433  MEMB      165             0.0000000000
     19019       165  SAPE      O14             0.2793951007      -33.5800938062      -20.0884789519  MEMB      165             0.0000000000
     19020       165  SAPE      O12             2.5948060429      -34.6121245186      -19.7141782593  MEMB      165             0.0000000000
     19021       165  SAPE      O11             2.3699719379      -32.1908371247      -20.1562604087  MEMB      165             0.0000000000
     19022       165  SAPE      C1              2.6151327380      -31.9526479276      -18.7756202207  MEMB      165             0.0000000000
     19023       165  SAPE      HA              1.8590730001      -32.4372641583      -18.1031519129  MEMB      165             0.0000000000
     19024       165  SAPE      HB              3.6165162942      -32.3135524959      -18.4764926673  MEMB      165             0.0000000000
     19025       165  SAPE      C2              2.5225856006      -30.4760961537      -18.4432386325  MEMB      165             0.0000000000
     19026       165  SAPE      HS              3.2951583145      -29.8476567774      -18.9132251646  MEMB      165             0.0000000000
     19027       165  SAPE      O21             2.7737317135      -30.4781689234      -17.0771714206  MEMB      165             0.0000000000
     19028       165  SAPE      C21             2.4582199604      -29.3741210245      -16.5192904102  MEMB      165             0.0000000000
     19029       165  SAPE      O22             2.4388548844      -28.2497771567      -17.0026515519  MEMB      165             0.0000000000
     19030       165  SAPE      C22             2.5748059138      -29.7122276028      -15.0595472404  MEMB      165             0.0000000000
     19031       165  SAPE      H2R             3.4382875546      -30.3958910872      -14.8744008211  MEMB      165             0.0000000000
     19032       165  SAPE      H2S             2.5852274502      -28.5969223529      -14.9110920500  MEMB      165             0.0000000000
     19033       165  SAPE      C3              1.1550244037      -29.8981894045      -18.7998443723  MEMB      165             0.0000000000
     19034       165  SAPE      HX              1.1269933717      -29.7812994188      -19.8956690885  MEMB      165             0.0000000000
     19035       165  SAPE      HY              1.0304026942      -28.8288239776      -18.5036233133  MEMB      165             0.0000000000
     19036       165  SAPE      O31             0.0235595926      -30.7441218056      -18.4796609590  MEMB      165             0.0000000000
     19037       165  SAPE      C31            -0.1736193952      -31.1364430898      -17.2721386472  MEMB      165             0.0000000000
     19038       165  SAPE      O32             0.4219221598      -30.7763040553      -16.2934479907  MEMB      165             0.0000000000
     19039       165  SAPE      C32            -1.3440081277      -32.0976260828      -17.1120700278  MEMB      165             0.0000000000
     19040       165  SAPE      H2X            -2.0627238007      -32.0288779931      -17.9242765724  MEMB      165             0.0000000000
     19041       165  SAPE      H2Y            -2.0626447599      -32.0713076686      -16.2761873128  MEMB      165             0.0000000000
     19042       165  SAPE      C23             1.8087751694      -30.3672085382      -13.9546411031  MEMB      165             0.0000000000
     19043       165  SAPE      H3R             1.4882253506      -31.2243486006      -14.5355728503  MEMB      165             0.0000000000
     19044       165  SAPE      H3S             1.1975662447      -29.4924693180      -13.6609203358  MEMB      165             0.0000000000
     19045       165  SAPE      C24             2.4177967345      -31.2257226063      -12.8159139588  MEMB      165             0.0000000000
     19046       165  SAPE      H4R             3.3759173218      -31.7760356556      -12.9238619042  MEMB      165             0.0000000000
     19047       165  SAPE      H4S             1.5893175148      -31.6323080011      -12.2596028814  MEMB      165             0.0000000000
     19048       165  SAPE      C25             2.7267711513      -30.3818521123      -11.7837571999  MEMB      165             0.0000000000
     19049       165  SAPE      H5R             3.1147827924      -29.6426780947      -12.3484614031  MEMB      165             0.0000000000
     19050       165  SAPE      C26             2.4199036104      -30.0542510502      -10.5899321172  MEMB      165             0.0000000000
     19051       165  SAPE      H6R             2.8523460945      -29.1404060820      -10.2054786233  MEMB      165             0.0000000000
     19052       165  SAPE      C27             1.4815323335      -30.4926487226       -9.6942800831  MEMB      165             0.0000000000
     19053       165  SAPE      H7R             1.6509265543      -29.6762818457       -9.0743999816  MEMB      165             0.0000000000
     19054       165  SAPE      H7S             1.8151125539      -31.4872740917       -9.4377872759  MEMB      165             0.0000000000
     19055       165  SAPE      C28             0.1658551799      -29.9989240735       -9.8645664050  MEMB      165             0.0000000000
     19056       165  SAPE      H8R             0.1162719500      -29.6297781585      -10.8723613507  MEMB      165             0.0000000000
     19057       165  SAPE      C29            -0.6761928759      -29.6019842986       -8.9110190893  MEMB      165             0.0000000000
     19058       165  SAPE      H9R            -1.6643583559      -29.2961071587       -9.2145837342  MEMB      165             0.0000000000
     19059       165  SAPE      C210           -0.5210919776      -29.5746025713       -7.4422822579  MEMB      165             0.0000000000
     19060       165  SAPE      H10R           -1.0038533946      -28.6607758635       -7.0615150950  MEMB      165             0.0000000000
     19061       165  SAPE      H10S            0.4744368104      -29.5267960545       -7.0646358237  MEMB      165             0.0000000000
     19062       165  SAPE      C211           -0.9774990735      -30.8621733849       -6.8963083236  MEMB      165             0.0000000000
     19063       165  SAPE      H11R           -0.8819341583      -31.7162997685       -7.5249722746  MEMB      165             0.0000000000
     19064       165  SAPE      C212           -1.4198395480      -31.0351361362       -5.6818672150  MEMB      165             0.0000000000
     19065       165  SAPE      H12R           -1.9641762498      -31.9155636437       -5.3396960789  MEMB      165             0.0000000000
     19066       165  SAPE      C213           -1.4799965903      -29.9057946351       -4.8180364425  MEMB      165             0.0000000000
     19067       165  SAPE      H13R           -2.3022323722      -30.0520995914       -4.1854396775  MEMB      165             0.0000000000
     19068       165  SAPE      H13S           -1.6580522174      -28.9480009452       -5.2870120320  MEMB      165             0.0000000000
     19069       165  SAPE      C214           -0.3045416949      -29.6663365337       -4.0364830414  MEMB      165             0.0000000000
     19070       165  SAPE      H14R            0.0142574203      -28.6965276145       -4.1479935258  MEMB      165             0.0000000000
     19071       165  SAPE      C215            0.3148900041      -30.3032422176       -3.1226333745  MEMB      165             0.0000000000
     19072       165  SAPE      H15R            0.9754902554      -29.6843116394       -2.4979381080  MEMB      165             0.0000000000
     19073       165  SAPE      C216           -0.1356358880      -31.5988277712       -2.6752658800  MEMB      165             0.0000000000
     19074       165  SAPE      H16R            0.4617049645      -32.2856979616       -3.2957896220  MEMB      165             0.0000000000
     19075       165  SAPE      H16S           -1.2201945763      -31.7482071024       -2.8555329644  MEMB      165             0.0000000000
     19076       165  SAPE      C217            0.2357075259      -31.7502336411       -1.2352003378  MEMB      165             0.0000000000
     19077       165  SAPE      H17R           -0.3302226619      -31.0072297961       -0.6289416031  MEMB      165             0.0000000000
     19078       165  SAPE      H17S            1.3241753254      -31.5625064475       -1.0790287462  MEMB      165             0.0000000000
     19079       165  SAPE      C218           -0.1131204644      -33.1517479364       -0.7786358662  MEMB      165             0.0000000000
     19080       165  SAPE      H18R            0.5015337647      -33.9336037416       -1.2735585196  MEMB      165             0.0000000000
     19081       165  SAPE      H18S           -1.1713066385      -33.3610909381       -1.0757270843  MEMB      165             0.0000000000
     19082       165  SAPE      C219            0.0055859241      -33.1755055759        0.7365601124  MEMB      165             0.0000000000
     19083       165  SAPE      H19R           -0.6409840500      -33.9914259907        1.0741110419  MEMB      165             0.0000000000
     19084       165  SAPE      H19S           -0.4788484329      -32.2506573480        1.1176937365  MEMB      165             0.0000000000
     19085       165  SAPE      C220            1.4094896110      -33.3081539407        1.3531329267  MEMB      165             0.0000000000
     19086       165  SAPE      H20R            1.3074871985      -33.2545891475        2.4597097087  MEMB      165             0.0000000000
     19087       165  SAPE      H20S            2.1158845412      -32.5077177648        1.0471767885  MEMB      165             0.0000000000
     19088       165  SAPE      H20T            1.8787706561      -34.2806254868        1.0964669060  MEMB      165             0.0000000000
     19089       165  SAPE      C33            -0.6536262035      -33.2843934536      -16.5005258399  MEMB      165             0.0000000000
     19090       165  SAPE      H3X             0.3702021334      -33.3462420322      -16.9272479438  MEMB      165             0.0000000000
     19091       165  SAPE      H3Y            -1.3207166222      -34.0846853048      -16.8427712450  MEMB      165             0.0000000000
     19092       165  SAPE      C34            -0.5116159871      -33.3984399670      -14.9549579603  MEMB      165             0.0000000000
     19093       165  SAPE      H4X             0.1627437088      -32.6585855183      -14.4682200768  MEMB      165             0.0000000000
     19094       165  SAPE      H4Y            -0.0043049669      -34.3855096840      -14.8732923176  MEMB      165             0.0000000000
     19095       165  SAPE      C35            -1.8107661538      -33.5972060911      -14.1740445999  MEMB      165             0.0000000000
     19096       165  SAPE      H5X            -2.5482816471      -34.1360331049      -14.7829563375  MEMB      165             0.0000000000
     19097       165  SAPE      H5Y            -2.4115360595      -32.6955350839      -14.0745150864  MEMB      165             0.0000000000
     19098       165  SAPE      C36            -1.6198539077      -34.4048224507      -12.8687775681  MEMB      165             0.0000000000
     19099       165  SAPE      H6X            -1.3853215149      -35.4409982962      -13.1411497422  MEMB      165             0.0000000000
     19100       165  SAPE      H6Y            -2.6452070758      -34.4537273552      -12.4303380558  MEMB      165             0.0000000000
     19101       165  SAPE      C37            -0.5032893346      -33.9659763072      -11.8672940729  MEMB      165             0.0000000000
     19102       165  SAPE      H7X            -0.5035364955      -32.8644033168      -11.8444397633  MEMB      165             0.0000000000
     19103       165  SAPE      H7Y             0.5175544761      -33.9455590429      -12.2504183670  MEMB      165             0.0000000000
     19104       165  SAPE      C38            -0.5240876857      -34.7446003655      -10.5000131126  MEMB      165             0.0000000000
     19105       165  SAPE      H8X            -0.2016826626      -35.7793646336      -10.6891064334  MEMB      165             0.0000000000
     19106       165  SAPE      H8Y            -1.5056260894      -34.9636474075      -10.0523043545  MEMB      165             0.0000000000
     19107       165  SAPE      C39             0.3530253194      -34.1820371263       -9.3580290110  MEMB      165             0.0000000000
     19108       165  SAPE      H9X             0.1833559077      -33.1055280539       -9.1652095233  MEMB      165             0.0000000000
     19109       165  SAPE      H9Y             1.3886687760      -34.1905784651       -9.7225373714  MEMB      165             0.0000000000
     19110       165  SAPE      C310            0.1844403406      -34.9980413155       -8.0506213967  MEMB      165             0.0000000000
     19111       165  SAPE      H10X            0.1607612529      -36.0753312841       -8.3030596451  MEMB      165             0.0000000000
     19112       165  SAPE      H10Y           -0.7791672188      -34.7937389115       -7.5480813564  MEMB      165             0.0000000000
     19113       165  SAPE      C311            1.2309821574      -34.7679566245       -6.9714648928  MEMB      165             0.0000000000
     19114       165  SAPE      H11X            2.1930624889      -35.2768738804       -7.1979722248  MEMB      165             0.0000000000
     19115       165  SAPE      H11Y            0.8721564579      -35.1994424386       -6.0069308226  MEMB      165             0.0000000000
     19116       165  SAPE      C312            1.5339613055      -33.3123167382       -6.7285451831  MEMB      165             0.0000000000
     19117       165  SAPE      H12X            0.6458777430      -32.7491420494       -6.3825465829  MEMB      165             0.0000000000
     19118       165  SAPE      H12Y            1.8313945428      -32.7936557273       -7.6722311774  MEMB      165             0.0000000000
     19119       165  SAPE      C313            2.6369958081      -33.3129509570       -5.6667445180  MEMB      165             0.0000000000
     19120       165  SAPE      H13X            3.5507961737      -33.8434839690       -6.0043627527  MEMB      165             0.0000000000
     19121       165  SAPE      H13Y            2.2625105387      -33.6042429352       -4.6623951192  MEMB      165             0.0000000000
     19122       165  SAPE      C314            3.1317139454      -31.9521304419       -5.4988386806  MEMB      165             0.0000000000
     19123       165  SAPE      H14X            2.2975369002      -31.4715500368       -4.9230202724  MEMB      165             0.0000000000
     19124       165  SAPE      H14Y            3.1022061377      -31.6869201809       -6.5920186132  MEMB      165             0.0000000000
     19125       165  SAPE      C315            4.5626333440      -31.7052569629       -4.8905279794  MEMB      165             0.0000000000
     19126       165  SAPE      H15X            5.3396744004      -31.8344299710       -5.6731898228  MEMB      165             0.0000000000
     19127       165  SAPE      H15Y            4.5596753087      -32.1939085586       -3.9071822468  MEMB      165             0.0000000000
     19128       165  SAPE      C316            4.9775932144      -30.2896525311       -4.4583595996  MEMB      165             0.0000000000
     19129       165  SAPE      H16X            3.9854454769      -30.0604445339       -4.0462005212  MEMB      165             0.0000000000
     19130       165  SAPE      H16Y            5.3161471710      -29.7672393754       -5.3925907720  MEMB      165             0.0000000000
     19131       165  SAPE      C317            6.1175701303      -29.6500477231       -3.6551692673  MEMB      165             0.0000000000
     19132       165  SAPE      H17X            6.9631288237      -29.8776672291       -4.3227198854  MEMB      165             0.0000000000
     19133       165  SAPE      H17Y            6.0195240099      -30.2025675857       -2.7018239215  MEMB      165             0.0000000000
     19134       165  SAPE      C318            6.2867086921      -28.0902859041       -3.4265388493  MEMB      165             0.0000000000
     19135       165  SAPE      H18X            5.3759380026      -27.6630442185       -3.1232759592  MEMB      165             0.0000000000
     19136       165  SAPE      H18Y            6.1347545795      -27.3132836137       -4.2029259462  MEMB      165             0.0000000000
     19137       165  SAPE      H18Z            6.7864161098      -27.8248460557       -2.4769049791  MEMB      165             0.0000000000
     19138       166  OSM       N              16.4430958666       28.9950821169      -21.7330458213  MEMB      166             0.0000000000
     19139       166  OSM       C15            16.1530926130       28.8753609931      -20.2564479320  MEMB      166             0.0000000000
     19140       166  OSM       H15A           16.4027420332       29.8410169857      -19.7974306337  MEMB      166             0.0000000000
     19141       166  OSM       H15B           16.7830011079       28.1620705561      -19.7371183091  MEMB      166             0.0000000000
     19142       166  OSM       H15C           15.1209568277       28.6204198155      -20.0826496896  MEMB      166             0.0000000000
     19143       166  OSM       C14            17.9275806420       29.0902135226      -21.8666163558  MEMB      166             0.0000000000
     19144       166  OSM       H14A           18.4037309772       28.2578741327      -21.3726711334  MEMB      166             0.0000000000
     19145       166  OSM       H14B           18.2759777410       30.0241831761      -21.4207777220  MEMB      166             0.0000000000
     19146       166  OSM       H14C           18.2190447574       29.1307261791      -22.9078176293  MEMB      166             0.0000000000
     19147       166  OSM       C13            16.0011436502       27.8117502743      -22.4996685228  MEMB      166             0.0000000000
     19148       166  OSM       H13A           14.9274613180       27.7458230063      -22.5375178471  MEMB      166             0.0000000000
     19149       166  OSM       H13B           16.4454259089       26.9245246171      -22.0723046577  MEMB      166             0.0000000000
     19150       166  OSM       H13C           16.3454277765       27.8731038765      -23.5379814440  MEMB      166             0.0000000000
     19151       166  OSM       C12            15.8111842807       30.2523737423      -22.3026661629  MEMB      166             0.0000000000
     19152       166  OSM       H12A           14.7739856319       30.0671210787      -22.5268385435  MEMB      166             0.0000000000
     19153       166  OSM       H12B           16.2947819071       30.5287137072      -23.2417493622  MEMB      166             0.0000000000
     19154       166  OSM       C11            15.8662414640       31.4824966848      -21.3920219144  MEMB      166             0.0000000000
     19155       166  OSM       H11A           15.3310740540       31.2545750993      -20.4380396139  MEMB      166             0.0000000000
     19156       166  OSM       H11B           15.3001676318       32.2948435866      -21.9099643894  MEMB      166             0.0000000000
     19157       166  OSM       P              17.3866046816       33.1295791574      -20.2150599547  MEMB      166             0.0000000000
     19158       166  OSM       O13            18.7802586326       33.6202464068      -20.1923292699  MEMB      166             0.0000000000
     19159       166  OSM       O14            16.3559944857       34.0967714469      -20.6626721206  MEMB      166             0.0000000000
     19160       166  OSM       O11            16.9807594165       32.4412839727      -18.8179103850  MEMB      166             0.0000000000
     19161       166  OSM       O12            17.2299863201       31.8648020189      -21.1577029352  MEMB      166             0.0000000000
     19162       166  OSM       C1S            17.2239536693       33.2316359844      -17.6583668264  MEMB      166             0.0000000000
     19163       166  OSM       H1S            16.5682695047       34.1264453632      -17.6772073314  MEMB      166             0.0000000000
     19164       166  OSM       H1T            18.2852172313       33.5730590305      -17.5829280793  MEMB      166             0.0000000000
     19165       166  OSM       NF             16.8317795091       33.3073128949      -15.2548600061  MEMB      166             0.0000000000
     19166       166  OSM       HNF            17.4341712939       33.1808997149      -14.4825431600  MEMB      166             0.0000000000
     19167       166  OSM       C2S            16.9381467664       32.4193098308      -16.3849433493  MEMB      166             0.0000000000
     19168       166  OSM       H2S            16.0014071441       31.8240480967      -16.5188329715  MEMB      166             0.0000000000
     19169       166  OSM       C3S            18.0298567671       31.4026989104      -16.1307029521  MEMB      166             0.0000000000
     19170       166  OSM       H3S            18.8828827728       32.0870615646      -15.8923536529  MEMB      166             0.0000000000
     19171       166  OSM       O3             18.3529689324       30.5348918013      -17.2026402949  MEMB      166             0.0000000000
     19172       166  OSM       HO3            17.8570187798       30.8966685135      -17.9441577463  MEMB      166             0.0000000000
     19173       166  OSM       C4S            17.5264161709       30.6356912618      -14.9405983889  MEMB      166             0.0000000000
     19174       166  OSM       H4S            16.5757715765       30.1442063345      -15.0398321710  MEMB      166             0.0000000000
     19175       166  OSM       C5S            18.1770181848       30.4306397878      -13.8256257274  MEMB      166             0.0000000000
     19176       166  OSM       H5S            19.1975948591       30.5269230573      -13.9911432943  MEMB      166             0.0000000000
     19177       166  OSM       C6S            17.9362931159       29.7540376413      -12.5361145567  MEMB      166             0.0000000000
     19178       166  OSM       H6S            18.8150838752       29.1230298233      -12.2531179037  MEMB      166             0.0000000000
     19179       166  OSM       H6T            17.0598055671       29.1356077552      -12.7508562577  MEMB      166             0.0000000000
     19180       166  OSM       C7S            17.5671364399       30.6834644845      -11.3542225157  MEMB      166             0.0000000000
     19181       166  OSM       H7S            17.4990762632       30.0602112903      -10.4401963065  MEMB      166             0.0000000000
     19182       166  OSM       H7T            16.5769268971       31.1341294909      -11.5656379224  MEMB      166             0.0000000000
     19183       166  OSM       C8S            18.5135076245       31.8341876158      -11.0364711575  MEMB      166             0.0000000000
     19184       166  OSM       H8S            18.5148103918       32.5649032247      -11.8640842510  MEMB      166             0.0000000000
     19185       166  OSM       H8T            19.5290941514       31.3968022845      -10.9298942942  MEMB      166             0.0000000000
     19186       166  OSM       C9S            18.1486349944       32.6717373446       -9.8128497258  MEMB      166             0.0000000000
     19187       166  OSM       H9S            17.1099595483       33.0308464233       -9.8352781540  MEMB      166             0.0000000000
     19188       166  OSM       H9T            18.8589878549       33.5324661763       -9.7874875588  MEMB      166             0.0000000000
     19189       166  OSM       C10S           18.3266190663       31.9068443398       -8.5361174213  MEMB      166             0.0000000000
     19190       166  OSM       H10S           19.0591527250       31.2278530709       -8.8943566442  MEMB      166             0.0000000000
     19191       166  OSM       H10T           17.7808568263       31.0391220034       -8.3364500316  MEMB      166             0.0000000000
     19192       166  OSM       C11S           18.4322846193       32.7802402572       -7.2878063796  MEMB      166             0.0000000000
     19193       166  OSM       H11S           17.5825952492       33.4625513879       -7.2985806547  MEMB      166             0.0000000000
     19194       166  OSM       H11T           19.3456539808       33.4138292654       -7.3236291665  MEMB      166             0.0000000000
     19195       166  OSM       C12S           18.3391215386       32.1301886847       -5.9098821531  MEMB      166             0.0000000000
     19196       166  OSM       H12S           18.6719115065       32.7662971638       -5.0677730662  MEMB      166             0.0000000000
     19197       166  OSM       H12T           18.9642494006       31.2287889481       -5.9508939257  MEMB      166             0.0000000000
     19198       166  OSM       C13S           17.3416261066       31.2208494499       -5.4988188266  MEMB      166             0.0000000000
     19199       166  OSM       H13S           17.3440073079       30.5469140274       -6.3946065200  MEMB      166             0.0000000000
     19200       166  OSM       H13T           16.4866266232       31.8623894216       -5.3461299917  MEMB      166             0.0000000000
     19201       166  OSM       C14S           17.7202613046       30.4263255945       -4.2726710324  MEMB      166             0.0000000000
     19202       166  OSM       H14S           18.4262342074       31.0647410568       -3.6805334150  MEMB      166             0.0000000000
     19203       166  OSM       H14T           18.1583014752       29.5040497787       -4.6717752720  MEMB      166             0.0000000000
     19204       166  OSM       C15S           16.6324064892       30.2355297893       -3.2356435289  MEMB      166             0.0000000000
     19205       166  OSM       H15S           16.2620844583       31.2394078914       -3.5011810754  MEMB      166             0.0000000000
     19206       166  OSM       H15T           16.8914207273       29.9798894617       -2.2177934331  MEMB      166             0.0000000000
     19207       166  OSM       C16S           15.6379395255       29.1311235120       -3.3741409461  MEMB      166             0.0000000000
     19208       166  OSM       H16S           16.3165194676       28.2725148268       -3.5989045160  MEMB      166             0.0000000000
     19209       166  OSM       H16T           15.4170536165       29.7083438366       -4.2871031374  MEMB      166             0.0000000000
     19210       166  OSM       C17S           14.1696897788       28.6317158929       -2.8045055838  MEMB      166             0.0000000000
     19211       166  OSM       H17S           14.0516138185       27.5305978425       -2.8937985326  MEMB      166             0.0000000000
     19212       166  OSM       H17T           13.1159021947       29.0495817821       -3.0649497439  MEMB      166             0.0000000000
     19213       166  OSM       C18S           13.7814945349       28.9248227057       -1.6209492473  MEMB      166             0.0000000000
     19214       166  OSM       H18S           14.3556820984       29.8549190948       -1.6354874662  MEMB      166             0.0000000000
     19215       166  OSM       H18T           14.1771676743       28.3339921164       -0.9865584495  MEMB      166             0.0000000000
     19216       166  OSM       H18U           12.6876100400       28.8248875912       -1.4075344144  MEMB      166             0.0000000000
     19217       166  OSM       C1F            16.0131456382       34.3121710549      -15.2082827749  MEMB      166             0.0000000000
     19218       166  OSM       OF             15.0921922703       34.3942799671      -16.0010798755  MEMB      166             0.0000000000
     19219       166  OSM       C2F            16.2504336657       35.2942417929      -14.0970110129  MEMB      166             0.0000000000
     19220       166  OSM       H2F            15.3535582520       35.5244127815      -13.5774509281  MEMB      166             0.0000000000
     19221       166  OSM       H2G            16.3754691526       36.3194883410      -14.4519679534  MEMB      166             0.0000000000
     19222       166  OSM       C3F            17.1970472522       34.7577036639      -13.0043928893  MEMB      166             0.0000000000
     19223       166  OSM       H3F            18.1588611679       34.5446142455      -13.5183184199  MEMB      166             0.0000000000
     19224       166  OSM       H3G            16.8324361315       33.8165574641      -12.5229960498  MEMB      166             0.0000000000
     19225       166  OSM       C4F            17.5314231036       35.8053378272      -11.9320959612  MEMB      166             0.0000000000
     19226       166  OSM       H4F            17.8749112299       36.6845789593      -12.5177401753  MEMB      166             0.0000000000
     19227       166  OSM       H4G            18.3401657182       35.3962407602      -11.2924048402  MEMB      166             0.0000000000
     19228       166  OSM       C5F            16.4458711699       36.4154175414      -11.0500526816  MEMB      166             0.0000000000
     19229       166  OSM       H5F            15.5568685727       36.6786360097      -11.6525690324  MEMB      166             0.0000000000
     19230       166  OSM       H5G            16.7861736325       37.3969278548      -10.6623969075  MEMB      166             0.0000000000
     19231       166  OSM       C6F            16.0871656055       35.6274658226       -9.8099710590  MEMB      166             0.0000000000
     19232       166  OSM       H6F            16.9106533473       35.1831154143       -9.2290012923  MEMB      166             0.0000000000
     19233       166  OSM       H6G            15.5456440818       34.7108491464      -10.1339892485  MEMB      166             0.0000000000
     19234       166  OSM       C7F            15.3928351752       36.5798093769       -8.8407098985  MEMB      166             0.0000000000
     19235       166  OSM       H7F            14.5339768141       37.1698065393       -9.2623018288  MEMB      166             0.0000000000
     19236       166  OSM       H7G            16.0046019127       37.3462970562       -8.3500213225  MEMB      166             0.0000000000
     19237       166  OSM       C8F            14.9312188391       35.8270325476       -7.6343318706  MEMB      166             0.0000000000
     19238       166  OSM       H8F            14.2529861063       35.1158284740       -8.0648790465  MEMB      166             0.0000000000
     19239       166  OSM       H8G            14.3242334239       36.6306130540       -7.1352829221  MEMB      166             0.0000000000
     19240       166  OSM       C9F            15.3501704857       34.5689509124       -6.9544257902  MEMB      166             0.0000000000
     19241       166  OSM       H9F            15.6052119368       33.7682233406       -7.6757245650  MEMB      166             0.0000000000
     19242       166  OSM       C10F           15.0753574558       34.2018776727       -5.6938713674  MEMB      166             0.0000000000
     19243       166  OSM       H10F           15.4924492853       33.3038686142       -5.3012994979  MEMB      166             0.0000000000
     19244       166  OSM       C11F           14.3149811669       34.9017973374       -4.6347501168  MEMB      166             0.0000000000
     19245       166  OSM       H11F           13.5684257873       34.2359287366       -4.1226068239  MEMB      166             0.0000000000
     19246       166  OSM       H11G           13.8026738449       35.6707668647       -5.1709082669  MEMB      166             0.0000000000
     19247       166  OSM       C12F           14.9807840879       35.8503708879       -3.6623836978  MEMB      166             0.0000000000
     19248       166  OSM       H12F           14.2160737425       36.4740688370       -3.1380633925  MEMB      166             0.0000000000
     19249       166  OSM       H12G           15.6191952487       36.5516207897       -4.2362872092  MEMB      166             0.0000000000
     19250       166  OSM       C13F           15.6270538845       34.9933565255       -2.6303490848  MEMB      166             0.0000000000
     19251       166  OSM       H13F           16.5374123064       34.5137090464       -3.0418973674  MEMB      166             0.0000000000
     19252       166  OSM       H13G           14.8734887179       34.2126887965       -2.3716204139  MEMB      166             0.0000000000
     19253       166  OSM       C14F           15.8805955565       35.7014555984       -1.3372465140  MEMB      166             0.0000000000
     19254       166  OSM       H14F           14.9672982668       36.2535899921       -1.0185409205  MEMB      166             0.0000000000
     19255       166  OSM       H14G           16.7266470229       36.4141195254       -1.4409234808  MEMB      166             0.0000000000
     19256       166  OSM       C15F           16.2013655438       34.6482619164       -0.3189815714  MEMB      166             0.0000000000
     19257       166  OSM       H15F           15.8565631660       33.6216416530       -0.5508187852  MEMB      166             0.0000000000
     19258       166  OSM       H15G           15.7178499645       34.9761161672        0.6340464610  MEMB      166             0.0000000000
     19259       166  OSM       C16F           17.6671465336       34.5560103897       -0.1560760501  MEMB      166             0.0000000000
     19260       166  OSM       H16F           18.3148719221       35.0335132143       -0.9176698077  MEMB      166             0.0000000000
     19261       166  OSM       H16G           18.0241658716       33.4975269964       -0.0661676453  MEMB      166             0.0000000000
     19262       166  OSM       C17F           17.8611942449       35.2144901669        1.1263333333  MEMB      166             0.0000000000
     19263       166  OSM       H17F           17.4506538907       36.1610124777        1.5295941609  MEMB      166             0.0000000000
     19264       166  OSM       H17G           18.8734270365       35.3913702788        1.0655839573  MEMB      166             0.0000000000
     19265       166  OSM       C18F           18.1797109828       34.2144145945        2.0223031770  MEMB      166             0.0000000000
     19266       166  OSM       H18F           18.4029036158       33.1703158033        1.7511338171  MEMB      166             0.0000000000
     19267       166  OSM       H18G           17.7080429712       33.8792066473        2.7988372212  MEMB      166             0.0000000000
     19268       166  OSM       H18H           18.4010253443       34.7404730364        2.9935723311  MEMB      166             0.0000000000
     19269       167  CHL1      C3            -16.8831581707      -31.4310854193      -17.4004824759  MEMB      167             0.0000000000
     19270       167  CHL1      H3            -17.7656889725      -30.7496279651      -17.5361116294  MEMB      167             0.0000000000
     19271       167  CHL1      O3            -16.1564662518      -31.5621668963      -18.6166650323  MEMB      167             0.0000000000
     19272       167  CHL1      H3'           -16.0317295476      -30.6551925058      -18.9260857663  MEMB      167             0.0000000000
     19273       167  CHL1      C4            -15.8925531362      -30.9591371381      -16.3548997908  MEMB      167             0.0000000000
     19274       167  CHL1      H4A           -15.0232731995      -31.6171197007      -16.3485114159  MEMB      167             0.0000000000
     19275       167  CHL1      H4B           -15.3083759318      -30.0945066053      -16.7046657450  MEMB      167             0.0000000000
     19276       167  CHL1      C5            -16.4488516513      -30.9745299164      -14.9364496845  MEMB      167             0.0000000000
     19277       167  CHL1      C6            -16.5331715769      -29.9772773728      -14.1764516697  MEMB      167             0.0000000000
     19278       167  CHL1      H6            -16.3589479498      -29.1864027097      -14.7003533050  MEMB      167             0.0000000000
     19279       167  CHL1      C7            -16.8716656979      -29.7543794368      -12.7807420322  MEMB      167             0.0000000000
     19280       167  CHL1      H7A           -16.2000676524      -28.9674192399      -12.3417336609  MEMB      167             0.0000000000
     19281       167  CHL1      H7B           -17.9548951825      -29.4628103479      -12.8067483089  MEMB      167             0.0000000000
     19282       167  CHL1      C8            -16.9194101884      -30.9440565915      -11.9993095817  MEMB      167             0.0000000000
     19283       167  CHL1      H8            -15.8583429057      -31.2178552630      -11.8529869254  MEMB      167             0.0000000000
     19284       167  CHL1      C14           -17.5972116382      -30.6201068027      -10.6816209342  MEMB      167             0.0000000000
     19285       167  CHL1      H14           -18.6099945286      -30.1555068217      -10.8762023445  MEMB      167             0.0000000000
     19286       167  CHL1      C15           -16.8575186644      -29.6900158858       -9.7357085800  MEMB      167             0.0000000000
     19287       167  CHL1      H15A          -15.7577363604      -29.6962591804       -9.8461687707  MEMB      167             0.0000000000
     19288       167  CHL1      H15B          -17.2450207610      -28.7282687028       -9.8331495382  MEMB      167             0.0000000000
     19289       167  CHL1      C16           -17.4372343747      -29.8809504281       -8.3520668758  MEMB      167             0.0000000000
     19290       167  CHL1      H16A          -16.5802418513      -29.9138263902       -7.6544195183  MEMB      167             0.0000000000
     19291       167  CHL1      H16B          -18.1131105070      -29.0403566376       -8.0452673474  MEMB      167             0.0000000000
     19292       167  CHL1      C17           -18.2563108523      -31.1738982099       -8.5095441390  MEMB      167             0.0000000000
     19293       167  CHL1      H17           -19.3139166354      -30.8604573379       -8.6855155614  MEMB      167             0.0000000000
     19294       167  CHL1      C13           -17.7638962563      -31.8264784793       -9.8372291344  MEMB      167             0.0000000000
     19295       167  CHL1      C18           -16.3521082382      -32.4152319375       -9.5704031767  MEMB      167             0.0000000000
     19296       167  CHL1      H18A          -15.6740163521      -31.7004068718       -9.0618010827  MEMB      167             0.0000000000
     19297       167  CHL1      H18B          -16.4403379343      -33.2878706206       -8.9062314600  MEMB      167             0.0000000000
     19298       167  CHL1      H18C          -15.8519938664      -32.7342725600      -10.5047614973  MEMB      167             0.0000000000
     19299       167  CHL1      C12           -18.6817316077      -32.7380093143      -10.6824964310  MEMB      167             0.0000000000
     19300       167  CHL1      H12A          -18.8652546555      -33.7117354219      -10.2044064506  MEMB      167             0.0000000000
     19301       167  CHL1      H12B          -19.6468441799      -32.2057558301      -10.8316004630  MEMB      167             0.0000000000
     19302       167  CHL1      C11           -18.0901556693      -33.0770128897      -12.0732566554  MEMB      167             0.0000000000
     19303       167  CHL1      H11A          -17.1905463739      -33.7008273091      -11.9147854532  MEMB      167             0.0000000000
     19304       167  CHL1      H11B          -18.8292518646      -33.6272773332      -12.6759364887  MEMB      167             0.0000000000
     19305       167  CHL1      C9            -17.7170611325      -31.8699121246      -12.9004504351  MEMB      167             0.0000000000
     19306       167  CHL1      H9            -18.6835446656      -31.3332436538      -13.1254950600  MEMB      167             0.0000000000
     19307       167  CHL1      C10           -16.9978452382      -32.1409052887      -14.2964818857  MEMB      167             0.0000000000
     19308       167  CHL1      C19           -15.7233253548      -32.9446877333      -14.0728271388  MEMB      167             0.0000000000
     19309       167  CHL1      H19A          -16.0642199068      -33.8572026282      -13.5736369838  MEMB      167             0.0000000000
     19310       167  CHL1      H19B          -15.2481227710      -33.2492849092      -15.0209168321  MEMB      167             0.0000000000
     19311       167  CHL1      H19C          -14.9649125871      -32.3973955102      -13.4600032640  MEMB      167             0.0000000000
     19312       167  CHL1      C1            -17.9205651315      -32.6690366036      -15.4184875663  MEMB      167             0.0000000000
     19313       167  CHL1      H1A           -18.2405380164      -33.6469537859      -15.0367535134  MEMB      167             0.0000000000
     19314       167  CHL1      H1B           -18.8270811061      -32.0244104475      -15.5123136363  MEMB      167             0.0000000000
     19315       167  CHL1      C2            -17.2950783406      -32.7964608151      -16.8488078641  MEMB      167             0.0000000000
     19316       167  CHL1      H2A           -17.9837415783      -33.3133328543      -17.5353777405  MEMB      167             0.0000000000
     19317       167  CHL1      H2B           -16.3516174785      -33.3859114331      -16.8262784104  MEMB      167             0.0000000000
     19318       167  CHL1      C20           -18.1550499603      -31.9574896929       -7.2192929264  MEMB      167             0.0000000000
     19319       167  CHL1      H20           -17.1134626906      -32.3131884107       -7.0565657075  MEMB      167             0.0000000000
     19320       167  CHL1      C21           -19.0487101272      -33.1612342182       -7.3410253292  MEMB      167             0.0000000000
     19321       167  CHL1      H21A          -19.0969540209      -33.7027038691       -6.3748590980  MEMB      167             0.0000000000
     19322       167  CHL1      H21B          -18.6968696153      -33.8761476204       -8.1074876165  MEMB      167             0.0000000000
     19323       167  CHL1      H21C          -20.0644062645      -32.7981628487       -7.5980041183  MEMB      167             0.0000000000
     19324       167  CHL1      C22           -18.5983979269      -31.1606831259       -5.9717412710  MEMB      167             0.0000000000
     19325       167  CHL1      H22A          -18.1771810887      -30.1331139976       -5.9461506593  MEMB      167             0.0000000000
     19326       167  CHL1      H22B          -19.7028960970      -31.0451106726       -6.0161401887  MEMB      167             0.0000000000
     19327       167  CHL1      C23           -18.1476095812      -31.8537533559       -4.6823946350  MEMB      167             0.0000000000
     19328       167  CHL1      H23A          -18.5888440314      -32.8605552256       -4.5328911991  MEMB      167             0.0000000000
     19329       167  CHL1      H23B          -17.0431733700      -32.0093341227       -4.7398889786  MEMB      167             0.0000000000
     19330       167  CHL1      C24           -18.4200663564      -31.0138607670       -3.4436510889  MEMB      167             0.0000000000
     19331       167  CHL1      H24A          -17.9535544734      -30.0240932618       -3.6360609423  MEMB      167             0.0000000000
     19332       167  CHL1      H24B          -19.5132121925      -30.8657694167       -3.2806749032  MEMB      167             0.0000000000
     19333       167  CHL1      C25           -17.7448525720      -31.7102985028       -2.2548548152  MEMB      167             0.0000000000
     19334       167  CHL1      H25           -16.7578687262      -32.0950341764       -2.5737368640  MEMB      167             0.0000000000
     19335       167  CHL1      C26           -17.5215750632      -30.8103174828       -1.0715018525  MEMB      167             0.0000000000
     19336       167  CHL1      H26A          -17.1914023938      -29.8256014486       -1.4483609483  MEMB      167             0.0000000000
     19337       167  CHL1      H26B          -18.4716831531      -30.7133902630       -0.5085521083  MEMB      167             0.0000000000
     19338       167  CHL1      H26C          -16.7566585064      -31.2266393673       -0.3842310909  MEMB      167             0.0000000000
     19339       167  CHL1      C27           -18.5584029775      -32.8651794916       -1.7682433891  MEMB      167             0.0000000000
     19340       167  CHL1      H27A          -18.7867304584      -33.6236617332       -2.5306272904  MEMB      167             0.0000000000
     19341       167  CHL1      H27B          -18.0901149234      -33.3472750526       -0.8810113265  MEMB      167             0.0000000000
     19342       167  CHL1      H27C          -19.5125500175      -32.3911351401       -1.4805548155  MEMB      167             0.0000000000
     19343       168  SAPE      N              22.0295908735       25.3852188788      -21.9912550208  MEMB      168             0.0000000000
     19344       168  SAPE      HN1            22.4895176919       24.5057718802      -22.2748778628  MEMB      168             0.0000000000
     19345       168  SAPE      HN2            21.1130937655       25.4943075605      -22.4649194691  MEMB      168             0.0000000000
     19346       168  SAPE      HN3            22.7017839816       26.1366792378      -22.2756273376  MEMB      168             0.0000000000
     19347       168  SAPE      C12            21.9486505287       25.4173621136      -20.4857027899  MEMB      168             0.0000000000
     19348       168  SAPE      H12A           21.6699356404       24.4062739493      -20.1300187974  MEMB      168             0.0000000000
     19349       168  SAPE      H12B           21.1703483784       26.1496833755      -20.1734931816  MEMB      168             0.0000000000
     19350       168  SAPE      C11            23.3110818731       25.8793179516      -19.9887634387  MEMB      168             0.0000000000
     19351       168  SAPE      H11A           24.1101647746       25.2567888452      -20.4566190639  MEMB      168             0.0000000000
     19352       168  SAPE      H11B           23.4123736969       25.7580189256      -18.8839282785  MEMB      168             0.0000000000
     19353       168  SAPE      P              24.1562401448       28.3429331745      -19.5204157575  MEMB      168             0.0000000000
     19354       168  SAPE      O13            25.4786837833       27.9005047067      -19.0215095192  MEMB      168             0.0000000000
     19355       168  SAPE      O14            24.1056553402       29.6119385893      -20.2673291902  MEMB      168             0.0000000000
     19356       168  SAPE      O12            23.4535465899       27.2261196813      -20.4128444717  MEMB      168             0.0000000000
     19357       168  SAPE      O11            23.1786341385       28.4575698668      -18.2860189610  MEMB      168             0.0000000000
     19358       168  SAPE      C1             23.5441604119       29.5196523488      -17.3847625708  MEMB      168             0.0000000000
     19359       168  SAPE      HA             24.5908684104       29.4328796006      -17.0103828611  MEMB      168             0.0000000000
     19360       168  SAPE      HB             23.4427474904       30.5245144535      -17.8751011479  MEMB      168             0.0000000000
     19361       168  SAPE      C2             22.6904953880       29.5221025801      -16.1099106132  MEMB      168             0.0000000000
     19362       168  SAPE      HS             23.0828126422       30.3643002448      -15.4842471479  MEMB      168             0.0000000000
     19363       168  SAPE      O21            22.6958275887       28.2765481062      -15.3667069296  MEMB      168             0.0000000000
     19364       168  SAPE      C21            23.7595047589       28.0465558070      -14.6339770969  MEMB      168             0.0000000000
     19365       168  SAPE      O22            24.8125155585       28.6510117742      -14.6906156341  MEMB      168             0.0000000000
     19366       168  SAPE      C22            23.4020826478       26.9846343410      -13.5798191050  MEMB      168             0.0000000000
     19367       168  SAPE      H2R            22.5416351418       27.3539002814      -12.9860384102  MEMB      168             0.0000000000
     19368       168  SAPE      H2S            23.1345400441       26.0561790799      -14.1244067768  MEMB      168             0.0000000000
     19369       168  SAPE      C3             21.2358148525       29.8690785555      -16.3994552058  MEMB      168             0.0000000000
     19370       168  SAPE      HX             20.6845248225       28.9246306952      -16.6501805104  MEMB      168             0.0000000000
     19371       168  SAPE      HY             21.0825393889       30.5396487006      -17.2755060197  MEMB      168             0.0000000000
     19372       168  SAPE      O31            20.7841974803       30.4635132639      -15.1744665962  MEMB      168             0.0000000000
     19373       168  SAPE      C31            20.9978437255       31.7822022527      -14.9991437123  MEMB      168             0.0000000000
     19374       168  SAPE      O32            21.5383642734       32.5166758316      -15.7778557017  MEMB      168             0.0000000000
     19375       168  SAPE      C32            20.4359475440       32.3714646607      -13.6923574620  MEMB      168             0.0000000000
     19376       168  SAPE      H2X            19.8248265261       31.7937251267      -13.0360866720  MEMB      168             0.0000000000
     19377       168  SAPE      H2Y            19.8554513073       33.2775095314      -13.9262480030  MEMB      168             0.0000000000
     19378       168  SAPE      C23            24.5534394319       26.6539982650      -12.6089197519  MEMB      168             0.0000000000
     19379       168  SAPE      H3R            25.1553951643       27.5532181325      -12.3823447457  MEMB      168             0.0000000000
     19380       168  SAPE      H3S            25.2211505921       25.9550560505      -13.1527588554  MEMB      168             0.0000000000
     19381       168  SAPE      C24            24.1163705170       26.0743778154      -11.2525963802  MEMB      168             0.0000000000
     19382       168  SAPE      H4R            23.3694328180       26.6755199440      -10.7055058894  MEMB      168             0.0000000000
     19383       168  SAPE      H4S            25.0245637090       25.9920786054      -10.6213527964  MEMB      168             0.0000000000
     19384       168  SAPE      C25            23.6626402980       24.6897393035      -11.4314968901  MEMB      168             0.0000000000
     19385       168  SAPE      H5R            24.5120380114       24.0454043433      -11.4461044586  MEMB      168             0.0000000000
     19386       168  SAPE      C26            22.4786687843       24.1298551127      -11.2713954792  MEMB      168             0.0000000000
     19387       168  SAPE      H6R            22.3326741879       23.0491269707      -11.4484872636  MEMB      168             0.0000000000
     19388       168  SAPE      C27            21.2982085601       24.8817428808      -10.8397697093  MEMB      168             0.0000000000
     19389       168  SAPE      H7R            20.4899991578       24.3429637469      -11.3477858949  MEMB      168             0.0000000000
     19390       168  SAPE      H7S            21.2745763407       25.9439986093      -11.1612824744  MEMB      168             0.0000000000
     19391       168  SAPE      C28            21.2447595715       24.7333104016       -9.3517194776  MEMB      168             0.0000000000
     19392       168  SAPE      H8R            21.5530989894       23.7448686120       -8.9524942336  MEMB      168             0.0000000000
     19393       168  SAPE      C29            20.6905652094       25.6084521028       -8.5042721009  MEMB      168             0.0000000000
     19394       168  SAPE      H9R            20.3600991575       25.0889394207       -7.6071306427  MEMB      168             0.0000000000
     19395       168  SAPE      C210           20.0031818630       26.9321189503       -8.8558313989  MEMB      168             0.0000000000
     19396       168  SAPE      H10R           19.4702664442       26.7390147072       -9.8185620007  MEMB      168             0.0000000000
     19397       168  SAPE      H10S           20.7884757190       27.6598650396       -8.9285340055  MEMB      168             0.0000000000
     19398       168  SAPE      C211           18.9216578948       27.6061239363       -8.0539072796  MEMB      168             0.0000000000
     19399       168  SAPE      H11R           17.9637114340       27.3883675900       -8.4983081325  MEMB      168             0.0000000000
     19400       168  SAPE      C212           18.8655348252       27.9912771181       -6.7926024372  MEMB      168             0.0000000000
     19401       168  SAPE      H12R           17.9913044947       27.6498574716       -6.2508313716  MEMB      168             0.0000000000
     19402       168  SAPE      C213           19.9720227246       27.8650417561       -5.8569804415  MEMB      168             0.0000000000
     19403       168  SAPE      H13R           19.8237951443       28.6973776170       -5.1795357410  MEMB      168             0.0000000000
     19404       168  SAPE      H13S           20.8426059472       28.0894922200       -6.4841424609  MEMB      168             0.0000000000
     19405       168  SAPE      C214           20.4053841841       26.7310850948       -5.0553923450  MEMB      168             0.0000000000
     19406       168  SAPE      H14R           20.9330441029       25.9912362831       -5.6672815842  MEMB      168             0.0000000000
     19407       168  SAPE      C215           20.0788034351       26.4305670505       -3.8059670315  MEMB      168             0.0000000000
     19408       168  SAPE      H15R           20.6595490624       25.6177823977       -3.3706027529  MEMB      168             0.0000000000
     19409       168  SAPE      C216           19.1893471044       27.0938278039       -2.8042290829  MEMB      168             0.0000000000
     19410       168  SAPE      H16R           19.3494084758       26.5415258778       -1.8586201722  MEMB      168             0.0000000000
     19411       168  SAPE      H16S           18.1153556241       26.9741086744       -3.0913595792  MEMB      168             0.0000000000
     19412       168  SAPE      C217           19.4530797905       28.5507864541       -2.4524978309  MEMB      168             0.0000000000
     19413       168  SAPE      H17R           18.7708503237       28.9741699844       -1.6945019067  MEMB      168             0.0000000000
     19414       168  SAPE      H17S           19.2929743357       29.1241755263       -3.3257597929  MEMB      168             0.0000000000
     19415       168  SAPE      C218           20.8682452737       28.9274237302       -2.1179418431  MEMB      168             0.0000000000
     19416       168  SAPE      H18R           20.8272687855       30.0331010000       -1.9723610032  MEMB      168             0.0000000000
     19417       168  SAPE      H18S           21.5456349275       28.6680318955       -2.9616977927  MEMB      168             0.0000000000
     19418       168  SAPE      C219           21.3173878004       28.2673765263       -0.8527002265  MEMB      168             0.0000000000
     19419       168  SAPE      H19R           22.3334135427       28.6126358078       -0.6037740606  MEMB      168             0.0000000000
     19420       168  SAPE      H19S           21.3993832472       27.1780518129       -1.0564866232  MEMB      168             0.0000000000
     19421       168  SAPE      C220           20.3525818772       28.5750455180        0.2844817724  MEMB      168             0.0000000000
     19422       168  SAPE      H20R           19.3697884028       28.0715334807        0.1298490591  MEMB      168             0.0000000000
     19423       168  SAPE      H20S           20.1929226276       29.6666929952        0.3995012217  MEMB      168             0.0000000000
     19424       168  SAPE      H20T           20.7936185468       28.2403001996        1.2258976642  MEMB      168             0.0000000000
     19425       168  SAPE      C33            21.4307613227       32.3032473064      -12.5708194042  MEMB      168             0.0000000000
     19426       168  SAPE      H3X            20.9080395071       32.7184652103      -11.6767662866  MEMB      168             0.0000000000
     19427       168  SAPE      H3Y            22.1720097395       32.9656806636      -12.9711607231  MEMB      168             0.0000000000
     19428       168  SAPE      C34            21.9295777585       30.8393997717      -12.3111692921  MEMB      168             0.0000000000
     19429       168  SAPE      H4X            22.4696212915       30.4175816462      -13.1667219612  MEMB      168             0.0000000000
     19430       168  SAPE      H4Y            21.1737235865       30.2517343149      -11.7610270457  MEMB      168             0.0000000000
     19431       168  SAPE      C35            23.0592043450       30.6559643310      -11.3610939078  MEMB      168             0.0000000000
     19432       168  SAPE      H5X            22.5781598472       31.5147794652      -10.8236693720  MEMB      168             0.0000000000
     19433       168  SAPE      H5Y            23.6709117855       31.6175690442      -11.4137542691  MEMB      168             0.0000000000
     19434       168  SAPE      C36            23.5967394275       29.1360206842      -10.3473996405  MEMB      168             0.0000000000
     19435       168  SAPE      H6X            24.2747934255       28.7112862870      -11.0809405601  MEMB      168             0.0000000000
     19436       168  SAPE      H6Y            22.6392717555       28.6613440196      -10.3697911732  MEMB      168             0.0000000000
     19437       168  SAPE      C37            24.3096571801       29.0282649564       -8.5209322254  MEMB      168             0.0000000000
     19438       168  SAPE      H7X            23.8459601191       29.5969228525       -7.6177867927  MEMB      168             0.0000000000
     19439       168  SAPE      H7Y            25.0346914089       29.8517376203       -7.9775955961  MEMB      168             0.0000000000
     19440       168  SAPE      C38            25.0327559432       28.0169039698       -8.1064909213  MEMB      168             0.0000000000
     19441       168  SAPE      H8X            25.8642678421       28.4483500097       -7.4378566296  MEMB      168             0.0000000000
     19442       168  SAPE      H8Y            25.4094355801       27.6652494269       -9.0741416908  MEMB      168             0.0000000000
     19443       168  SAPE      C39            23.7862910302       27.4907395348       -7.4804022603  MEMB      168             0.0000000000
     19444       168  SAPE      H9X            22.9272279158       27.4750633667       -8.2184854985  MEMB      168             0.0000000000
     19445       168  SAPE      H9Y            23.4122182944       28.1155967140       -6.6193955148  MEMB      168             0.0000000000
     19446       168  SAPE      C310           24.3280070214       26.2137455582       -7.0462065005  MEMB      168             0.0000000000
     19447       168  SAPE      H10X           24.4272870089       25.6320115101       -7.9905303349  MEMB      168             0.0000000000
     19448       168  SAPE      H10Y           23.5571574775       25.8331933775       -6.3612742120  MEMB      168             0.0000000000
     19449       168  SAPE      C311           25.6974306534       26.3925010149       -6.3566118188  MEMB      168             0.0000000000
     19450       168  SAPE      H11X           26.5501626922       26.7361150329       -7.0070506888  MEMB      168             0.0000000000
     19451       168  SAPE      H11Y           26.0546080765       25.4167240586       -6.0237436801  MEMB      168             0.0000000000
     19452       168  SAPE      C312           25.6126689920       27.3286690914       -5.1431517903  MEMB      168             0.0000000000
     19453       168  SAPE      H12X           25.4689299585       28.3996998785       -5.4437367188  MEMB      168             0.0000000000
     19454       168  SAPE      H12Y           26.5477393788       27.1117760350       -4.6077523770  MEMB      168             0.0000000000
     19455       168  SAPE      C313           24.6886878799       26.9221975107       -4.0150038822  MEMB      168             0.0000000000
     19456       168  SAPE      H13X           24.9308615462       25.8596553065       -3.8097073448  MEMB      168             0.0000000000
     19457       168  SAPE      H13Y           23.6462643769       27.0916968716       -4.3487809419  MEMB      168             0.0000000000
     19458       168  SAPE      C314           24.9120773477       27.6460369042       -2.6955294573  MEMB      168             0.0000000000
     19459       168  SAPE      H14X           25.8535517313       27.3867158475       -2.1591813840  MEMB      168             0.0000000000
     19460       168  SAPE      H14Y           24.0422411333       27.4968955469       -2.0143511348  MEMB      168             0.0000000000
     19461       168  SAPE      C315           24.9061921964       29.1180002651       -2.8598870153  MEMB      168             0.0000000000
     19462       168  SAPE      H15X           24.0479351405       29.3844156262       -3.5121088700  MEMB      168             0.0000000000
     19463       168  SAPE      H15Y           25.7962954449       29.4314950595       -3.4426978304  MEMB      168             0.0000000000
     19464       168  SAPE      C316           24.7381188893       29.6529780703       -1.4161299062  MEMB      168             0.0000000000
     19465       168  SAPE      H16X           23.7031457971       29.8434601031       -1.1367736823  MEMB      168             0.0000000000
     19466       168  SAPE      H16Y           24.8419646198       30.6901738482       -1.2518149666  MEMB      168             0.0000000000
     19467       168  SAPE      C317           25.9807695812       29.5299988225       -0.5703127029  MEMB      168             0.0000000000
     19468       168  SAPE      H17X           26.7225113560       29.5984093233       -1.3762882056  MEMB      168             0.0000000000
     19469       168  SAPE      H17Y           25.9383626499       28.6539020204        0.0430729254  MEMB      168             0.0000000000
     19470       168  SAPE      C318           26.4368695847       30.6660503427        0.2803778770  MEMB      168             0.0000000000
     19471       168  SAPE      H18X           27.2923411564       30.6624313920        0.9502921719  MEMB      168             0.0000000000
     19472       168  SAPE      H18Y           25.6351700435       30.9562772937        0.9738918756  MEMB      168             0.0000000000
     19473       168  SAPE      H18Z           26.7524643866       31.3639768335       -0.5755350055  MEMB      168             0.0000000000
     19474       169  SOPE      N              10.1071612035       37.7544041343      -21.3520850693  MEMB      169             0.0000000000
     19475       169  SOPE      HN1            10.7780323007       38.5609970736      -21.2472469761  MEMB      169             0.0000000000
     19476       169  SOPE      HN2            10.3448248420       37.2236206783      -22.2253970651  MEMB      169             0.0000000000
     19477       169  SOPE      HN3             9.1862286562       38.1899721320      -21.5278081635  MEMB      169             0.0000000000
     19478       169  SOPE      C12            10.2347124695       36.7563611945      -20.2269704526  MEMB      169             0.0000000000
     19479       169  SOPE      H12A            9.8427231139       37.2099231156      -19.3538468362  MEMB      169             0.0000000000
     19480       169  SOPE      H12B           11.3025410238       36.5689363729      -20.0233411399  MEMB      169             0.0000000000
     19481       169  SOPE      C11             9.3474318138       35.5723292381      -20.1690918165  MEMB      169             0.0000000000
     19482       169  SOPE      H11A            8.2860642040       35.8868947964      -20.1093997680  MEMB      169             0.0000000000
     19483       169  SOPE      H11B            9.6099494566       35.0219699237      -19.2174760445  MEMB      169             0.0000000000
     19484       169  SOPE      P              10.3269372627       33.5115750312      -21.3248439748  MEMB      169             0.0000000000
     19485       169  SOPE      O13            11.5231582779       33.4922435700      -20.4680089791  MEMB      169             0.0000000000
     19486       169  SOPE      O14            10.4391227706       33.0946716651      -22.7245174611  MEMB      169             0.0000000000
     19487       169  SOPE      O12             9.6254971928       34.9098255439      -21.3610421132  MEMB      169             0.0000000000
     19488       169  SOPE      O11             9.2576387618       32.7005958443      -20.6086583257  MEMB      169             0.0000000000
     19489       169  SOPE      C1              8.0306497229       32.3781679764      -21.1703590610  MEMB      169             0.0000000000
     19490       169  SOPE      HA              8.1165700256       31.7067356131      -22.0560983348  MEMB      169             0.0000000000
     19491       169  SOPE      HB              7.3947876387       33.2661836616      -21.4345470453  MEMB      169             0.0000000000
     19492       169  SOPE      C2              7.3599999974       31.6482849855      -20.0639959525  MEMB      169             0.0000000000
     19493       169  SOPE      HS              6.4046199052       31.5749802838      -20.2574875401  MEMB      169             0.0000000000
     19494       169  SOPE      O21             7.4868647489       32.3485193149      -18.8357984915  MEMB      169             0.0000000000
     19495       169  SOPE      C21             6.4451923283       32.3961263492      -18.0904204506  MEMB      169             0.0000000000
     19496       169  SOPE      O22             5.3143522825       32.0127525713      -18.3130025507  MEMB      169             0.0000000000
     19497       169  SOPE      C22             6.7593027344       33.1169226432      -16.8721064376  MEMB      169             0.0000000000
     19498       169  SOPE      H2R             7.2090861695       32.5207137769      -16.0844141932  MEMB      169             0.0000000000
     19499       169  SOPE      H2S             5.7747388984       32.9225501878      -16.4791120327  MEMB      169             0.0000000000
     19500       169  SOPE      C3              7.8115722402       30.1604331247      -19.9162261041  MEMB      169             0.0000000000
     19501       169  SOPE      HX              7.6180405683       29.5557775004      -20.8061386466  MEMB      169             0.0000000000
     19502       169  SOPE      HY              7.2373038764       29.5385484462      -19.2598357539  MEMB      169             0.0000000000
     19503       169  SOPE      O31             9.0308309391       29.9696174722      -19.3887076927  MEMB      169             0.0000000000
     19504       169  SOPE      C31             8.9543285483       30.1545755322      -18.0904245178  MEMB      169             0.0000000000
     19505       169  SOPE      O32             7.9729663085       30.2450284121      -17.3605273381  MEMB      169             0.0000000000
     19506       169  SOPE      C32            10.2905361054       30.2056109238      -17.7410834024  MEMB      169             0.0000000000
     19507       169  SOPE      H2X            10.9286669980       30.4048761442      -18.6250925135  MEMB      169             0.0000000000
     19508       169  SOPE      H2Y            10.3704947977       29.2742319163      -17.1620911004  MEMB      169             0.0000000000
     19509       169  SOPE      C23             7.2966068355       34.5802572199      -17.1233296249  MEMB      169             0.0000000000
     19510       169  SOPE      H3R             6.6510322184       35.0613836784      -17.9049799762  MEMB      169             0.0000000000
     19511       169  SOPE      H3S             8.2692377566       34.3834139947      -17.6029561164  MEMB      169             0.0000000000
     19512       169  SOPE      C24             7.4822962669       35.5261322699      -15.8588188162  MEMB      169             0.0000000000
     19513       169  SOPE      H4R             6.6110617544       36.1970504341      -15.5907393147  MEMB      169             0.0000000000
     19514       169  SOPE      H4S             7.6889288759       35.0057477549      -14.9308033655  MEMB      169             0.0000000000
     19515       169  SOPE      C25             8.1416981509       36.8145595618      -15.9832719787  MEMB      169             0.0000000000
     19516       169  SOPE      H5R             9.1650494668       36.6181527888      -16.3110642591  MEMB      169             0.0000000000
     19517       169  SOPE      H5S             7.4837050868       37.0291944838      -16.8155543784  MEMB      169             0.0000000000
     19518       169  SOPE      C26             7.8498103746       37.8187005540      -14.8379822869  MEMB      169             0.0000000000
     19519       169  SOPE      H6R             7.9995000092       38.8286077370      -15.2773479186  MEMB      169             0.0000000000
     19520       169  SOPE      H6S             6.7982229331       37.8551567049      -14.4593390249  MEMB      169             0.0000000000
     19521       169  SOPE      C27             8.8045417020       37.6108158755      -13.6584665143  MEMB      169             0.0000000000
     19522       169  SOPE      H7R             9.7850601092       37.2942957450      -14.0553112789  MEMB      169             0.0000000000
     19523       169  SOPE      H7S             8.9586399794       38.5975117799      -13.1789599827  MEMB      169             0.0000000000
     19524       169  SOPE      C28             8.4567719327       36.4989890938      -12.6364233813  MEMB      169             0.0000000000
     19525       169  SOPE      H8R             8.5746404086       35.5180816709      -13.1515029295  MEMB      169             0.0000000000
     19526       169  SOPE      H8S             9.2176355589       36.4788934944      -11.8320718968  MEMB      169             0.0000000000
     19527       169  SOPE      C29             7.1022673844       36.5568505593      -11.9982085520  MEMB      169             0.0000000000
     19528       169  SOPE      H91             6.4073132966       35.7992535416      -12.2825041238  MEMB      169             0.0000000000
     19529       169  SOPE      C210            6.6025304821       37.2272839368      -10.9889629802  MEMB      169             0.0000000000
     19530       169  SOPE      H101            5.5638484389       36.9968330532      -10.7195871498  MEMB      169             0.0000000000
     19531       169  SOPE      C211            7.3132868136       38.1947032947      -10.1340579835  MEMB      169             0.0000000000
     19532       169  SOPE      H11R            6.5958335452       38.9854343055       -9.8520623530  MEMB      169             0.0000000000
     19533       169  SOPE      H11S            8.1532337145       38.6576072693      -10.6905311373  MEMB      169             0.0000000000
     19534       169  SOPE      C212            7.8590542129       37.4381285586       -8.9231720399  MEMB      169             0.0000000000
     19535       169  SOPE      H12R            8.3867866485       38.1710457100       -8.2744752309  MEMB      169             0.0000000000
     19536       169  SOPE      H12S            8.6123264386       36.6853924247       -9.2575182053  MEMB      169             0.0000000000
     19537       169  SOPE      C213            6.8111992283       36.7343748098       -8.0662890684  MEMB      169             0.0000000000
     19538       169  SOPE      H13R            6.2767147276       35.9125492915       -8.6084685282  MEMB      169             0.0000000000
     19539       169  SOPE      H13S            6.0297484869       37.4499542712       -7.7309178128  MEMB      169             0.0000000000
     19540       169  SOPE      C214            7.4812537750       36.1629181433       -6.8257340983  MEMB      169             0.0000000000
     19541       169  SOPE      H14R            8.2362835144       36.7647812093       -6.3088354829  MEMB      169             0.0000000000
     19542       169  SOPE      H14S            8.0325186041       35.2516930596       -7.1616092790  MEMB      169             0.0000000000
     19543       169  SOPE      C215            6.4410114277       35.9620561259       -5.7640711660  MEMB      169             0.0000000000
     19544       169  SOPE      H15R            5.5695041694       35.6163673726       -6.3904841492  MEMB      169             0.0000000000
     19545       169  SOPE      H15S            5.9080630508       36.7547501196       -5.2330193522  MEMB      169             0.0000000000
     19546       169  SOPE      C216            6.9146770086       35.0041060969       -4.6599807577  MEMB      169             0.0000000000
     19547       169  SOPE      H16R            7.3475618627       34.1187016030       -5.0466502491  MEMB      169             0.0000000000
     19548       169  SOPE      H16S            5.8812330375       34.7664802352       -4.6259707876  MEMB      169             0.0000000000
     19549       169  SOPE      C217            7.8534826137       35.2530950941       -3.4080299396  MEMB      169             0.0000000000
     19550       169  SOPE      H17R            7.5869226162       36.2366122517       -3.0780104750  MEMB      169             0.0000000000
     19551       169  SOPE      H17S            8.6900312296       35.3410776056       -4.1453435531  MEMB      169             0.0000000000
     19552       169  SOPE      C218            8.1980160616       34.4113981951       -2.0136070870  MEMB      169             0.0000000000
     19553       169  SOPE      H18R            7.2649660118       34.3896692906       -1.4404489331  MEMB      169             0.0000000000
     19554       169  SOPE      H18S            9.2590201293       34.3081627018       -1.6840156590  MEMB      169             0.0000000000
     19555       169  SOPE      H18T            8.3748124975       33.2938167931       -1.8469224109  MEMB      169             0.0000000000
     19556       169  SOPE      C33            10.4641586270       31.1745630806      -16.7163712287  MEMB      169             0.0000000000
     19557       169  SOPE      H3X            11.3497988002       31.2145798448      -16.1419059757  MEMB      169             0.0000000000
     19558       169  SOPE      H3Y             9.8470196849       30.8462889707      -15.9772642976  MEMB      169             0.0000000000
     19559       169  SOPE      C34            10.4995287590       32.5347546592      -17.1032231814  MEMB      169             0.0000000000
     19560       169  SOPE      H4X             9.4787237532       32.6552986251      -17.4973943155  MEMB      169             0.0000000000
     19561       169  SOPE      H4Y            11.3213843086       32.5851915745      -17.8592457790  MEMB      169             0.0000000000
     19562       169  SOPE      C35            10.7256700612       33.2660218705      -15.7955251752  MEMB      169             0.0000000000
     19563       169  SOPE      H5X            10.0333886446       32.8622773633      -15.0148494643  MEMB      169             0.0000000000
     19564       169  SOPE      H5Y            10.4494007724       34.2909318893      -16.0695031941  MEMB      169             0.0000000000
     19565       169  SOPE      C36            12.1466237443       33.3306719426      -15.2320043016  MEMB      169             0.0000000000
     19566       169  SOPE      H6X            12.7828306834       33.7993055407      -16.0105470590  MEMB      169             0.0000000000
     19567       169  SOPE      H6Y            12.6454957945       32.3696447011      -14.9812868306  MEMB      169             0.0000000000
     19568       169  SOPE      C37            12.1073413754       34.1907188855      -13.9766645430  MEMB      169             0.0000000000
     19569       169  SOPE      H7X            11.3902028043       33.7977813542      -13.2369764034  MEMB      169             0.0000000000
     19570       169  SOPE      H7Y            11.8703807209       35.2472628239      -14.2594247940  MEMB      169             0.0000000000
     19571       169  SOPE      C38            13.4241719596       34.1288839513      -13.2791774594  MEMB      169             0.0000000000
     19572       169  SOPE      H8X            14.0194603890       34.3382355035      -14.1199163230  MEMB      169             0.0000000000
     19573       169  SOPE      H8Y            13.7655742846       33.1190664599      -12.9775012058  MEMB      169             0.0000000000
     19574       169  SOPE      C39            13.6036051756       35.1713660485      -12.1992819543  MEMB      169             0.0000000000
     19575       169  SOPE      H9X            13.5185641402       36.2220547843      -12.5747608162  MEMB      169             0.0000000000
     19576       169  SOPE      H9Y            14.6406029380       34.9900349926      -11.8619229141  MEMB      169             0.0000000000
     19577       169  SOPE      C310           12.6655380454       34.7443553470      -11.1195845276  MEMB      169             0.0000000000
     19578       169  SOPE      H10X           12.9847672581       33.6716474904      -10.9793983125  MEMB      169             0.0000000000
     19579       169  SOPE      H10Y           11.6574603062       34.9067913883      -11.5029966479  MEMB      169             0.0000000000
     19580       169  SOPE      C311           12.7825519227       35.4646042305       -9.8133719765  MEMB      169             0.0000000000
     19581       169  SOPE      H11X           12.8081496060       36.5606921435       -9.9230593645  MEMB      169             0.0000000000
     19582       169  SOPE      H11Y           13.7872824974       35.0718944383       -9.7610289357  MEMB      169             0.0000000000
     19583       169  SOPE      C312           12.0211326418       34.9198974708       -8.5692277163  MEMB      169             0.0000000000
     19584       169  SOPE      H12X           12.4634271262       33.9055738311       -8.3570982537  MEMB      169             0.0000000000
     19585       169  SOPE      H12Y           10.9859869371       34.9058753900       -8.9190679957  MEMB      169             0.0000000000
     19586       169  SOPE      C313           12.0539848718       35.7310748725       -7.2293090804  MEMB      169             0.0000000000
     19587       169  SOPE      H13X           12.1608315319       36.8202988441       -7.3451422006  MEMB      169             0.0000000000
     19588       169  SOPE      H13Y           12.9619626065       35.4683659515       -6.7532862299  MEMB      169             0.0000000000
     19589       169  SOPE      C314           11.5134806844       35.1269041060       -5.9230584409  MEMB      169             0.0000000000
     19590       169  SOPE      H14X           12.0487060920       34.1530401907       -5.7139382070  MEMB      169             0.0000000000
     19591       169  SOPE      H14Y           10.4929529754       34.8804716291       -6.2085128690  MEMB      169             0.0000000000
     19592       169  SOPE      C315           11.5605375182       36.0102733544       -4.6333018785  MEMB      169             0.0000000000
     19593       169  SOPE      H15X           12.4686488473       36.2341368032       -4.0479295894  MEMB      169             0.0000000000
     19594       169  SOPE      H15Y           11.0579909044       35.3662052799       -3.8958754287  MEMB      169             0.0000000000
     19595       169  SOPE      C316           11.1608203670       37.4672728884       -4.8161957057  MEMB      169             0.0000000000
     19596       169  SOPE      H16X           10.2435276535       37.4651442863       -5.4254832090  MEMB      169             0.0000000000
     19597       169  SOPE      H16Y           11.9414467549       38.0468568002       -5.3681463795  MEMB      169             0.0000000000
     19598       169  SOPE      C317           10.9824404463       38.1752607377       -3.4758014008  MEMB      169             0.0000000000
     19599       169  SOPE      H17X           10.6778994622       39.2210221792       -3.6954932003  MEMB      169             0.0000000000
     19600       169  SOPE      H17Y           11.9392774543       38.1887868030       -2.8983114252  MEMB      169             0.0000000000
     19601       169  SOPE      C318            9.8971799188       37.5429011678       -2.6381433694  MEMB      169             0.0000000000
     19602       169  SOPE      H18X            9.8931963301       37.9048870482       -1.5923297662  MEMB      169             0.0000000000
     19603       169  SOPE      H18Y           10.0394067809       36.4453770295       -2.6070038006  MEMB      169             0.0000000000
     19604       169  SOPE      H18Z            8.9270259637       37.7792096752       -3.1299268998  MEMB      169             0.0000000000
     19605       170  SLPC      N             -22.8828824136      -27.6162771735      -18.8741873841  MEMB      170             0.0000000000
     19606       170  SLPC      C13           -24.3579041056      -27.6264365655      -19.1854447709  MEMB      170             0.0000000000
     19607       170  SLPC      H13A          -24.5818718419      -27.1946818591      -20.1534004076  MEMB      170             0.0000000000
     19608       170  SLPC      H13B          -24.8162382516      -28.6137368878      -19.1190764188  MEMB      170             0.0000000000
     19609       170  SLPC      H13C          -24.8825699964      -27.0384628439      -18.4280018068  MEMB      170             0.0000000000
     19610       170  SLPC      C14           -22.4370893257      -26.1904084242      -18.9784143539  MEMB      170             0.0000000000
     19611       170  SLPC      H14A          -22.6407926677      -25.8451521659      -19.9929745969  MEMB      170             0.0000000000
     19612       170  SLPC      H14B          -23.0425931134      -25.6186206572      -18.2760609742  MEMB      170             0.0000000000
     19613       170  SLPC      H14C          -21.3901967857      -26.0755740119      -18.7613424435  MEMB      170             0.0000000000
     19614       170  SLPC      C15           -22.1312624533      -28.4823275062      -19.8369951892  MEMB      170             0.0000000000
     19615       170  SLPC      H15A          -21.0617882469      -28.3933108432      -19.6913146790  MEMB      170             0.0000000000
     19616       170  SLPC      H15B          -22.3795080978      -29.5352894282      -19.7004502962  MEMB      170             0.0000000000
     19617       170  SLPC      H15C          -22.3609435545      -28.2266369182      -20.8667746633  MEMB      170             0.0000000000
     19618       170  SLPC      C12           -22.6802942439      -28.2129075492      -17.4961293180  MEMB      170             0.0000000000
     19619       170  SLPC      H12A          -21.6222222237      -28.2909265827      -17.2956023665  MEMB      170             0.0000000000
     19620       170  SLPC      H12B          -23.0718238336      -29.2313799111      -17.5544121764  MEMB      170             0.0000000000
     19621       170  SLPC      C11           -23.3553183624      -27.5531517426      -16.2715684784  MEMB      170             0.0000000000
     19622       170  SLPC      H11A          -23.1624622095      -26.4632396113      -16.2543113628  MEMB      170             0.0000000000
     19623       170  SLPC      H11B          -22.8700106722      -27.9853895311      -15.3574617283  MEMB      170             0.0000000000
     19624       170  SLPC      P             -25.3814209525      -28.7794913217      -15.2172028642  MEMB      170             0.0000000000
     19625       170  SLPC      O13           -25.2519037832      -30.1155593174      -15.8230626566  MEMB      170             0.0000000000
     19626       170  SLPC      O14           -24.7331808781      -28.5784005678      -13.9007725712  MEMB      170             0.0000000000
     19627       170  SLPC      O12           -24.7652047967      -27.7521808029      -16.2786281926  MEMB      170             0.0000000000
     19628       170  SLPC      O11           -26.9189256734      -28.3275211469      -15.1576256360  MEMB      170             0.0000000000
     19629       170  SLPC      C1            -27.6284284469      -28.3727117845      -16.4114390639  MEMB      170             0.0000000000
     19630       170  SLPC      HA            -27.2130116216      -27.6012677563      -17.1026429163  MEMB      170             0.0000000000
     19631       170  SLPC      HB            -27.5472939156      -29.3777922443      -16.8767661801  MEMB      170             0.0000000000
     19632       170  SLPC      C2            -29.1723823224      -28.1774000546      -16.2987940132  MEMB      170             0.0000000000
     19633       170  SLPC      HS            -29.6243024740      -27.9820611246      -17.2905600571  MEMB      170             0.0000000000
     19634       170  SLPC      O21           -29.5196820964      -27.0930632873      -15.5203233350  MEMB      170             0.0000000000
     19635       170  SLPC      C21           -28.8441602454      -26.0270611882      -15.6948126075  MEMB      170             0.0000000000
     19636       170  SLPC      O22           -28.2681036523      -25.5766633595      -16.6482206900  MEMB      170             0.0000000000
     19637       170  SLPC      C22           -29.1186094729      -25.2920251435      -14.5108344950  MEMB      170             0.0000000000
     19638       170  SLPC      H2R           -29.2350546299      -24.3074819253      -14.9285191072  MEMB      170             0.0000000000
     19639       170  SLPC      H2S           -29.9836189136      -25.7653825616      -14.0034222071  MEMB      170             0.0000000000
     19640       170  SLPC      C3            -29.9055848111      -29.3706519543      -15.6584723070  MEMB      170             0.0000000000
     19641       170  SLPC      HX            -29.7649102070      -30.2513674911      -16.3175588448  MEMB      170             0.0000000000
     19642       170  SLPC      HY            -30.9893093117      -29.1328578000      -15.6412142268  MEMB      170             0.0000000000
     19643       170  SLPC      O31           -29.4965959867      -29.5795191285      -14.2964966361  MEMB      170             0.0000000000
     19644       170  SLPC      C31           -28.5613570937      -30.4924892670      -14.1228082546  MEMB      170             0.0000000000
     19645       170  SLPC      O32           -28.1920160713      -31.3092003767      -14.9460908366  MEMB      170             0.0000000000
     19646       170  SLPC      C32           -28.2538793206      -30.4916301694      -12.6396403475  MEMB      170             0.0000000000
     19647       170  SLPC      H2X           -29.2052033977      -30.6499349947      -12.0841131527  MEMB      170             0.0000000000
     19648       170  SLPC      H2Y           -27.7506907929      -29.5694986373      -12.3246049518  MEMB      170             0.0000000000
     19649       170  SLPC      C23           -28.0984229722      -24.8751385528      -13.5344825420  MEMB      170             0.0000000000
     19650       170  SLPC      H3R           -28.4293111272      -24.0031252643      -12.9336446580  MEMB      170             0.0000000000
     19651       170  SLPC      H3S           -27.2447349688      -24.5274990058      -14.1312243924  MEMB      170             0.0000000000
     19652       170  SLPC      C24           -27.9810808920      -26.0203644563      -12.6293322324  MEMB      170             0.0000000000
     19653       170  SLPC      H4R           -27.9060641162      -26.9113798915      -13.2721600836  MEMB      170             0.0000000000
     19654       170  SLPC      H4S           -28.9153442139      -26.1061846611      -12.0426292987  MEMB      170             0.0000000000
     19655       170  SLPC      C25           -26.7080846698      -25.9056239650      -11.8717185714  MEMB      170             0.0000000000
     19656       170  SLPC      H5R           -26.8015350783      -25.1324469931      -11.1239070031  MEMB      170             0.0000000000
     19657       170  SLPC      H5S           -25.8732281080      -25.6820201760      -12.5736987613  MEMB      170             0.0000000000
     19658       170  SLPC      C26           -26.3799928140      -27.0439943593      -10.9716239651  MEMB      170             0.0000000000
     19659       170  SLPC      H6R           -25.4962948769      -26.7384772695      -10.3669638103  MEMB      170             0.0000000000
     19660       170  SLPC      H6S           -26.0569790966      -27.8929556851      -11.5902864237  MEMB      170             0.0000000000
     19661       170  SLPC      C27           -27.5534766907      -27.5555494651      -10.1159750934  MEMB      170             0.0000000000
     19662       170  SLPC      H7R           -27.0335963966      -28.2305603348       -9.3575778778  MEMB      170             0.0000000000
     19663       170  SLPC      H7S           -28.1899943356      -28.1831046375      -10.7336538072  MEMB      170             0.0000000000
     19664       170  SLPC      C28           -28.7530832636      -26.6762584550       -9.6956632915  MEMB      170             0.0000000000
     19665       170  SLPC      H8R           -29.4756251092      -27.2024012418       -9.0820486956  MEMB      170             0.0000000000
     19666       170  SLPC      H8S           -29.0885147472      -25.7982756485      -10.2855675662  MEMB      170             0.0000000000
     19667       170  SLPC      C29           -27.8630778916      -26.2696790703       -8.7993022692  MEMB      170             0.0000000000
     19668       170  SLPC      H9R           -28.2221019552      -25.1328531665       -9.0375086052  MEMB      170             0.0000000000
     19669       170  SLPC      C210          -27.8406601484      -26.5685158537       -7.5143425195  MEMB      170             0.0000000000
     19670       170  SLPC      H10R          -27.7140747079      -25.5085326474       -7.6350531174  MEMB      170             0.0000000000
     19671       170  SLPC      C211          -28.5705122683      -27.2530905438       -6.1735637104  MEMB      170             0.0000000000
     19672       170  SLPC      H11R          -29.7032663796      -27.3052211811       -5.9873160899  MEMB      170             0.0000000000
     19673       170  SLPC      H11S          -28.8058426474      -26.5143342698       -5.3482008375  MEMB      170             0.0000000000
     19674       170  SLPC      C212          -28.1270526888      -28.1007194303       -5.1531683234  MEMB      170             0.0000000000
     19675       170  SLPC      H12R          -28.1728289291      -28.9718379136       -5.7479884551  MEMB      170             0.0000000000
     19676       170  SLPC      C213          -27.8801465656      -27.9515905234       -3.8462828833  MEMB      170             0.0000000000
     19677       170  SLPC      H13R          -27.3114865608      -28.7510173704       -3.4454510284  MEMB      170             0.0000000000
     19678       170  SLPC      C214          -27.9924961883      -26.7123676447       -3.0033688598  MEMB      170             0.0000000000
     19679       170  SLPC      H14R          -28.4423522016      -25.8911626588       -3.5455697301  MEMB      170             0.0000000000
     19680       170  SLPC      H14S          -27.0371699108      -26.4815529218       -2.4874129556  MEMB      170             0.0000000000
     19681       170  SLPC      C215          -29.0611826763      -26.4516308925       -2.0127224416  MEMB      170             0.0000000000
     19682       170  SLPC      H15R          -28.9640357254      -27.3511941074       -1.6980653889  MEMB      170             0.0000000000
     19683       170  SLPC      H15S          -30.0642852978      -26.7251674860       -2.2158206326  MEMB      170             0.0000000000
     19684       170  SLPC      C216          -28.7794952797      -25.7001612609       -0.7897512481  MEMB      170             0.0000000000
     19685       170  SLPC      H16R          -27.7319392320      -25.6150501039       -0.4013207797  MEMB      170             0.0000000000
     19686       170  SLPC      H16S          -29.5041377844      -26.2035305356       -0.1035535319  MEMB      170             0.0000000000
     19687       170  SLPC      C217          -29.4361738371      -24.4283485234       -0.8877974574  MEMB      170             0.0000000000
     19688       170  SLPC      H17R          -30.5085485100      -24.7094767634       -0.9634321338  MEMB      170             0.0000000000
     19689       170  SLPC      H17S          -29.2433501476      -23.6900445352       -1.6260390380  MEMB      170             0.0000000000
     19690       170  SLPC      C218          -29.0007953252      -23.5447624948        0.1402599951  MEMB      170             0.0000000000
     19691       170  SLPC      H18R          -29.1598805943      -24.2658555277        0.9414728756  MEMB      170             0.0000000000
     19692       170  SLPC      H18S          -29.6222751498      -22.6391262185        0.0221953512  MEMB      170             0.0000000000
     19693       170  SLPC      H18T          -28.0527918593      -23.1603621439        0.4127693991  MEMB      170             0.0000000000
     19694       170  SLPC      C33           -27.3601168580      -31.6337897627      -12.3181503564  MEMB      170             0.0000000000
     19695       170  SLPC      H3X           -26.3628268906      -31.6323818614      -12.8314381732  MEMB      170             0.0000000000
     19696       170  SLPC      H3Y           -28.0126778010      -32.4737842379      -12.6822219407  MEMB      170             0.0000000000
     19697       170  SLPC      C34           -27.1465967744      -31.8346004133      -10.8376748401  MEMB      170             0.0000000000
     19698       170  SLPC      H4X           -26.8643471253      -32.8672735376      -10.8581789303  MEMB      170             0.0000000000
     19699       170  SLPC      H4Y           -28.0959844304      -31.7879218881      -10.2734294896  MEMB      170             0.0000000000
     19700       170  SLPC      C35           -25.9769931032      -31.0657907287      -10.2251033893  MEMB      170             0.0000000000
     19701       170  SLPC      H5X           -25.9650924522      -30.0835367269      -10.7387537328  MEMB      170             0.0000000000
     19702       170  SLPC      H5Y           -24.9971067122      -31.5564058660      -10.4327801430  MEMB      170             0.0000000000
     19703       170  SLPC      C36           -26.1738321690      -30.9100205862       -8.7157556180  MEMB      170             0.0000000000
     19704       170  SLPC      H6X           -26.1447034258      -31.9310669527       -8.2644634117  MEMB      170             0.0000000000
     19705       170  SLPC      H6Y           -27.2060956231      -30.5230208698       -8.5666090674  MEMB      170             0.0000000000
     19706       170  SLPC      C37           -25.2147516887      -29.9075803100       -8.0248421173  MEMB      170             0.0000000000
     19707       170  SLPC      H7X           -25.4963709405      -29.8916939623       -6.9373124700  MEMB      170             0.0000000000
     19708       170  SLPC      H7Y           -25.2468287819      -28.9148726055       -8.4933377301  MEMB      170             0.0000000000
     19709       170  SLPC      C38           -23.7315808309      -30.1964621040       -8.2054749752  MEMB      170             0.0000000000
     19710       170  SLPC      H8X           -23.5421870418      -30.7220751453       -9.1526902044  MEMB      170             0.0000000000
     19711       170  SLPC      H8Y           -23.6428810126      -30.7509765153       -7.2929680948  MEMB      170             0.0000000000
     19712       170  SLPC      C39           -22.4793935186      -29.4475981703       -7.7815712249  MEMB      170             0.0000000000
     19713       170  SLPC      H9X           -22.3185634737      -28.6982154205       -8.5640832694  MEMB      170             0.0000000000
     19714       170  SLPC      H9Y           -21.6305715649      -30.1931404633       -7.7733022586  MEMB      170             0.0000000000
     19715       170  SLPC      C310          -22.5383623663      -28.8917133348       -6.3732766942  MEMB      170             0.0000000000
     19716       170  SLPC      H10X          -21.5129865895      -28.6383582251       -6.0331083167  MEMB      170             0.0000000000
     19717       170  SLPC      H10Y          -22.9493053242      -29.6303580885       -5.6644194611  MEMB      170             0.0000000000
     19718       170  SLPC      C311          -23.4860478420      -27.7190914109       -6.3050379784  MEMB      170             0.0000000000
     19719       170  SLPC      H11X          -24.5200604621      -28.0623834591       -6.5459082333  MEMB      170             0.0000000000
     19720       170  SLPC      H11Y          -23.1336797186      -26.9556895572       -7.0103802665  MEMB      170             0.0000000000
     19721       170  SLPC      C312          -23.5554485877      -27.0762088828       -4.9556673963  MEMB      170             0.0000000000
     19722       170  SLPC      H12X          -24.1822679134      -26.1750355193       -4.9497690781  MEMB      170             0.0000000000
     19723       170  SLPC      H12Y          -22.5384159483      -26.8974858963       -4.5195930047  MEMB      170             0.0000000000
     19724       170  SLPC      C313          -24.3172411083      -27.9635099446       -4.0669593998  MEMB      170             0.0000000000
     19725       170  SLPC      H13X          -23.5832968442      -28.7597146460       -4.1254779748  MEMB      170             0.0000000000
     19726       170  SLPC      H13Y          -25.2487678056      -28.4499178890       -4.4015145796  MEMB      170             0.0000000000
     19727       170  SLPC      C314          -24.4924223943      -27.2692507708       -2.7494006815  MEMB      170             0.0000000000
     19728       170  SLPC      H14X          -25.0418224220      -26.3278484085       -2.7988777358  MEMB      170             0.0000000000
     19729       170  SLPC      H14Y          -23.4909138399      -26.9454200469       -2.3819458715  MEMB      170             0.0000000000
     19730       170  SLPC      C315          -25.2914393551      -28.0705134478       -1.7796580205  MEMB      170             0.0000000000
     19731       170  SLPC      H15X          -24.8651049185      -28.9002358596       -1.2365245208  MEMB      170             0.0000000000
     19732       170  SLPC      H15Y          -26.0636258243      -28.7246298784       -2.1898919471  MEMB      170             0.0000000000
     19733       170  SLPC      C316          -25.5154617550      -27.2352848018       -0.6432789667  MEMB      170             0.0000000000
     19734       170  SLPC      H16X          -25.7532981312      -26.1838825058       -0.7837448961  MEMB      170             0.0000000000
     19735       170  SLPC      H16Y          -24.7809521847      -26.8806805281       -0.0862516251  MEMB      170             0.0000000000
     19736       170  SLPC      C317          -25.7816857759      -28.2181332242        0.4233154938  MEMB      170             0.0000000000
     19737       170  SLPC      H17X          -26.0905572277      -29.2131504233        0.1749877410  MEMB      170             0.0000000000
     19738       170  SLPC      H17Y          -26.5793960816      -27.5475295374        0.2047709267  MEMB      170             0.0000000000
     19739       170  SLPC      C318          -25.6583944005      -28.2183897110        1.8616009417  MEMB      170             0.0000000000
     19740       170  SLPC      H18X          -25.7793091579      -27.1769878042        1.9212981813  MEMB      170             0.0000000000
     19741       170  SLPC      H18Y          -24.8037804348      -28.5138717577        2.3903003614  MEMB      170             0.0000000000
     19742       170  SLPC      H18Z          -26.4097249162      -28.7989956331        2.4226751328  MEMB      170             0.0000000000
     19743       171  SAPC      N             -11.4410636855      -33.4836513556      -20.2742708956  MEMB      171             0.0000000000
     19744       171  SAPC      C12           -10.9532758452      -34.6473525099      -20.9676383051  MEMB      171             0.0000000000
     19745       171  SAPC      H12A          -10.4889230139      -34.4677204106      -21.9312946655  MEMB      171             0.0000000000
     19746       171  SAPC      H12B          -11.8999729383      -35.0994929472      -21.2324373194  MEMB      171             0.0000000000
     19747       171  SAPC      C13           -11.6577996090      -33.8604977979      -18.8442101042  MEMB      171             0.0000000000
     19748       171  SAPC      H13A          -10.6939904500      -34.1601449976      -18.4283324609  MEMB      171             0.0000000000
     19749       171  SAPC      H13B          -12.0818794333      -33.0530166274      -18.2834265354  MEMB      171             0.0000000000
     19750       171  SAPC      H13C          -12.3080125970      -34.7391946850      -18.7751227830  MEMB      171             0.0000000000
     19751       171  SAPC      C14           -10.3632498027      -32.5178618490      -20.4813515569  MEMB      171             0.0000000000
     19752       171  SAPC      H14A          -10.6057450939      -31.6447412792      -19.9401586768  MEMB      171             0.0000000000
     19753       171  SAPC      H14B           -9.4403004688      -32.9724960994      -20.1419590405  MEMB      171             0.0000000000
     19754       171  SAPC      H14C          -10.3120125228      -32.2443832302      -21.5362004140  MEMB      171             0.0000000000
     19755       171  SAPC      C15           -12.7040558294      -32.9078545200      -20.8574395978  MEMB      171             0.0000000000
     19756       171  SAPC      H15A          -12.6983526141      -32.7735011513      -21.9350523010  MEMB      171             0.0000000000
     19757       171  SAPC      H15B          -13.5991837694      -33.4453707954      -20.5649868086  MEMB      171             0.0000000000
     19758       171  SAPC      H15C          -12.7640691076      -31.8915327535      -20.4761792453  MEMB      171             0.0000000000
     19759       171  SAPC      C11           -10.1173105887      -35.6946382842      -20.1793576679  MEMB      171             0.0000000000
     19760       171  SAPC      H11A           -9.7998413913      -36.2367484457      -21.1152525949  MEMB      171             0.0000000000
     19761       171  SAPC      H11B          -10.8525040696      -36.1950516328      -19.4683946232  MEMB      171             0.0000000000
     19762       171  SAPC      P              -8.1247292744      -36.7019239411      -19.0987005955  MEMB      171             0.0000000000
     19763       171  SAPC      O13            -9.0700242104      -37.8525791050      -18.9907542197  MEMB      171             0.0000000000
     19764       171  SAPC      O14            -7.0118901849      -36.7843312750      -20.0423201348  MEMB      171             0.0000000000
     19765       171  SAPC      O12            -8.9483471875      -35.3603298919      -19.4733481946  MEMB      171             0.0000000000
     19766       171  SAPC      O11            -7.4913659955      -36.3408928082      -17.8451246394  MEMB      171             0.0000000000
     19767       171  SAPC      C1             -8.2611103728      -35.4284631852      -17.1189390685  MEMB      171             0.0000000000
     19768       171  SAPC      HA             -8.0289475813      -34.4151310393      -17.4971649805  MEMB      171             0.0000000000
     19769       171  SAPC      HB             -9.3796443262      -35.6214562120      -17.1068922392  MEMB      171             0.0000000000
     19770       171  SAPC      C2             -7.7432343205      -35.8268433728      -15.8159068403  MEMB      171             0.0000000000
     19771       171  SAPC      HS             -6.6266153906      -35.6611309199      -15.8760101118  MEMB      171             0.0000000000
     19772       171  SAPC      O21            -8.1285571065      -37.2247750213      -15.7633692492  MEMB      171             0.0000000000
     19773       171  SAPC      C21            -7.6091267360      -37.7391651184      -14.7721040755  MEMB      171             0.0000000000
     19774       171  SAPC      O22            -6.9826885193      -37.1095118036      -13.9101413341  MEMB      171             0.0000000000
     19775       171  SAPC      C22            -7.7344204586      -39.2857203607      -14.9261461403  MEMB      171             0.0000000000
     19776       171  SAPC      H2R            -7.7499644484      -39.5884769118      -15.9809811920  MEMB      171             0.0000000000
     19777       171  SAPC      H2S            -6.9560716881      -39.8839772567      -14.4421164818  MEMB      171             0.0000000000
     19778       171  SAPC      C3             -8.3843092734      -35.0010201273      -14.7225189879  MEMB      171             0.0000000000
     19779       171  SAPC      HX             -8.1625210892      -33.9495208826      -14.9877755336  MEMB      171             0.0000000000
     19780       171  SAPC      HY             -7.8878802608      -35.1849319770      -13.7460407762  MEMB      171             0.0000000000
     19781       171  SAPC      O31            -9.8009523491      -35.3049327000      -14.6900847497  MEMB      171             0.0000000000
     19782       171  SAPC      C31           -10.3625775355      -34.5781199945      -13.7515060786  MEMB      171             0.0000000000
     19783       171  SAPC      O32            -9.7773770215      -33.7793048383      -13.0456505299  MEMB      171             0.0000000000
     19784       171  SAPC      C32           -11.8554419894      -34.8201851597      -13.6365387626  MEMB      171             0.0000000000
     19785       171  SAPC      H2X           -12.3709401850      -34.9653327644      -14.6073425255  MEMB      171             0.0000000000
     19786       171  SAPC      H2Y           -12.2967862048      -33.9571917242      -13.1055305632  MEMB      171             0.0000000000
     19787       171  SAPC      C23            -8.8897454191      -39.7846903128      -14.1700435368  MEMB      171             0.0000000000
     19788       171  SAPC      H3R            -9.1112098000      -40.8323457576      -14.4552170093  MEMB      171             0.0000000000
     19789       171  SAPC      H3S            -9.7171539278      -39.1153971046      -14.4653591179  MEMB      171             0.0000000000
     19790       171  SAPC      C24            -8.5420485158      -39.7125681122      -12.7029696335  MEMB      171             0.0000000000
     19791       171  SAPC      H4R            -7.7139010145      -40.3209538299      -12.3570380387  MEMB      171             0.0000000000
     19792       171  SAPC      H4S            -9.1426530532      -40.5224248028      -12.2069276209  MEMB      171             0.0000000000
     19793       171  SAPC      C25            -8.8277908435      -38.1827635403      -12.3706217324  MEMB      171             0.0000000000
     19794       171  SAPC      H5R            -9.7705435315      -37.7301969870      -12.3147678482  MEMB      171             0.0000000000
     19795       171  SAPC      C26            -8.4007968172      -37.1948452368      -11.6279540174  MEMB      171             0.0000000000
     19796       171  SAPC      H6R            -9.1094050340      -36.6799406299      -10.9837250239  MEMB      171             0.0000000000
     19797       171  SAPC      C27            -7.3651921159      -37.3574056597      -10.8105131693  MEMB      171             0.0000000000
     19798       171  SAPC      H7R            -6.4388211908      -37.0913304202      -11.2880813286  MEMB      171             0.0000000000
     19799       171  SAPC      H7S            -7.5428876762      -38.4620843292      -10.7290736643  MEMB      171             0.0000000000
     19800       171  SAPC      C28            -7.2985787801      -36.9108470460       -9.4680743735  MEMB      171             0.0000000000
     19801       171  SAPC      H8R            -7.5750818348      -37.8680607166       -9.0500798803  MEMB      171             0.0000000000
     19802       171  SAPC      C29            -6.8422464926      -35.8836943650       -8.7699784177  MEMB      171             0.0000000000
     19803       171  SAPC      H9R            -6.6965301041      -35.9345932554       -7.6629836817  MEMB      171             0.0000000000
     19804       171  SAPC      C210           -6.2148107604      -34.8057789864       -9.5166507763  MEMB      171             0.0000000000
     19805       171  SAPC      H10R           -5.7728149915      -35.2179121277      -10.4566975750  MEMB      171             0.0000000000
     19806       171  SAPC      H10S           -5.3740596313      -34.4499410575       -8.9503362687  MEMB      171             0.0000000000
     19807       171  SAPC      C211           -7.2271043893      -33.7371828175       -9.8267536925  MEMB      171             0.0000000000
     19808       171  SAPC      H11R           -6.9329507595      -33.1772764679      -10.7156923918  MEMB      171             0.0000000000
     19809       171  SAPC      C212           -8.3053428965      -33.2720279004       -9.1548096523  MEMB      171             0.0000000000
     19810       171  SAPC      H12R           -8.9375300047      -32.5575656066       -9.6921979003  MEMB      171             0.0000000000
     19811       171  SAPC      C213           -8.8977194597      -33.6526530160       -7.8231729656  MEMB      171             0.0000000000
     19812       171  SAPC      H13R           -9.0916533364      -32.7242968423       -7.2641793290  MEMB      171             0.0000000000
     19813       171  SAPC      H13S           -8.1601114222      -34.2222521998       -7.1853253888  MEMB      171             0.0000000000
     19814       171  SAPC      C214          -10.2600313173      -34.2939967260       -8.0076562761  MEMB      171             0.0000000000
     19815       171  SAPC      H14R          -10.3386214368      -35.0073839898       -8.8488428474  MEMB      171             0.0000000000
     19816       171  SAPC      C215          -11.1975796734      -34.3895597563       -7.0286671398  MEMB      171             0.0000000000
     19817       171  SAPC      H15R          -12.0465819026      -35.0797357825       -7.1891190734  MEMB      171             0.0000000000
     19818       171  SAPC      C216          -11.0517512107      -33.8666497590       -5.6092181740  MEMB      171             0.0000000000
     19819       171  SAPC      H16R          -10.2109212212      -33.1455218172       -5.5057951833  MEMB      171             0.0000000000
     19820       171  SAPC      H16S          -10.9032864992      -34.6402449503       -4.8144699419  MEMB      171             0.0000000000
     19821       171  SAPC      C217          -12.3775101612      -33.1905242690       -5.2979140230  MEMB      171             0.0000000000
     19822       171  SAPC      H17R          -13.1673671579      -33.9782101214       -5.2394740133  MEMB      171             0.0000000000
     19823       171  SAPC      H17S          -12.5844560234      -32.5087835481       -6.1490629117  MEMB      171             0.0000000000
     19824       171  SAPC      C218          -12.3200887740      -32.3571561826       -4.0251243923  MEMB      171             0.0000000000
     19825       171  SAPC      H18R          -13.2764416909      -31.8254790885       -3.8308945958  MEMB      171             0.0000000000
     19826       171  SAPC      H18S          -11.5297104574      -31.5838406567       -4.1593353520  MEMB      171             0.0000000000
     19827       171  SAPC      C219          -11.9250424292      -33.1877146316       -2.8228827975  MEMB      171             0.0000000000
     19828       171  SAPC      H19R          -11.6934832639      -32.4764211174       -2.0130316591  MEMB      171             0.0000000000
     19829       171  SAPC      H19S          -10.9659999398      -33.6733296499       -3.0278071550  MEMB      171             0.0000000000
     19830       171  SAPC      C220          -12.9195955938      -34.2732868182       -2.4276084472  MEMB      171             0.0000000000
     19831       171  SAPC      H20R          -13.8562150684      -33.8065990319       -2.0644548174  MEMB      171             0.0000000000
     19832       171  SAPC      H20S          -12.4662744761      -34.8723739860       -1.6360951532  MEMB      171             0.0000000000
     19833       171  SAPC      H20T          -13.1471965372      -34.9993819321       -3.2299030127  MEMB      171             0.0000000000
     19834       171  SAPC      C33           -12.0274764627      -35.9859472086      -12.6812864426  MEMB      171             0.0000000000
     19835       171  SAPC      H3X           -11.3588470388      -35.8851162408      -11.8041736051  MEMB      171             0.0000000000
     19836       171  SAPC      H3Y           -11.6396424775      -36.8186531964      -13.2830692708  MEMB      171             0.0000000000
     19837       171  SAPC      C34           -13.4728881675      -36.1245617541      -12.1938895254  MEMB      171             0.0000000000
     19838       171  SAPC      H4X           -14.0627561429      -36.6456626146      -12.9977907904  MEMB      171             0.0000000000
     19839       171  SAPC      H4Y           -13.9063597450      -35.1545151873      -11.9483243010  MEMB      171             0.0000000000
     19840       171  SAPC      C35           -13.7203802069      -36.8330748272      -10.8639127305  MEMB      171             0.0000000000
     19841       171  SAPC      H5X           -13.6260352699      -37.8067500438      -11.1789244549  MEMB      171             0.0000000000
     19842       171  SAPC      H5Y           -14.7673153467      -36.9608388248      -10.5769587920  MEMB      171             0.0000000000
     19843       171  SAPC      C36           -12.8187569071      -36.7002749880       -9.6319703683  MEMB      171             0.0000000000
     19844       171  SAPC      H6X           -13.1258344894      -35.8540953481       -9.0564766728  MEMB      171             0.0000000000
     19845       171  SAPC      H6Y           -11.7256465095      -36.8050791967       -9.8994931007  MEMB      171             0.0000000000
     19846       171  SAPC      C37           -13.2398611861      -37.7215426036       -8.5860913327  MEMB      171             0.0000000000
     19847       171  SAPC      H7X           -13.4762886534      -38.5245330088       -9.2279975695  MEMB      171             0.0000000000
     19848       171  SAPC      H7Y           -14.2679881272      -38.1146294112       -8.5948952224  MEMB      171             0.0000000000
     19849       171  SAPC      C38           -12.4263071183      -37.9300184797       -7.2570383994  MEMB      171             0.0000000000
     19850       171  SAPC      H8X           -12.5440689450      -38.8562236678       -6.6620799833  MEMB      171             0.0000000000
     19851       171  SAPC      H8Y           -12.9020237207      -37.2522986136       -6.5772815048  MEMB      171             0.0000000000
     19852       171  SAPC      C39           -10.9423325456      -37.7981067925       -7.0357541396  MEMB      171             0.0000000000
     19853       171  SAPC      H9X           -10.6419181770      -37.0196465362       -7.7773314719  MEMB      171             0.0000000000
     19854       171  SAPC      H9Y           -10.0612420100      -37.9972491807       -7.6740219089  MEMB      171             0.0000000000
     19855       171  SAPC      C310          -10.4743868809      -38.5733663605       -5.5744597813  MEMB      171             0.0000000000
     19856       171  SAPC      H10X          -10.7804547917      -39.5556647272       -5.3395296524  MEMB      171             0.0000000000
     19857       171  SAPC      H10Y          -11.2435353197      -37.9276655403       -5.2660495140  MEMB      171             0.0000000000
     19858       171  SAPC      C311           -9.0925485380      -38.5742572835       -4.6608827659  MEMB      171             0.0000000000
     19859       171  SAPC      H11X           -8.3451647084      -37.8580164209       -4.7838080405  MEMB      171             0.0000000000
     19860       171  SAPC      H11Y           -8.5050012392      -39.3817444217       -4.9472690090  MEMB      171             0.0000000000
     19861       171  SAPC      C312           -8.3792957406      -38.6127216589       -3.4675567821  MEMB      171             0.0000000000
     19862       171  SAPC      H12X           -7.2381140191      -38.3668634590       -3.4449751187  MEMB      171             0.0000000000
     19863       171  SAPC      H12Y           -8.6137301340      -39.5900733720       -3.1830034024  MEMB      171             0.0000000000
     19864       171  SAPC      C313           -8.9760878331      -37.5608444397       -2.9788283332  MEMB      171             0.0000000000
     19865       171  SAPC      H13X           -8.5893524907      -38.1241001922       -2.0973619377  MEMB      171             0.0000000000
     19866       171  SAPC      H13Y          -10.1014280779      -37.5103999897       -3.0172344050  MEMB      171             0.0000000000
     19867       171  SAPC      C314           -8.3059881470      -36.3579456679       -3.5212430331  MEMB      171             0.0000000000
     19868       171  SAPC      H14X           -7.7432904233      -35.8354691498       -4.4005037457  MEMB      171             0.0000000000
     19869       171  SAPC      H14Y           -7.2165997617      -36.5808487530       -3.6971841506  MEMB      171             0.0000000000
     19870       171  SAPC      C315           -9.1660155200      -35.8460719904       -2.6021542675  MEMB      171             0.0000000000
     19871       171  SAPC      H15X          -10.1112500303      -35.4338811799       -2.7010267913  MEMB      171             0.0000000000
     19872       171  SAPC      H15Y           -8.7661702198      -35.0932469584       -3.2913682853  MEMB      171             0.0000000000
     19873       171  SAPC      C316           -8.7968485849      -36.2780610741       -1.1683735406  MEMB      171             0.0000000000
     19874       171  SAPC      H16X           -8.6312339216      -35.6122941096       -0.4978144526  MEMB      171             0.0000000000
     19875       171  SAPC      H16Y           -7.8986165881      -36.8385847059       -1.0360621832  MEMB      171             0.0000000000
     19876       171  SAPC      C317           -9.5931974690      -36.9090684248       -0.2282806203  MEMB      171             0.0000000000
     19877       171  SAPC      H17X          -10.2875269927      -37.5146113103       -0.7848836789  MEMB      171             0.0000000000
     19878       171  SAPC      H17Y          -10.2080211175      -36.0252709177        0.0237384829  MEMB      171             0.0000000000
     19879       171  SAPC      C318           -8.5784784271      -37.4090858469        0.8835792410  MEMB      171             0.0000000000
     19880       171  SAPC      H18X           -7.9026191952      -36.7609262363        1.4984529474  MEMB      171             0.0000000000
     19881       171  SAPC      H18Y           -8.0536545538      -38.3262224702        0.7588418032  MEMB      171             0.0000000000
     19882       171  SAPC      H18Z           -9.0069397189      -37.4187790360        1.8300249516  MEMB      171             0.0000000000
     19883       172  SLPC      N              34.2661851197       -5.2387849855      -17.4685448189  MEMB      172             0.0000000000
     19884       172  SLPC      C13            32.8216655070       -5.1753805669      -17.8360055478  MEMB      172             0.0000000000
     19885       172  SLPC      H13A           32.6750996240       -4.5543826124      -18.7190762278  MEMB      172             0.0000000000
     19886       172  SLPC      H13B           32.4724975602       -6.1597825875      -18.1182696864  MEMB      172             0.0000000000
     19887       172  SLPC      H13C           32.2055108979       -4.8079974635      -17.0279350279  MEMB      172             0.0000000000
     19888       172  SLPC      C14            34.9334023749       -5.8856203173      -18.6371799671  MEMB      172             0.0000000000
     19889       172  SLPC      H14A           34.6405168028       -6.9237023246      -18.6955410847  MEMB      172             0.0000000000
     19890       172  SLPC      H14B           34.6352471091       -5.3826958985      -19.5420013467  MEMB      172             0.0000000000
     19891       172  SLPC      H14C           36.0207709830       -5.8132113030      -18.5530862722  MEMB      172             0.0000000000
     19892       172  SLPC      C15            34.4808189983       -6.0792580642      -16.2315106148  MEMB      172             0.0000000000
     19893       172  SLPC      H15A           33.8513373882       -5.7787591557      -15.4004608761  MEMB      172             0.0000000000
     19894       172  SLPC      H15B           34.2814816039       -7.1274364226      -16.4061349707  MEMB      172             0.0000000000
     19895       172  SLPC      H15C           35.5172472249       -5.9876197434      -15.8745895197  MEMB      172             0.0000000000
     19896       172  SLPC      C12            34.7889807433       -3.8101434458      -17.2815773792  MEMB      172             0.0000000000
     19897       172  SLPC      H12A           34.5132293973       -3.4604812569      -16.2931763544  MEMB      172             0.0000000000
     19898       172  SLPC      H12B           34.2476953537       -3.2028186798      -17.9837608869  MEMB      172             0.0000000000
     19899       172  SLPC      C11            36.2921498956       -3.4637175002      -17.4942506133  MEMB      172             0.0000000000
     19900       172  SLPC      H11A           36.4830001384       -2.4046465807      -17.1883762860  MEMB      172             0.0000000000
     19901       172  SLPC      H11B           36.5903320385       -3.5575071218      -18.5602830066  MEMB      172             0.0000000000
     19902       172  SLPC      P              38.6433910506       -4.0450801527      -16.4948414941  MEMB      172             0.0000000000
     19903       172  SLPC      O13            39.2521693099       -5.3670092260      -16.4181908390  MEMB      172             0.0000000000
     19904       172  SLPC      O14            39.1530755147       -3.0031421062      -17.4185917824  MEMB      172             0.0000000000
     19905       172  SLPC      O12            37.0904515615       -4.3321304658      -16.7417297546  MEMB      172             0.0000000000
     19906       172  SLPC      O11            38.5458407926       -3.3598364213      -15.0785198498  MEMB      172             0.0000000000
     19907       172  SLPC      C1             39.3394961718       -3.6635397410      -13.9446332574  MEMB      172             0.0000000000
     19908       172  SLPC      HA             40.4326474484       -3.6375217631      -14.1646264541  MEMB      172             0.0000000000
     19909       172  SLPC      HB             39.1452688613       -2.8353865758      -13.2330651992  MEMB      172             0.0000000000
     19910       172  SLPC      C2             38.8795038342       -4.9495780389      -13.1917466483  MEMB      172             0.0000000000
     19911       172  SLPC      HS             39.4532730289       -5.8165980503      -13.6057849245  MEMB      172             0.0000000000
     19912       172  SLPC      O21            37.4649437218       -5.1293504410      -13.4081548318  MEMB      172             0.0000000000
     19913       172  SLPC      C21            36.9770104511       -6.3118498573      -13.1441951318  MEMB      172             0.0000000000
     19914       172  SLPC      O22            37.6041026666       -7.2962657965      -12.8032237618  MEMB      172             0.0000000000
     19915       172  SLPC      C22            35.4453477354       -6.2154314357      -13.1254043500  MEMB      172             0.0000000000
     19916       172  SLPC      H2R            35.1331037796       -5.3475527915      -13.7379283918  MEMB      172             0.0000000000
     19917       172  SLPC      H2S            35.0383335480       -7.1525652027      -13.5540599429  MEMB      172             0.0000000000
     19918       172  SLPC      C3             39.2048048487       -4.8135247806      -11.6614915322  MEMB      172             0.0000000000
     19919       172  SLPC      HX             40.2667894487       -4.4691549642      -11.6327983909  MEMB      172             0.0000000000
     19920       172  SLPC      HY             39.1444770491       -5.8070480414      -11.1708013693  MEMB      172             0.0000000000
     19921       172  SLPC      O31            38.3044566250       -3.8837382257      -11.0005170537  MEMB      172             0.0000000000
     19922       172  SLPC      C31            38.6943889350       -3.3817735049       -9.8317602562  MEMB      172             0.0000000000
     19923       172  SLPC      O32            39.7553538534       -3.6068529631       -9.2921660819  MEMB      172             0.0000000000
     19924       172  SLPC      C32            37.6419793312       -2.4029661502       -9.2891468896  MEMB      172             0.0000000000
     19925       172  SLPC      H2X            36.6888732899       -2.6159694362       -9.8066602078  MEMB      172             0.0000000000
     19926       172  SLPC      H2Y            37.9955580731       -1.3799447141       -9.5303328776  MEMB      172             0.0000000000
     19927       172  SLPC      C23            34.9934423415       -5.9820140585      -11.6626075046  MEMB      172             0.0000000000
     19928       172  SLPC      H3R            35.5173898243       -5.0544574340      -11.3382540169  MEMB      172             0.0000000000
     19929       172  SLPC      H3S            35.3831718355       -6.8205377240      -11.0379245725  MEMB      172             0.0000000000
     19930       172  SLPC      C24            33.4722219526       -5.8431282231      -11.4260602832  MEMB      172             0.0000000000
     19931       172  SLPC      H4R            33.0456920480       -6.8641848209      -11.5385766681  MEMB      172             0.0000000000
     19932       172  SLPC      H4S            32.9868819264       -5.2311657080      -12.2201159581  MEMB      172             0.0000000000
     19933       172  SLPC      C25            33.0615978830       -5.2479818672      -10.0475708134  MEMB      172             0.0000000000
     19934       172  SLPC      H5R            32.0084466371       -5.5291874970       -9.8183476762  MEMB      172             0.0000000000
     19935       172  SLPC      H5S            33.0640868290       -4.1344636186      -10.1032023315  MEMB      172             0.0000000000
     19936       172  SLPC      C26            33.8747522867       -5.6933881045       -8.8119713920  MEMB      172             0.0000000000
     19937       172  SLPC      H6R            34.9626745627       -5.5685776400       -8.9841180905  MEMB      172             0.0000000000
     19938       172  SLPC      H6S            33.7132887990       -6.7804296131       -8.6377730280  MEMB      172             0.0000000000
     19939       172  SLPC      C27            33.4017437810       -4.9454778205       -7.5475335549  MEMB      172             0.0000000000
     19940       172  SLPC      H7R            32.2932600586       -5.0123079285       -7.4964529028  MEMB      172             0.0000000000
     19941       172  SLPC      H7S            33.6666024901       -3.8646488262       -7.5683487103  MEMB      172             0.0000000000
     19942       172  SLPC      C28            33.9942362588       -5.4154373150       -6.2181468923  MEMB      172             0.0000000000
     19943       172  SLPC      H8R            33.4973980269       -4.8544539172       -5.4074366035  MEMB      172             0.0000000000
     19944       172  SLPC      H8S            35.0418722463       -5.0367647511       -6.2063745867  MEMB      172             0.0000000000
     19945       172  SLPC      C29            33.8706700317       -6.8721724676       -5.8854020554  MEMB      172             0.0000000000
     19946       172  SLPC      H9R            32.8861528092       -7.3377143308       -5.7598239728  MEMB      172             0.0000000000
     19947       172  SLPC      C210           34.9411066106       -7.6171698260       -5.7391368007  MEMB      172             0.0000000000
     19948       172  SLPC      H10R           34.8583710408       -8.6811085477       -5.4697493905  MEMB      172             0.0000000000
     19949       172  SLPC      C211           36.3110731305       -7.0849842866       -5.8984417447  MEMB      172             0.0000000000
     19950       172  SLPC      H11R           36.6087374605       -6.0932855058       -6.3014719927  MEMB      172             0.0000000000
     19951       172  SLPC      H11S           36.4668000523       -7.6022557764       -6.8814211555  MEMB      172             0.0000000000
     19952       172  SLPC      C212           37.1259385838       -7.5688594114       -4.7090326063  MEMB      172             0.0000000000
     19953       172  SLPC      H12R           37.0926163645       -8.6485912949       -4.6267594609  MEMB      172             0.0000000000
     19954       172  SLPC      C213           38.1920443374       -7.0167157647       -4.1103087527  MEMB      172             0.0000000000
     19955       172  SLPC      H13R           38.9770979414       -7.6741727857       -3.7013603424  MEMB      172             0.0000000000
     19956       172  SLPC      C214           38.7664773684       -5.7165057137       -4.4879428761  MEMB      172             0.0000000000
     19957       172  SLPC      H14R           38.2999224089       -5.2226140909       -5.3552977376  MEMB      172             0.0000000000
     19958       172  SLPC      H14S           39.8262223106       -5.7008639915       -4.6144464654  MEMB      172             0.0000000000
     19959       172  SLPC      C215           38.4205934943       -5.0091527713       -3.2098940660  MEMB      172             0.0000000000
     19960       172  SLPC      H15R           38.6677984571       -3.9431329822       -3.3810227637  MEMB      172             0.0000000000
     19961       172  SLPC      H15S           38.9906852381       -5.3789947071       -2.3234316600  MEMB      172             0.0000000000
     19962       172  SLPC      C216           36.9360453810       -5.1548338305       -2.9406428836  MEMB      172             0.0000000000
     19963       172  SLPC      H16R           36.6673775594       -6.1433909319       -2.4802240406  MEMB      172             0.0000000000
     19964       172  SLPC      H16S           36.3651075045       -5.0614515734       -3.9020837159  MEMB      172             0.0000000000
     19965       172  SLPC      C217           36.5153045955       -4.1596050944       -1.9774007728  MEMB      172             0.0000000000
     19966       172  SLPC      H17R           36.8913752632       -3.1387590994       -2.2234457431  MEMB      172             0.0000000000
     19967       172  SLPC      H17S           36.9083070180       -4.4235100799       -0.9633071425  MEMB      172             0.0000000000
     19968       172  SLPC      C218           35.0228915268       -4.2294074191       -2.0064820876  MEMB      172             0.0000000000
     19969       172  SLPC      H18R           34.4991548681       -5.0886502924       -1.5658556947  MEMB      172             0.0000000000
     19970       172  SLPC      H18S           34.4998427905       -3.7205923711       -2.8421262748  MEMB      172             0.0000000000
     19971       172  SLPC      H18T           34.9487556355       -3.6334964033       -1.1676875607  MEMB      172             0.0000000000
     19972       172  SLPC      C33            37.3475952830       -2.4910000494       -7.7765855758  MEMB      172             0.0000000000
     19973       172  SLPC      H3X            38.1501046101       -1.9811646659       -7.1907817235  MEMB      172             0.0000000000
     19974       172  SLPC      H3Y            37.2706214018       -3.5624730181       -7.4775919905  MEMB      172             0.0000000000
     19975       172  SLPC      C34            36.0587233656       -1.7894634455       -7.3423367721  MEMB      172             0.0000000000
     19976       172  SLPC      H4X            35.1577578050       -2.1294591747       -7.8990247118  MEMB      172             0.0000000000
     19977       172  SLPC      H4Y            36.1620117878       -0.6943824178       -7.5235139109  MEMB      172             0.0000000000
     19978       172  SLPC      C35            35.8940164953       -1.9807737807       -5.8369062635  MEMB      172             0.0000000000
     19979       172  SLPC      H5X            36.9003466684       -2.0752771392       -5.3632147489  MEMB      172             0.0000000000
     19980       172  SLPC      H5Y            35.3558158423       -2.9277051046       -5.6110888241  MEMB      172             0.0000000000
     19981       172  SLPC      C36            35.1766935280       -0.7936605695       -5.2117238182  MEMB      172             0.0000000000
     19982       172  SLPC      H6X            34.3601580226       -0.4516502846       -5.8833767188  MEMB      172             0.0000000000
     19983       172  SLPC      H6Y            35.8861671292        0.0551906559       -5.0736828672  MEMB      172             0.0000000000
     19984       172  SLPC      C37            34.5391024844       -1.1981277190       -3.8967821862  MEMB      172             0.0000000000
     19985       172  SLPC      H7X            35.3370745707       -1.5900356201       -3.2273987750  MEMB      172             0.0000000000
     19986       172  SLPC      H7Y            33.8231771229       -2.0283604410       -4.0866876618  MEMB      172             0.0000000000
     19987       172  SLPC      C38            33.7472215358       -0.0606680014       -3.2569420364  MEMB      172             0.0000000000
     19988       172  SLPC      H8X            33.2672345971       -0.4621121028       -2.3401537624  MEMB      172             0.0000000000
     19989       172  SLPC      H8Y            32.9199377454        0.2446956992       -3.9391556579  MEMB      172             0.0000000000
     19990       172  SLPC      C39            34.5931281812        1.1723053705       -2.8678153230  MEMB      172             0.0000000000
     19991       172  SLPC      H9X            33.9192145263        1.8227725340       -2.2690472150  MEMB      172             0.0000000000
     19992       172  SLPC      H9Y            34.8774354470        1.7170642086       -3.7893415212  MEMB      172             0.0000000000
     19993       172  SLPC      C310           35.9057762378        0.9225005574       -2.0872856787  MEMB      172             0.0000000000
     19994       172  SLPC      H10X           36.4313861760        1.8463332051       -1.8126511538  MEMB      172             0.0000000000
     19995       172  SLPC      H10Y           36.5751897988        0.2345322927       -2.6713590775  MEMB      172             0.0000000000
     19996       172  SLPC      C311           35.6810641557        0.1954906466       -0.7991888423  MEMB      172             0.0000000000
     19997       172  SLPC      H11X           35.2815455744       -0.6132068959       -1.4249958016  MEMB      172             0.0000000000
     19998       172  SLPC      H11Y           34.8867692477        0.5958357354       -0.1283469589  MEMB      172             0.0000000000
     19999       172  SLPC      C312           36.9517254298       -0.2829764647       -0.0642399082  MEMB      172             0.0000000000
     20000       172  SLPC      H12X           37.2585420276        0.6443373482        0.4545787694  MEMB      172             0.0000000000
     20001       172  SLPC      H12Y           37.6447055948       -0.6928607027       -0.8104388387  MEMB      172             0.0000000000
     20002       172  SLPC      C313           36.9438724915       -1.4058731396        0.9837533266  MEMB      172             0.0000000000
     20003       172  SLPC      H13X           36.5442941129       -2.3584340409        0.6382014505  MEMB      172             0.0000000000
     20004       172  SLPC      H13Y           36.3999826229       -0.9254557976        1.7438450075  MEMB      172             0.0000000000
     20005       172  SLPC      C314           38.2166659454       -2.0253345934        1.5077016608  MEMB      172             0.0000000000
     20006       172  SLPC      H14X           38.8260331679       -1.1780497692        1.8481311706  MEMB      172             0.0000000000
     20007       172  SLPC      H14Y           38.5859295168       -2.5347608307        0.5851551191  MEMB      172             0.0000000000
     20008       172  SLPC      C315           38.1417550068       -3.0379756723        2.6817778773  MEMB      172             0.0000000000
     20009       172  SLPC      H15X           37.9107173785       -2.5255690363        3.6420885486  MEMB      172             0.0000000000
     20010       172  SLPC      H15Y           39.1390479215       -3.5230140739        2.7244163239  MEMB      172             0.0000000000
     20011       172  SLPC      C316           37.1733201134       -4.1824666246        2.5779034683  MEMB      172             0.0000000000
     20012       172  SLPC      H16X           37.0198690506       -4.5406036171        1.5291369559  MEMB      172             0.0000000000
     20013       172  SLPC      H16Y           36.2359152814       -3.8913927276        3.0303872446  MEMB      172             0.0000000000
     20014       172  SLPC      C317           37.0865043665       -5.1561648176        3.6929651612  MEMB      172             0.0000000000
     20015       172  SLPC      H17X           36.5516015041       -4.8831902108        4.6386154890  MEMB      172             0.0000000000
     20016       172  SLPC      H17Y           38.1250411172       -5.4868924804        3.8758052390  MEMB      172             0.0000000000
     20017       172  SLPC      C318           36.2368491492       -6.1923161451        3.1344120454  MEMB      172             0.0000000000
     20018       172  SLPC      H18X           36.7716511674       -7.0063446416        3.6369277645  MEMB      172             0.0000000000
     20019       172  SLPC      H18Y           36.4132265903       -6.2925702565        2.0411054866  MEMB      172             0.0000000000
     20020       172  SLPC      H18Z           35.1449622009       -6.3098746880        3.3190499986  MEMB      172             0.0000000000
     20021       173  CHL1      C3            -23.2994903040       28.5699139099      -17.2969954360  MEMB      173             0.0000000000
     20022       173  CHL1      H3            -24.2082871849       27.9228511889      -17.2898322958  MEMB      173             0.0000000000
     20023       173  CHL1      O3            -22.9424784468       28.9155810725      -18.6276056957  MEMB      173             0.0000000000
     20024       173  CHL1      H3'           -22.6688016942       28.0906884330      -19.0699969735  MEMB      173             0.0000000000
     20025       173  CHL1      C4            -23.6078948999       29.8793625244      -16.5781349552  MEMB      173             0.0000000000
     20026       173  CHL1      H4A           -22.8089978738       30.6204458684      -16.7693711634  MEMB      173             0.0000000000
     20027       173  CHL1      H4B           -24.5350199044       30.3235474317      -17.0212795907  MEMB      173             0.0000000000
     20028       173  CHL1      C5            -23.7440917243       29.6719920433      -15.0968061817  MEMB      173             0.0000000000
     20029       173  CHL1      C6            -24.7277564065       30.1893992071      -14.4603793384  MEMB      173             0.0000000000
     20030       173  CHL1      H6            -25.4174639780       30.8407322505      -14.9902744800  MEMB      173             0.0000000000
     20031       173  CHL1      C7            -24.7457887390       30.1203879169      -12.9979851036  MEMB      173             0.0000000000
     20032       173  CHL1      H7A           -24.8531147246       31.1895579673      -12.7501768741  MEMB      173             0.0000000000
     20033       173  CHL1      H7B           -25.5512571846       29.3969370766      -12.7536097748  MEMB      173             0.0000000000
     20034       173  CHL1      C8            -23.6298973964       29.6644622999      -12.0877470272  MEMB      173             0.0000000000
     20035       173  CHL1      H8            -22.9274102442       30.5100048193      -11.9957678529  MEMB      173             0.0000000000
     20036       173  CHL1      C14           -23.9883584899       29.1884618305      -10.6794895732  MEMB      173             0.0000000000
     20037       173  CHL1      H14           -24.6769968708       28.2971130667      -10.8110809449  MEMB      173             0.0000000000
     20038       173  CHL1      C15           -24.6923686299       30.1187364807       -9.7921697561  MEMB      173             0.0000000000
     20039       173  CHL1      H15A          -24.5923101925       31.2109129903       -9.9402828293  MEMB      173             0.0000000000
     20040       173  CHL1      H15B          -25.6720092106       29.7514172758      -10.0893126748  MEMB      173             0.0000000000
     20041       173  CHL1      C16           -24.6019521036       29.6431138727       -8.3575757371  MEMB      173             0.0000000000
     20042       173  CHL1      H16A          -24.2864580260       30.5302872929       -7.7720664421  MEMB      173             0.0000000000
     20043       173  CHL1      H16B          -25.5718182496       29.2599337254       -7.9531630537  MEMB      173             0.0000000000
     20044       173  CHL1      C17           -23.6191642855       28.4915346882       -8.4348639523  MEMB      173             0.0000000000
     20045       173  CHL1      H17           -24.2488891828       27.5790752536       -8.5800096284  MEMB      173             0.0000000000
     20046       173  CHL1      C13           -22.8862698335       28.7494978787       -9.7550508934  MEMB      173             0.0000000000
     20047       173  CHL1      C18           -21.8779181281       29.8916628679       -9.5244195864  MEMB      173             0.0000000000
     20048       173  CHL1      H18A          -21.6312531908       30.4245138914      -10.4610661102  MEMB      173             0.0000000000
     20049       173  CHL1      H18B          -22.2632123713       30.6314797203       -8.7937551729  MEMB      173             0.0000000000
     20050       173  CHL1      H18C          -20.9504012083       29.4616368946       -9.1052159616  MEMB      173             0.0000000000
     20051       173  CHL1      C12           -22.3605008363       27.5475443208      -10.4506086673  MEMB      173             0.0000000000
     20052       173  CHL1      H12A          -21.4059701714       27.1903895841      -10.0309704427  MEMB      173             0.0000000000
     20053       173  CHL1      H12B          -23.1255119534       26.7437157891      -10.3392319613  MEMB      173             0.0000000000
     20054       173  CHL1      C11           -22.0638270091       27.8980330031      -11.9101600938  MEMB      173             0.0000000000
     20055       173  CHL1      H11A          -21.1598172038       28.5330817196      -11.9286690393  MEMB      173             0.0000000000
     20056       173  CHL1      H11B          -21.9255906767       26.9138343413      -12.2852976401  MEMB      173             0.0000000000
     20057       173  CHL1      C9            -23.1365260963       28.4988852138      -12.8140518387  MEMB      173             0.0000000000
     20058       173  CHL1      H9            -23.9727841358       27.7483417781      -12.8870668732  MEMB      173             0.0000000000
     20059       173  CHL1      C10           -22.7454001904       28.8993594647      -14.2816520011  MEMB      173             0.0000000000
     20060       173  CHL1      C19           -21.6149099982       29.9319287195      -14.2038732196  MEMB      173             0.0000000000
     20061       173  CHL1      H19A          -20.8507176455       29.5146351364      -13.5716091457  MEMB      173             0.0000000000
     20062       173  CHL1      H19B          -21.2328338561       30.2316709424      -15.2011620340  MEMB      173             0.0000000000
     20063       173  CHL1      H19C          -21.7663647658       30.8178215867      -13.5752717794  MEMB      173             0.0000000000
     20064       173  CHL1      C1            -22.4150399649       27.6408531799      -15.0899618588  MEMB      173             0.0000000000
     20065       173  CHL1      H1A           -21.4567231803       27.3256812161      -14.7091225985  MEMB      173             0.0000000000
     20066       173  CHL1      H1B           -23.1615473870       26.8580524532      -14.8337022640  MEMB      173             0.0000000000
     20067       173  CHL1      C2            -22.1573182447       27.8095130725      -16.6022165086  MEMB      173             0.0000000000
     20068       173  CHL1      H2A           -22.0080770587       26.8042162975      -17.0435331742  MEMB      173             0.0000000000
     20069       173  CHL1      H2B           -21.1952310339       28.3459145597      -16.7475795428  MEMB      173             0.0000000000
     20070       173  CHL1      C20           -22.8851467326       28.3926777469       -7.1101051184  MEMB      173             0.0000000000
     20071       173  CHL1      H20           -22.3026271851       29.3293769974       -6.9419861721  MEMB      173             0.0000000000
     20072       173  CHL1      C21           -21.8905701761       27.2098316772       -7.1189434227  MEMB      173             0.0000000000
     20073       173  CHL1      H21A          -22.4071146005       26.2321353086       -7.0934859735  MEMB      173             0.0000000000
     20074       173  CHL1      H21B          -21.2231984807       27.2800037621       -6.2354735450  MEMB      173             0.0000000000
     20075       173  CHL1      H21C          -21.2456720007       27.2245334785       -8.0192066409  MEMB      173             0.0000000000
     20076       173  CHL1      C22           -23.9812181429       28.3009493995       -6.0015178051  MEMB      173             0.0000000000
     20077       173  CHL1      H22A          -24.5834487080       29.2367607032       -5.9594417556  MEMB      173             0.0000000000
     20078       173  CHL1      H22B          -24.6683121678       27.4784715203       -6.3023617350  MEMB      173             0.0000000000
     20079       173  CHL1      C23           -23.5034410916       28.0491076139       -4.5731458595  MEMB      173             0.0000000000
     20080       173  CHL1      H23A          -23.0144027460       27.0506914330       -4.5613814762  MEMB      173             0.0000000000
     20081       173  CHL1      H23B          -22.7475898629       28.8193031924       -4.3077780897  MEMB      173             0.0000000000
     20082       173  CHL1      C24           -24.6340590424       28.0896908166       -3.5125210717  MEMB      173             0.0000000000
     20083       173  CHL1      H24A          -24.9053081874       29.1472708159       -3.2905892178  MEMB      173             0.0000000000
     20084       173  CHL1      H24B          -25.5163081130       27.5187574527       -3.8582069574  MEMB      173             0.0000000000
     20085       173  CHL1      C25           -24.1749108979       27.4846922420       -2.1948464360  MEMB      173             0.0000000000
     20086       173  CHL1      H25           -23.4833711135       26.6432036519       -2.4619594018  MEMB      173             0.0000000000
     20087       173  CHL1      C26           -23.4748970883       28.5049671647       -1.4031045401  MEMB      173             0.0000000000
     20088       173  CHL1      H26A          -23.8801943575       29.3414907107       -0.8130935591  MEMB      173             0.0000000000
     20089       173  CHL1      H26B          -23.1289092078       27.8775126098       -0.5441881034  MEMB      173             0.0000000000
     20090       173  CHL1      H26C          -22.6619213764       28.9193013592       -2.0260974470  MEMB      173             0.0000000000
     20091       173  CHL1      C27           -25.1698591326       26.9482017642       -1.1903933808  MEMB      173             0.0000000000
     20092       173  CHL1      H27A          -25.6453020754       27.8013482142       -0.6569029664  MEMB      173             0.0000000000
     20093       173  CHL1      H27B          -25.9221081884       26.3014550058       -1.6625514643  MEMB      173             0.0000000000
     20094       173  CHL1      H27C          -24.5909800108       26.3662850372       -0.4323033672  MEMB      173             0.0000000000
     20095       174  CHL1      C3            -16.6334610516       33.6859968557      -17.3984470983  MEMB      174             0.0000000000
     20096       174  CHL1      H3            -16.7152229117       34.7854469116      -17.2351291770  MEMB      174             0.0000000000
     20097       174  CHL1      O3            -17.2486118071       33.3400857080      -18.6173649759  MEMB      174             0.0000000000
     20098       174  CHL1      H3'           -16.7017335572       33.6594678784      -19.3474529050  MEMB      174             0.0000000000
     20099       174  CHL1      C4            -15.1514473535       33.3008922052      -17.4619322776  MEMB      174             0.0000000000
     20100       174  CHL1      H4A           -15.0023446842       32.2549072994      -17.7963318809  MEMB      174             0.0000000000
     20101       174  CHL1      H4B           -14.6497172738       33.9472822634      -18.2152633415  MEMB      174             0.0000000000
     20102       174  CHL1      C5            -14.5011506443       33.5079105301      -16.1379306784  MEMB      174             0.0000000000
     20103       174  CHL1      C6            -13.3505344790       34.1603517296      -16.0850583489  MEMB      174             0.0000000000
     20104       174  CHL1      H6            -12.8676278290       34.5268550223      -16.9938085258  MEMB      174             0.0000000000
     20105       174  CHL1      C7            -12.6294057554       34.3033489280      -14.8278783155  MEMB      174             0.0000000000
     20106       174  CHL1      H7A           -11.5445906671       34.1944882974      -14.9789193377  MEMB      174             0.0000000000
     20107       174  CHL1      H7B           -12.8306925222       35.3444995002      -14.5202988624  MEMB      174             0.0000000000
     20108       174  CHL1      C8            -13.1684975940       33.2766617172      -13.7851650937  MEMB      174             0.0000000000
     20109       174  CHL1      H8            -12.7718137107       32.2650899679      -13.9920111675  MEMB      174             0.0000000000
     20110       174  CHL1      C14           -12.6708532585       33.6349718094      -12.5126011394  MEMB      174             0.0000000000
     20111       174  CHL1      H14           -12.8066856051       34.6907490832      -12.6105050088  MEMB      174             0.0000000000
     20112       174  CHL1      C15           -11.2489741987       33.6363347123      -12.3931635910  MEMB      174             0.0000000000
     20113       174  CHL1      H15A          -10.8825760078       32.7520262847      -12.8806755240  MEMB      174             0.0000000000
     20114       174  CHL1      H15B          -11.0057953976       34.4682543524      -13.0590653591  MEMB      174             0.0000000000
     20115       174  CHL1      C16           -10.7850069400       33.6752080053      -10.9419375816  MEMB      174             0.0000000000
     20116       174  CHL1      H16A          -10.0312019709       32.9410407159      -10.6281423201  MEMB      174             0.0000000000
     20117       174  CHL1      H16B          -10.3684342159       34.6498552859      -10.4910621123  MEMB      174             0.0000000000
     20118       174  CHL1      C17           -12.0904014669       33.3665973424      -10.3540059146  MEMB      174             0.0000000000
     20119       174  CHL1      H17           -12.1726882962       34.3804537671      -10.4266942994  MEMB      174             0.0000000000
     20120       174  CHL1      C13           -13.1969949755       32.9897770662      -11.3057712651  MEMB      174             0.0000000000
     20121       174  CHL1      C18           -13.1074279726       31.5826905254      -11.4657808248  MEMB      174             0.0000000000
     20122       174  CHL1      H18A          -13.1187545666       31.1249691942      -12.4370283442  MEMB      174             0.0000000000
     20123       174  CHL1      H18B          -12.1182107552       31.5946657154      -11.1076026178  MEMB      174             0.0000000000
     20124       174  CHL1      H18C          -13.7361702947       30.9722300254      -10.8246298418  MEMB      174             0.0000000000
     20125       174  CHL1      C12           -14.6423398781       33.1567532299      -11.0059211504  MEMB      174             0.0000000000
     20126       174  CHL1      H12A          -14.9079748851       32.6317166525      -10.0780612459  MEMB      174             0.0000000000
     20127       174  CHL1      H12B          -15.0219901329       34.1333551054      -10.7694639566  MEMB      174             0.0000000000
     20128       174  CHL1      C11           -15.3353551564       32.8314399614      -12.3115642028  MEMB      174             0.0000000000
     20129       174  CHL1      H11A          -15.4320075066       31.7359841681      -12.3804275156  MEMB      174             0.0000000000
     20130       174  CHL1      H11B          -16.3224079328       33.3166232323      -12.1793956846  MEMB      174             0.0000000000
     20131       174  CHL1      C9            -14.6614655199       33.4232918264      -13.6137384454  MEMB      174             0.0000000000
     20132       174  CHL1      H9            -14.8694154197       34.5189764963      -13.5464147636  MEMB      174             0.0000000000
     20133       174  CHL1      C10           -15.2623860260       32.9874153016      -14.9148886636  MEMB      174             0.0000000000
     20134       174  CHL1      C19           -15.0997878258       31.5008572103      -15.0168350757  MEMB      174             0.0000000000
     20135       174  CHL1      H19A          -14.0766919142       31.0743467878      -14.9564090006  MEMB      174             0.0000000000
     20136       174  CHL1      H19B          -15.7080353473       31.0126095169      -14.2282242829  MEMB      174             0.0000000000
     20137       174  CHL1      H19C          -15.5345850303       31.1560670181      -15.9745064375  MEMB      174             0.0000000000
     20138       174  CHL1      C1            -16.7606938121       33.3375215608      -14.9204288953  MEMB      174             0.0000000000
     20139       174  CHL1      H1A           -17.2917865436       32.7985218777      -14.1030872034  MEMB      174             0.0000000000
     20140       174  CHL1      H1B           -16.8583561067       34.4262349843      -14.7321037548  MEMB      174             0.0000000000
     20141       174  CHL1      C2            -17.4165683248       33.0189968004      -16.2596035926  MEMB      174             0.0000000000
     20142       174  CHL1      H2A           -18.4438434862       33.4408062271      -16.2473302261  MEMB      174             0.0000000000
     20143       174  CHL1      H2B           -17.5010643619       31.9242530018      -16.4148405485  MEMB      174             0.0000000000
     20144       174  CHL1      C20           -11.9859446929       32.7358579338       -9.0225391221  MEMB      174             0.0000000000
     20145       174  CHL1      H20           -11.4577183328       31.8399171959       -9.3326778589  MEMB      174             0.0000000000
     20146       174  CHL1      C21           -13.3851682397       32.5656257425       -8.1265490628  MEMB      174             0.0000000000
     20147       174  CHL1      H21A          -14.0153846482       33.3214609581       -7.6603223982  MEMB      174             0.0000000000
     20148       174  CHL1      H21B          -13.0565633296       32.4155298333       -7.1530018523  MEMB      174             0.0000000000
     20149       174  CHL1      H21C          -14.1298995417       31.8184556395       -8.3726593133  MEMB      174             0.0000000000
     20150       174  CHL1      C22           -10.7200691143       33.0122501575       -8.2444504645  MEMB      174             0.0000000000
     20151       174  CHL1      H22A          -10.7591585476       33.9540636156       -8.7443284105  MEMB      174             0.0000000000
     20152       174  CHL1      H22B          -11.0667083170       32.9719315475       -7.2352187702  MEMB      174             0.0000000000
     20153       174  CHL1      C23            -9.2074286370       32.7735968548       -8.2751001174  MEMB      174             0.0000000000
     20154       174  CHL1      H23A           -9.1143815056       31.6761576296       -8.3785398596  MEMB      174             0.0000000000
     20155       174  CHL1      H23B           -8.7294805063       33.3973092965       -9.0301719372  MEMB      174             0.0000000000
     20156       174  CHL1      C24            -8.3989779462       33.3157873214       -7.0610178337  MEMB      174             0.0000000000
     20157       174  CHL1      H24A           -8.9733092665       32.6811498526       -6.3000385936  MEMB      174             0.0000000000
     20158       174  CHL1      H24B           -7.5160083198       32.6350571359       -6.8756728897  MEMB      174             0.0000000000
     20159       174  CHL1      C25            -7.9890311815       35.0646555455       -6.7841118545  MEMB      174             0.0000000000
     20160       174  CHL1      H25            -8.0609426267       35.5649672909       -7.5649611782  MEMB      174             0.0000000000
     20161       174  CHL1      C26            -9.0313344193       36.5964381797       -6.1452587126  MEMB      174             0.0000000000
     20162       174  CHL1      H26A           -9.5588048893       37.0173502251       -6.8594666152  MEMB      174             0.0000000000
     20163       174  CHL1      H26B           -9.9018969730       36.5110260529       -5.2919478144  MEMB      174             0.0000000000
     20164       174  CHL1      H26C           -8.9777271681       37.4471349533       -5.5202059050  MEMB      174             0.0000000000
     20165       174  CHL1      C27            -6.6360911647       34.8742979101       -5.9448191592  MEMB      174             0.0000000000
     20166       174  CHL1      H27A           -6.1568566854       35.6499673884       -5.3330431643  MEMB      174             0.0000000000
     20167       174  CHL1      H27B           -6.7580499620       34.1537533229       -5.1090688300  MEMB      174             0.0000000000
     20168       174  CHL1      H27C           -6.2788859622       33.8692181037       -5.8834448261  MEMB      174             0.0000000000
     20169       175  SAPE      N              21.9556786595      -27.2318485110      -21.4276029594  MEMB      175             0.0000000000
     20170       175  SAPE      HN1            21.7501536824      -27.1786514085      -20.4079724843  MEMB      175             0.0000000000
     20171       175  SAPE      HN2            22.0976796281      -26.2496560136      -21.7597686623  MEMB      175             0.0000000000
     20172       175  SAPE      HN3            21.1533625938      -27.6455295119      -21.9316830841  MEMB      175             0.0000000000
     20173       175  SAPE      C12            23.2100050160      -28.0650228604      -21.6268358625  MEMB      175             0.0000000000
     20174       175  SAPE      H12A           23.9746933788      -27.6402946714      -20.9459801169  MEMB      175             0.0000000000
     20175       175  SAPE      H12B           23.5402401815      -27.9008900420      -22.6690865181  MEMB      175             0.0000000000
     20176       175  SAPE      C11            23.0535410968      -29.6080217717      -21.4682725437  MEMB      175             0.0000000000
     20177       175  SAPE      H11A           23.9931763109      -30.0973986231      -21.8355922133  MEMB      175             0.0000000000
     20178       175  SAPE      H11B           22.2576814616      -29.9997468601      -22.1338855612  MEMB      175             0.0000000000
     20179       175  SAPE      P              24.0096555153      -30.0873509404      -19.1130442740  MEMB      175             0.0000000000
     20180       175  SAPE      O13            25.2705251074      -29.7869723233      -19.8345732937  MEMB      175             0.0000000000
     20181       175  SAPE      O14            23.6018359859      -29.2347376953      -17.9875179127  MEMB      175             0.0000000000
     20182       175  SAPE      O12            22.7688846262      -30.0121216359      -20.1328354060  MEMB      175             0.0000000000
     20183       175  SAPE      O11            24.0200569816      -31.5943577867      -18.6623291881  MEMB      175             0.0000000000
     20184       175  SAPE      C1             22.8834220647      -32.4153845822      -18.8710129325  MEMB      175             0.0000000000
     20185       175  SAPE      HA             21.9103235711      -31.8621956556      -18.8600816135  MEMB      175             0.0000000000
     20186       175  SAPE      HB             23.0071734200      -32.8825990219      -19.8707386485  MEMB      175             0.0000000000
     20187       175  SAPE      C2             22.7094662086      -33.4622637941      -17.7384046646  MEMB      175             0.0000000000
     20188       175  SAPE      HS             21.7273689511      -33.9800002247      -17.8445269785  MEMB      175             0.0000000000
     20189       175  SAPE      O21            22.6299970279      -32.7514616107      -16.5364586969  MEMB      175             0.0000000000
     20190       175  SAPE      C21            22.3689704015      -33.4106608342      -15.4598208633  MEMB      175             0.0000000000
     20191       175  SAPE      O22            22.0604086872      -34.5938344292      -15.3696670840  MEMB      175             0.0000000000
     20192       175  SAPE      C22            22.4245036331      -32.3291306037      -14.3578905403  MEMB      175             0.0000000000
     20193       175  SAPE      H2R            23.1619188032      -31.5639149692      -14.5948734123  MEMB      175             0.0000000000
     20194       175  SAPE      H2S            21.5934079327      -31.6450560180      -14.3883585779  MEMB      175             0.0000000000
     20195       175  SAPE      C3             23.8749085843      -34.5168503371      -17.7585859015  MEMB      175             0.0000000000
     20196       175  SAPE      HX             24.0427860187      -34.8857119121      -18.7882817017  MEMB      175             0.0000000000
     20197       175  SAPE      HY             23.5012487931      -35.3994754723      -17.1885003653  MEMB      175             0.0000000000
     20198       175  SAPE      O31            25.1778245997      -34.0228701386      -17.3965313973  MEMB      175             0.0000000000
     20199       175  SAPE      C31            25.5016433936      -34.1388459280      -16.1241850741  MEMB      175             0.0000000000
     20200       175  SAPE      O32            24.8675738665      -34.6990563160      -15.2732799612  MEMB      175             0.0000000000
     20201       175  SAPE      C32            26.7075960281      -33.3574908880      -15.7759918022  MEMB      175             0.0000000000
     20202       175  SAPE      H2X            27.6268281934      -33.6635407346      -16.3094493833  MEMB      175             0.0000000000
     20203       175  SAPE      H2Y            26.8472484761      -33.4269988250      -14.6719526375  MEMB      175             0.0000000000
     20204       175  SAPE      C23            22.2897331167      -32.8122481200      -12.9252121621  MEMB      175             0.0000000000
     20205       175  SAPE      H3R            21.4555631833      -33.5247802172      -12.8308665126  MEMB      175             0.0000000000
     20206       175  SAPE      H3S            22.0929213586      -31.9396702618      -12.2562406546  MEMB      175             0.0000000000
     20207       175  SAPE      C24            23.4855529374      -33.6071256703      -12.5440520361  MEMB      175             0.0000000000
     20208       175  SAPE      H4R            23.7099784281      -34.2936459500      -13.3832928633  MEMB      175             0.0000000000
     20209       175  SAPE      H4S            23.1893703433      -34.2072217429      -11.6549333250  MEMB      175             0.0000000000
     20210       175  SAPE      C25            24.5933060444      -32.6288759441      -12.3692909610  MEMB      175             0.0000000000
     20211       175  SAPE      H5R            24.4949845482      -31.6933160936      -12.9193776209  MEMB      175             0.0000000000
     20212       175  SAPE      C26            25.6743656835      -32.8047296581      -11.6458510742  MEMB      175             0.0000000000
     20213       175  SAPE      H6R            26.3520454101      -31.9431416776      -11.5176416176  MEMB      175             0.0000000000
     20214       175  SAPE      C27            25.9167990876      -34.0596084190      -10.8864439505  MEMB      175             0.0000000000
     20215       175  SAPE      H7R            26.2268804212      -34.9650733158      -11.4325564966  MEMB      175             0.0000000000
     20216       175  SAPE      H7S            25.0475888451      -34.2872791421      -10.2267448289  MEMB      175             0.0000000000
     20217       175  SAPE      C28            27.0234563098      -33.7378095695      -10.0367275407  MEMB      175             0.0000000000
     20218       175  SAPE      H8R            27.8662489770      -33.0477723397      -10.2807600492  MEMB      175             0.0000000000
     20219       175  SAPE      C29            27.0743103263      -34.4059225700       -8.9465296826  MEMB      175             0.0000000000
     20220       175  SAPE      H9R            27.4279213221      -33.5684341394       -8.3421085519  MEMB      175             0.0000000000
     20221       175  SAPE      C210           26.3406808909      -35.4936039352       -8.1956459102  MEMB      175             0.0000000000
     20222       175  SAPE      H10R           27.0278536282      -36.3356871411       -7.9070615736  MEMB      175             0.0000000000
     20223       175  SAPE      H10S           25.6492979241      -36.0182395080       -8.8459111204  MEMB      175             0.0000000000
     20224       175  SAPE      C211           25.8680511900      -34.5864189275       -7.0612104656  MEMB      175             0.0000000000
     20225       175  SAPE      H11R           26.3541803435      -34.6731969527       -6.0807815975  MEMB      175             0.0000000000
     20226       175  SAPE      C212           24.7193692350      -34.0968879398       -6.8600945628  MEMB      175             0.0000000000
     20227       175  SAPE      H12R           24.4922676397      -33.7475723079       -5.8265473249  MEMB      175             0.0000000000
     20228       175  SAPE      C213           23.7083642198      -34.5414260970       -7.8389739228  MEMB      175             0.0000000000
     20229       175  SAPE      H13R           22.9674926381      -35.2016746187       -7.4589833506  MEMB      175             0.0000000000
     20230       175  SAPE      H13S           23.9863131005      -35.1828985269       -8.6845500392  MEMB      175             0.0000000000
     20231       175  SAPE      C214           22.8545169614      -33.4321302621       -7.9074573376  MEMB      175             0.0000000000
     20232       175  SAPE      H14R           23.0342723918      -32.9165634068       -8.8411039644  MEMB      175             0.0000000000
     20233       175  SAPE      C215           21.7557840638      -33.2806413912       -7.1773751349  MEMB      175             0.0000000000
     20234       175  SAPE      H15R           21.2189898185      -32.5019974556       -7.6938822261  MEMB      175             0.0000000000
     20235       175  SAPE      C216           21.0038647957      -34.1548177011       -6.0826632983  MEMB      175             0.0000000000
     20236       175  SAPE      H16R           21.5161170463      -34.7925928352       -5.3994409556  MEMB      175             0.0000000000
     20237       175  SAPE      H16S           20.3444089837      -34.7999248468       -6.6133858902  MEMB      175             0.0000000000
     20238       175  SAPE      C217           19.5647592828      -34.0299456056       -5.5058145449  MEMB      175             0.0000000000
     20239       175  SAPE      H17R           18.5974474965      -34.0752688152       -6.0542614201  MEMB      175             0.0000000000
     20240       175  SAPE      H17S           19.9088537149      -33.0316734663       -5.6949371449  MEMB      175             0.0000000000
     20241       175  SAPE      C218           19.2553643275      -34.5990643872       -4.2176674774  MEMB      175             0.0000000000
     20242       175  SAPE      H18R           18.9694583965      -35.6530808013       -4.3454540165  MEMB      175             0.0000000000
     20243       175  SAPE      H18S           18.3081194775      -34.2261076247       -3.8048679685  MEMB      175             0.0000000000
     20244       175  SAPE      C219           20.3628002151      -34.2233180027       -3.3139456764  MEMB      175             0.0000000000
     20245       175  SAPE      H19R           20.5242783104      -33.1274341611       -3.3236986357  MEMB      175             0.0000000000
     20246       175  SAPE      H19S           21.3899518829      -34.4629231244       -3.5555898544  MEMB      175             0.0000000000
     20247       175  SAPE      C220           20.0196892770      -34.8192101798       -2.0357816859  MEMB      175             0.0000000000
     20248       175  SAPE      H20R           20.8063717184      -34.5411656051       -1.3212370910  MEMB      175             0.0000000000
     20249       175  SAPE      H20S           19.7840245953      -35.9048885180       -2.0798813360  MEMB      175             0.0000000000
     20250       175  SAPE      H20T           19.1331862820      -34.5175018566       -1.5059401348  MEMB      175             0.0000000000
     20251       175  SAPE      C33            26.1997642787      -31.9820539040      -16.0493501240  MEMB      175             0.0000000000
     20252       175  SAPE      H3X            25.1983064699      -31.7952934260      -15.5974530009  MEMB      175             0.0000000000
     20253       175  SAPE      H3Y            26.2215084820      -31.7255571859      -17.1443636770  MEMB      175             0.0000000000
     20254       175  SAPE      C34            26.9505025225      -30.9749215907      -15.3245016076  MEMB      175             0.0000000000
     20255       175  SAPE      H4X            27.9302816499      -31.1797612857      -15.7129093376  MEMB      175             0.0000000000
     20256       175  SAPE      H4Y            27.2789549096      -31.0586691758      -14.2758434347  MEMB      175             0.0000000000
     20257       175  SAPE      C35            26.3628135285      -29.6590857593      -15.8206237186  MEMB      175             0.0000000000
     20258       175  SAPE      H5X            26.5674113249      -29.4254465994      -16.8952207975  MEMB      175             0.0000000000
     20259       175  SAPE      H5Y            26.8343433496      -28.9015435596      -15.1945420428  MEMB      175             0.0000000000
     20260       175  SAPE      C36            25.2071007753      -29.0342519656      -15.1717102245  MEMB      175             0.0000000000
     20261       175  SAPE      H6X            24.3854412388      -29.6396176184      -15.5519836450  MEMB      175             0.0000000000
     20262       175  SAPE      H6Y            25.2267176064      -28.0183285788      -15.6858031580  MEMB      175             0.0000000000
     20263       175  SAPE      C37            25.3877045871      -29.1301699161      -13.6174652381  MEMB      175             0.0000000000
     20264       175  SAPE      H7X            26.2813083552      -28.5923922014      -13.2104068506  MEMB      175             0.0000000000
     20265       175  SAPE      H7Y            25.5646757565      -30.1796591107      -13.3584747501  MEMB      175             0.0000000000
     20266       175  SAPE      C38            24.1210641307      -28.7404328762      -12.8805590366  MEMB      175             0.0000000000
     20267       175  SAPE      H8X            23.2368765395      -29.0177127302      -13.4687998080  MEMB      175             0.0000000000
     20268       175  SAPE      H8Y            23.9748864778      -27.7099678076      -12.8114888001  MEMB      175             0.0000000000
     20269       175  SAPE      C39            24.0273401927      -28.9300939721      -11.3865753171  MEMB      175             0.0000000000
     20270       175  SAPE      H9X            23.9460342023      -30.0197970289      -11.2789442408  MEMB      175             0.0000000000
     20271       175  SAPE      H9Y            23.0897866776      -28.4298030229      -11.0295283834  MEMB      175             0.0000000000
     20272       175  SAPE      C310           25.1621846616      -28.3025932085      -10.5701662272  MEMB      175             0.0000000000
     20273       175  SAPE      H10X           25.1411792244      -27.1888042314      -10.6331892758  MEMB      175             0.0000000000
     20274       175  SAPE      H10Y           26.1498785975      -28.6525976255      -10.9328054611  MEMB      175             0.0000000000
     20275       175  SAPE      C311           24.9867755933      -28.6684385315       -9.1067846094  MEMB      175             0.0000000000
     20276       175  SAPE      H11X           24.0103568729      -28.2430291445       -8.7736565428  MEMB      175             0.0000000000
     20277       175  SAPE      H11Y           25.7709433513      -28.1667665877       -8.4973185015  MEMB      175             0.0000000000
     20278       175  SAPE      C312           25.0577237658      -30.1874240614       -8.8793875654  MEMB      175             0.0000000000
     20279       175  SAPE      H12X           25.8567644942      -30.6687752080       -9.4795591984  MEMB      175             0.0000000000
     20280       175  SAPE      H12Y           24.0845018986      -30.6711037851       -9.1301107514  MEMB      175             0.0000000000
     20281       175  SAPE      C313           25.5185376883      -30.4997450138       -7.4801457538  MEMB      175             0.0000000000
     20282       175  SAPE      H13X           26.4331606113      -29.9094903554       -7.2369846570  MEMB      175             0.0000000000
     20283       175  SAPE      H13Y           25.7029252264      -31.5759541070       -7.2821629014  MEMB      175             0.0000000000
     20284       175  SAPE      C314           24.5068886108      -30.0930877822       -6.5049267780  MEMB      175             0.0000000000
     20285       175  SAPE      H14X           23.4975291503      -30.5155224911       -6.7521537173  MEMB      175             0.0000000000
     20286       175  SAPE      H14Y           24.3597097685      -28.9856926364       -6.6292423324  MEMB      175             0.0000000000
     20287       175  SAPE      C315           25.0707636178      -30.5175347732       -5.1079080749  MEMB      175             0.0000000000
     20288       175  SAPE      H15X           25.8636774424      -29.7237456147       -4.8235813050  MEMB      175             0.0000000000
     20289       175  SAPE      H15Y           25.4813143272      -31.5119901152       -4.9560535373  MEMB      175             0.0000000000
     20290       175  SAPE      C316           23.8942164604      -31.0600697527       -4.2165288583  MEMB      175             0.0000000000
     20291       175  SAPE      H16X           22.9600978498      -30.7242608831       -3.8037379185  MEMB      175             0.0000000000
     20292       175  SAPE      H16Y           24.1996617074      -30.0458029085       -4.4099736694  MEMB      175             0.0000000000
     20293       175  SAPE      C317           23.8312012977      -31.5747148249       -2.7332081997  MEMB      175             0.0000000000
     20294       175  SAPE      H17X           24.7438808645      -31.3521825456       -2.1912614158  MEMB      175             0.0000000000
     20295       175  SAPE      H17Y           23.6606864684      -32.5856846940       -3.0137034909  MEMB      175             0.0000000000
     20296       175  SAPE      C318           22.6860794846      -31.3253200149       -1.6529097993  MEMB      175             0.0000000000
     20297       175  SAPE      H18X           22.8458121159      -31.8218528311       -0.6841544806  MEMB      175             0.0000000000
     20298       175  SAPE      H18Y           21.6146610154      -31.3440536929       -1.9640465165  MEMB      175             0.0000000000
     20299       175  SAPE      H18Z           22.8724882912      -30.4090548646       -1.1144014484  MEMB      175             0.0000000000
     20300       176  CHL1      C3             16.9575277804      -33.5669661692      -17.3061749386  MEMB      176             0.0000000000
     20301       176  CHL1      H3             15.9788335053      -33.7899831447      -16.8168979746  MEMB      176             0.0000000000
     20302       176  CHL1      O3             16.8164808109      -33.7628867528      -18.6910829147  MEMB      176             0.0000000000
     20303       176  CHL1      H3'            15.8374435172      -33.7632292575      -18.7811088852  MEMB      176             0.0000000000
     20304       176  CHL1      C4             17.3057584161      -32.1008965422      -17.0826487304  MEMB      176             0.0000000000
     20305       176  CHL1      H4A            18.2943681557      -31.8919850995      -17.5438065594  MEMB      176             0.0000000000
     20306       176  CHL1      H4B            16.5413243955      -31.4875784562      -17.6044070157  MEMB      176             0.0000000000
     20307       176  CHL1      C5             17.3834578737      -31.7959339602      -15.6186775785  MEMB      176             0.0000000000
     20308       176  CHL1      C6             16.7214898637      -30.8416405171      -15.0327117377  MEMB      176             0.0000000000
     20309       176  CHL1      H6             16.0986412904      -30.2837880976      -15.7313206881  MEMB      176             0.0000000000
     20310       176  CHL1      C7             16.8352238486      -30.4201370256      -13.5679101210  MEMB      176             0.0000000000
     20311       176  CHL1      H7A            17.0556419532      -29.3337903912      -13.4323691074  MEMB      176             0.0000000000
     20312       176  CHL1      H7B            15.8808208458      -30.6402826625      -13.0382725811  MEMB      176             0.0000000000
     20313       176  CHL1      C8             17.9796909919      -31.0682024249      -12.8231005598  MEMB      176             0.0000000000
     20314       176  CHL1      H8             18.9214948557      -30.5561173420      -13.1185306042  MEMB      176             0.0000000000
     20315       176  CHL1      C14            17.7420370831      -30.9386620273      -11.3110525600  MEMB      176             0.0000000000
     20316       176  CHL1      H14            16.7577951917      -31.4663843874      -11.1847152023  MEMB      176             0.0000000000
     20317       176  CHL1      C15            17.4716191150      -29.5813239178      -10.6184279024  MEMB      176             0.0000000000
     20318       176  CHL1      H15A           18.1839445954      -28.7784763422      -10.8764065217  MEMB      176             0.0000000000
     20319       176  CHL1      H15B           16.4438654520      -29.2762583673      -10.8896213304  MEMB      176             0.0000000000
     20320       176  CHL1      C16            17.5225339492      -29.9122647691       -9.1176009993  MEMB      176             0.0000000000
     20321       176  CHL1      H16A           18.1967034854      -29.2632525019       -8.5190005551  MEMB      176             0.0000000000
     20322       176  CHL1      H16B           16.4851820728      -29.8533419549       -8.7234544358  MEMB      176             0.0000000000
     20323       176  CHL1      C17            17.9949797910      -31.3768744872       -9.0527717392  MEMB      176             0.0000000000
     20324       176  CHL1      H17            17.0640247714      -31.9944316785       -9.0265325817  MEMB      176             0.0000000000
     20325       176  CHL1      C13            18.6715752606      -31.7159182254      -10.4157233487  MEMB      176             0.0000000000
     20326       176  CHL1      C18            20.1138519566      -31.0981263667      -10.4364177196  MEMB      176             0.0000000000
     20327       176  CHL1      H18A           20.1104690333      -30.1340274060       -9.8824242961  MEMB      176             0.0000000000
     20328       176  CHL1      H18B           20.8717815534      -31.7511507741       -9.9547559149  MEMB      176             0.0000000000
     20329       176  CHL1      H18C           20.4775586784      -30.8921495837      -11.4589898015  MEMB      176             0.0000000000
     20330       176  CHL1      C12            18.5076627730      -33.1815462838      -10.9280589379  MEMB      176             0.0000000000
     20331       176  CHL1      H12A           19.1852075404      -33.9275580251      -10.4795301748  MEMB      176             0.0000000000
     20332       176  CHL1      H12B           17.4837249306      -33.5165452461      -10.6720304895  MEMB      176             0.0000000000
     20333       176  CHL1      C11            18.8183281101      -33.3548066095      -12.3793658036  MEMB      176             0.0000000000
     20334       176  CHL1      H11A           19.8045506538      -32.9134218430      -12.4634084452  MEMB      176             0.0000000000
     20335       176  CHL1      H11B           18.8078902995      -34.4374842713      -12.6026673960  MEMB      176             0.0000000000
     20336       176  CHL1      C9             17.9635625753      -32.5175458926      -13.2934418294  MEMB      176             0.0000000000
     20337       176  CHL1      H9             16.9320772856      -32.9002516856      -13.1178209837  MEMB      176             0.0000000000
     20338       176  CHL1      C10            18.2138183091      -32.7014498931      -14.8229210403  MEMB      176             0.0000000000
     20339       176  CHL1      C19            19.5733399059      -32.2417333667      -15.2005622874  MEMB      176             0.0000000000
     20340       176  CHL1      H19A           20.1626767000      -33.0124115950      -14.6731752205  MEMB      176             0.0000000000
     20341       176  CHL1      H19B           19.9232322003      -32.2205420830      -16.2559665387  MEMB      176             0.0000000000
     20342       176  CHL1      H19C           19.8037899875      -31.2255813998      -14.8143055424  MEMB      176             0.0000000000
     20343       176  CHL1      C1             18.0578016202      -34.1874635552      -15.2046448456  MEMB      176             0.0000000000
     20344       176  CHL1      H1A            18.8519750344      -34.7726230050      -14.7040643283  MEMB      176             0.0000000000
     20345       176  CHL1      H1B            17.0720787222      -34.4638575570      -14.7770279979  MEMB      176             0.0000000000
     20346       176  CHL1      C2             17.9894841098      -34.5189834102      -16.7065064505  MEMB      176             0.0000000000
     20347       176  CHL1      H2A            17.6099004974      -35.5620805610      -16.8039413948  MEMB      176             0.0000000000
     20348       176  CHL1      H2B            18.9659440319      -34.4698594926      -17.2358801803  MEMB      176             0.0000000000
     20349       176  CHL1      C20            18.7491070665      -31.7563880454       -7.8179870674  MEMB      176             0.0000000000
     20350       176  CHL1      H20            19.7170593318      -31.2030560471       -7.7330478552  MEMB      176             0.0000000000
     20351       176  CHL1      C21            18.9847420825      -33.2074628597       -8.2623713456  MEMB      176             0.0000000000
     20352       176  CHL1      H21A           19.8879194042      -33.4597721727       -8.8556636115  MEMB      176             0.0000000000
     20353       176  CHL1      H21B           18.3819060064      -34.0943311227       -8.0226410422  MEMB      176             0.0000000000
     20354       176  CHL1      H21C           19.5541331096      -33.2772669354       -7.4922021557  MEMB      176             0.0000000000
     20355       176  CHL1      C22            17.9960322192      -31.6016806987       -6.4268660242  MEMB      176             0.0000000000
     20356       176  CHL1      H22A           17.4553143115      -30.6418466305       -6.5109433938  MEMB      176             0.0000000000
     20357       176  CHL1      H22B           17.2640768069      -32.4363822036       -6.3929853144  MEMB      176             0.0000000000
     20358       176  CHL1      C23            18.6248482449      -31.4055600565       -4.9805600115  MEMB      176             0.0000000000
     20359       176  CHL1      H23A           19.4262166810      -31.9559927269       -4.4889674683  MEMB      176             0.0000000000
     20360       176  CHL1      H23B           19.2883042924      -30.5411174563       -4.9707661772  MEMB      176             0.0000000000
     20361       176  CHL1      C24            17.6366875351      -31.9090604167       -3.8851203059  MEMB      176             0.0000000000
     20362       176  CHL1      H24A           16.8470447394      -31.1608904346       -3.8613894393  MEMB      176             0.0000000000
     20363       176  CHL1      H24B           17.1616431959      -32.8298571264       -4.2926775346  MEMB      176             0.0000000000
     20364       176  CHL1      C25            18.2242246094      -32.1492250849       -2.4390268225  MEMB      176             0.0000000000
     20365       176  CHL1      H25            19.1959168841      -32.5820559611       -2.3673307461  MEMB      176             0.0000000000
     20366       176  CHL1      C26            18.6727548949      -30.9164642440       -1.8927254216  MEMB      176             0.0000000000
     20367       176  CHL1      H26A           19.1384841044      -31.0257823123       -0.8987426748  MEMB      176             0.0000000000
     20368       176  CHL1      H26B           19.4617277302      -30.5229009458       -2.5906234558  MEMB      176             0.0000000000
     20369       176  CHL1      H26C           17.7842689745      -30.2609593144       -1.8374097021  MEMB      176             0.0000000000
     20370       176  CHL1      C27            17.5652204860      -32.9604233503       -1.3376132553  MEMB      176             0.0000000000
     20371       176  CHL1      H27A           17.2837559400      -33.9939845910       -1.6406745149  MEMB      176             0.0000000000
     20372       176  CHL1      H27B           18.1150076692      -32.9248700806       -0.3843878568  MEMB      176             0.0000000000
     20373       176  CHL1      H27C           16.7869576984      -32.4418540448       -0.8890198462  MEMB      176             0.0000000000
     20374       177  OSM       N             -28.5432085941      -20.8767686697      -22.3744772301  MEMB      177             0.0000000000
     20375       177  OSM       C15           -28.7221878973      -19.7773685644      -23.3581681803  MEMB      177             0.0000000000
     20376       177  OSM       H15A          -27.9183139797      -19.0780361865      -23.2246026419  MEMB      177             0.0000000000
     20377       177  OSM       H15B          -29.6559777920      -19.2356545543      -23.2411853840  MEMB      177             0.0000000000
     20378       177  OSM       H15C          -28.6952181033      -20.1546188468      -24.3745348920  MEMB      177             0.0000000000
     20379       177  OSM       C14           -27.2848212250      -21.6114557381      -22.6816673897  MEMB      177             0.0000000000
     20380       177  OSM       H14A          -27.3467583699      -22.0686196993      -23.6616070573  MEMB      177             0.0000000000
     20381       177  OSM       H14B          -27.1719679987      -22.4747183096      -22.0123244914  MEMB      177             0.0000000000
     20382       177  OSM       H14C          -26.4195772049      -20.9731687028      -22.6075352668  MEMB      177             0.0000000000
     20383       177  OSM       C13           -28.5026170910      -20.3083651989      -20.9883720005  MEMB      177             0.0000000000
     20384       177  OSM       H13A          -27.7053401717      -19.5784219242      -20.8588221377  MEMB      177             0.0000000000
     20385       177  OSM       H13B          -28.3287056770      -21.1162478813      -20.2762895000  MEMB      177             0.0000000000
     20386       177  OSM       H13C          -29.4223781231      -19.8076224825      -20.7056274985  MEMB      177             0.0000000000
     20387       177  OSM       C12           -29.6956762348      -21.8310536481      -22.5019720320  MEMB      177             0.0000000000
     20388       177  OSM       H12A          -29.7704461892      -22.1033221933      -23.5494186717  MEMB      177             0.0000000000
     20389       177  OSM       H12B          -30.5801619047      -21.2614820420      -22.2541307950  MEMB      177             0.0000000000
     20390       177  OSM       C11           -29.6853302621      -23.1741094950      -21.7166239713  MEMB      177             0.0000000000
     20391       177  OSM       H11A          -29.4766540866      -24.0153972681      -22.4191635547  MEMB      177             0.0000000000
     20392       177  OSM       H11B          -30.7142585459      -23.3071750063      -21.3205199718  MEMB      177             0.0000000000
     20393       177  OSM       P             -28.9578567327      -24.3679279655      -19.5708009673  MEMB      177             0.0000000000
     20394       177  OSM       O13           -29.6205011479      -25.5593438610      -20.1218312520  MEMB      177             0.0000000000
     20395       177  OSM       O14           -27.6309841855      -24.4611771414      -18.9333594751  MEMB      177             0.0000000000
     20396       177  OSM       O11           -30.0581165076      -23.6952543061      -18.6689846745  MEMB      177             0.0000000000
     20397       177  OSM       O12           -28.7424439643      -23.2392291288      -20.6634533130  MEMB      177             0.0000000000
     20398       177  OSM       C1S           -29.8582723325      -22.3686225501      -18.2359952485  MEMB      177             0.0000000000
     20399       177  OSM       H1S           -30.6913427131      -21.7272470613      -18.6135750854  MEMB      177             0.0000000000
     20400       177  OSM       H1T           -28.9285125331      -21.8706147483      -18.5970332407  MEMB      177             0.0000000000
     20401       177  OSM       NF            -28.5293385561      -22.5311150746      -16.1579007212  MEMB      177             0.0000000000
     20402       177  OSM       HNF           -28.3106311634      -23.3894746503      -15.7028432484  MEMB      177             0.0000000000
     20403       177  OSM       C2S           -29.8603564929      -22.2826657835      -16.7058515049  MEMB      177             0.0000000000
     20404       177  OSM       H2S           -30.1034202586      -21.3388694212      -16.5036566092  MEMB      177             0.0000000000
     20405       177  OSM       C3S           -30.9758609773      -23.1707735899      -16.0359426728  MEMB      177             0.0000000000
     20406       177  OSM       H3S           -30.6983908981      -24.2175789111      -16.2200345944  MEMB      177             0.0000000000
     20407       177  OSM       O3            -32.2426542259      -23.0038254306      -16.6455260444  MEMB      177             0.0000000000
     20408       177  OSM       HO3           -32.0616146403      -22.2200507622      -17.1762325752  MEMB      177             0.0000000000
     20409       177  OSM       C4S           -30.9690622225      -22.7242765094      -14.5225714905  MEMB      177             0.0000000000
     20410       177  OSM       H4S           -31.0098229582      -21.6972212929      -14.2737320865  MEMB      177             0.0000000000
     20411       177  OSM       C5S           -30.8125124291      -23.4638368918      -13.4374486389  MEMB      177             0.0000000000
     20412       177  OSM       H5S           -30.9948710678      -24.4465122391      -13.6353539833  MEMB      177             0.0000000000
     20413       177  OSM       C6S           -30.6880935406      -23.5536755712      -11.9742341000  MEMB      177             0.0000000000
     20414       177  OSM       H6S           -29.8046565078      -24.1672825228      -11.6626739380  MEMB      177             0.0000000000
     20415       177  OSM       H6T           -31.4616363663      -24.1781705360      -11.5886217740  MEMB      177             0.0000000000
     20416       177  OSM       C7S           -30.4347174963      -22.2179332444      -11.4433766810  MEMB      177             0.0000000000
     20417       177  OSM       H7S           -31.1498957750      -21.5649618862      -11.9224545843  MEMB      177             0.0000000000
     20418       177  OSM       H7T           -29.4139108792      -21.8476339233      -11.6829325803  MEMB      177             0.0000000000
     20419       177  OSM       C8S           -30.6961114684      -22.2268329817       -9.9753225138  MEMB      177             0.0000000000
     20420       177  OSM       H8S           -30.3201231338      -23.1640762193       -9.5188576851  MEMB      177             0.0000000000
     20421       177  OSM       H8T           -31.7958065663      -22.2481150008       -9.8380934795  MEMB      177             0.0000000000
     20422       177  OSM       C9S           -30.1402029546      -20.9592897119       -9.3847779634  MEMB      177             0.0000000000
     20423       177  OSM       H9S           -30.6410648513      -20.8405007263       -8.4142362879  MEMB      177             0.0000000000
     20424       177  OSM       H9T           -30.3777089893      -20.0750409709      -10.0240357856  MEMB      177             0.0000000000
     20425       177  OSM       C10S          -28.6521838108      -20.9726545782       -9.1040460249  MEMB      177             0.0000000000
     20426       177  OSM       H10S          -28.0534854046      -21.1393835412       -9.9994166782  MEMB      177             0.0000000000
     20427       177  OSM       H10T          -28.4228990348      -21.7015027879       -8.3037953847  MEMB      177             0.0000000000
     20428       177  OSM       C11S          -28.2535363537      -19.6354525061       -8.6397855587  MEMB      177             0.0000000000
     20429       177  OSM       H11S          -28.7868493598      -18.8514096872       -9.2368132378  MEMB      177             0.0000000000
     20430       177  OSM       H11T          -27.1917121198      -19.4059779134       -8.4556911335  MEMB      177             0.0000000000
     20431       177  OSM       C12S          -28.7184796452      -19.4045314281       -7.3176467174  MEMB      177             0.0000000000
     20432       177  OSM       H12S          -29.8080749045      -19.4585364440       -7.3583563519  MEMB      177             0.0000000000
     20433       177  OSM       H12T          -28.3319529950      -18.3672183532       -7.2476912412  MEMB      177             0.0000000000
     20434       177  OSM       C13S          -28.3433714551      -20.3193820030       -6.2094775024  MEMB      177             0.0000000000
     20435       177  OSM       H13S          -28.9293219749      -21.2378884048       -6.1842006683  MEMB      177             0.0000000000
     20436       177  OSM       H13T          -28.8659374493      -19.8600127328       -5.3828630616  MEMB      177             0.0000000000
     20437       177  OSM       C14S          -26.8437077585      -20.5049280015       -6.1157062775  MEMB      177             0.0000000000
     20438       177  OSM       H14S          -26.3828099325      -19.4837990409       -6.1777902493  MEMB      177             0.0000000000
     20439       177  OSM       H14T          -26.4487590104      -21.0417330239       -6.9839639686  MEMB      177             0.0000000000
     20440       177  OSM       C15S          -26.3912490594      -21.2865899895       -4.8976538074  MEMB      177             0.0000000000
     20441       177  OSM       H15S          -26.6526553178      -20.7833656368       -4.0354444028  MEMB      177             0.0000000000
     20442       177  OSM       H15T          -25.3340796272      -21.4124630606       -4.7220815415  MEMB      177             0.0000000000
     20443       177  OSM       C16S          -27.1620351894      -22.3918428298       -4.3219674236  MEMB      177             0.0000000000
     20444       177  OSM       H16S          -26.4954938655      -22.9989595576       -4.9057913946  MEMB      177             0.0000000000
     20445       177  OSM       H16T          -28.2347605850      -22.3802458890       -4.5800369001  MEMB      177             0.0000000000
     20446       177  OSM       C17S          -26.9091631593      -22.7787610212       -2.8912672513  MEMB      177             0.0000000000
     20447       177  OSM       H17S          -27.3885690896      -22.1391776545       -2.1160691264  MEMB      177             0.0000000000
     20448       177  OSM       H17T          -25.8319903753      -23.0298944786       -2.6640254876  MEMB      177             0.0000000000
     20449       177  OSM       C18S          -27.2222752708      -24.0761398016       -2.6467067341  MEMB      177             0.0000000000
     20450       177  OSM       H18S          -27.0314090982      -24.3088193234       -1.5849716670  MEMB      177             0.0000000000
     20451       177  OSM       H18T          -26.6054002962      -24.7619787817       -3.2281012959  MEMB      177             0.0000000000
     20452       177  OSM       H18U          -28.2745078971      -24.1393872049       -3.0001181975  MEMB      177             0.0000000000
     20453       177  OSM       C1F           -27.5421835102      -21.6471313404      -16.2008534426  MEMB      177             0.0000000000
     20454       177  OSM       OF            -27.5421796685      -20.6621419164      -16.9352905636  MEMB      177             0.0000000000
     20455       177  OSM       C2F           -26.4528351907      -21.9735769215      -15.2341711248  MEMB      177             0.0000000000
     20456       177  OSM       H2F           -25.6019965481      -21.3586981293      -15.3693779128  MEMB      177             0.0000000000
     20457       177  OSM       H2G           -25.9389066657      -22.8999581444      -15.5039154373  MEMB      177             0.0000000000
     20458       177  OSM       C3F           -26.9431426261      -21.9888105898      -13.7653391681  MEMB      177             0.0000000000
     20459       177  OSM       H3F           -27.8836486813      -22.5005290668      -13.7899159325  MEMB      177             0.0000000000
     20460       177  OSM       H3G           -27.2318377989      -20.9958953918      -13.3578815295  MEMB      177             0.0000000000
     20461       177  OSM       C4F           -25.9598934869      -22.7413953565      -12.8568146018  MEMB      177             0.0000000000
     20462       177  OSM       H4F           -25.1149287181      -22.1451622313      -13.0297454087  MEMB      177             0.0000000000
     20463       177  OSM       H4G           -25.5280392710      -23.6726030788      -13.2590353807  MEMB      177             0.0000000000
     20464       177  OSM       C5F           -26.3546529124      -22.8788722220      -11.3764092810  MEMB      177             0.0000000000
     20465       177  OSM       H5F           -27.2988347628      -23.4175603461      -11.3772896121  MEMB      177             0.0000000000
     20466       177  OSM       H5G           -26.6942328643      -21.9440151667      -10.9526753015  MEMB      177             0.0000000000
     20467       177  OSM       C6F           -25.2510700361      -23.4901613529      -10.4490361847  MEMB      177             0.0000000000
     20468       177  OSM       H6F           -24.4907894852      -22.7511249958      -10.6676804519  MEMB      177             0.0000000000
     20469       177  OSM       H6G           -24.7810716132      -24.4227892111      -10.8067328141  MEMB      177             0.0000000000
     20470       177  OSM       C7F           -25.3931200400      -23.4057330712       -8.8789803124  MEMB      177             0.0000000000
     20471       177  OSM       H7F           -26.0720537133      -22.5675977517       -8.5503281705  MEMB      177             0.0000000000
     20472       177  OSM       H7G           -24.4296506554      -23.4156464505       -8.3840085395  MEMB      177             0.0000000000
     20473       177  OSM       C8F           -25.8000229243      -24.5975626058       -8.1306014413  MEMB      177             0.0000000000
     20474       177  OSM       H8F           -25.4788897475      -25.5083545103       -8.7728557343  MEMB      177             0.0000000000
     20475       177  OSM       H8G           -26.6201547100      -24.3493964025       -8.8520043339  MEMB      177             0.0000000000
     20476       177  OSM       C9F           -26.2260989655      -24.5337364942       -6.5190847925  MEMB      177             0.0000000000
     20477       177  OSM       H9F           -25.2119120380      -24.4939810553       -5.9607742845  MEMB      177             0.0000000000
     20478       177  OSM       C10F          -27.6587316969      -24.5958114687       -5.8484934541  MEMB      177             0.0000000000
     20479       177  OSM       H10F          -27.5627895422      -24.9589735610       -4.7870167472  MEMB      177             0.0000000000
     20480       177  OSM       C11F          -29.3545751523      -24.7876314655       -6.5723020247  MEMB      177             0.0000000000
     20481       177  OSM       H11F          -29.9322324031      -25.8074255920       -6.9639733898  MEMB      177             0.0000000000
     20482       177  OSM       H11G          -29.6916943599      -25.0619343846       -7.6683059899  MEMB      177             0.0000000000
     20483       177  OSM       C12F          -30.5738034380      -24.3652517937       -6.0662347561  MEMB      177             0.0000000000
     20484       177  OSM       H12F          -31.4160991481      -24.6645387323       -6.7703239508  MEMB      177             0.0000000000
     20485       177  OSM       H12G          -30.0382154072      -23.4371041778       -6.3378228112  MEMB      177             0.0000000000
     20486       177  OSM       C13F          -30.6284773899      -24.9018133720       -4.6804605161  MEMB      177             0.0000000000
     20487       177  OSM       H13F          -29.8976509425      -24.2983502094       -4.1216730226  MEMB      177             0.0000000000
     20488       177  OSM       H13G          -30.4293699313      -25.9546507266       -4.3873469824  MEMB      177             0.0000000000
     20489       177  OSM       C14F          -32.0522977444      -24.8999489821       -4.3460408140  MEMB      177             0.0000000000
     20490       177  OSM       H14F          -32.0957870580      -25.2980392529       -3.3129482389  MEMB      177             0.0000000000
     20491       177  OSM       H14G          -32.5286158240      -25.6213919480       -5.0650614622  MEMB      177             0.0000000000
     20492       177  OSM       C15F          -32.5692604517      -23.4950756916       -4.5491424108  MEMB      177             0.0000000000
     20493       177  OSM       H15F          -33.6079937751      -23.5580540023       -4.1912527804  MEMB      177             0.0000000000
     20494       177  OSM       H15G          -32.5848294691      -23.1997818712       -5.6239299847  MEMB      177             0.0000000000
     20495       177  OSM       C16F          -31.7425550975      -22.3869375345       -3.8780939736  MEMB      177             0.0000000000
     20496       177  OSM       H16F          -32.2779718320      -21.4479097896       -4.0843123981  MEMB      177             0.0000000000
     20497       177  OSM       H16G          -30.7234332204      -22.2916875779       -4.3274515953  MEMB      177             0.0000000000
     20498       177  OSM       C17F          -31.6201164007      -22.5469274062       -2.3764351063  MEMB      177             0.0000000000
     20499       177  OSM       H17F          -30.9764697047      -23.3992882342       -2.2292962023  MEMB      177             0.0000000000
     20500       177  OSM       H17G          -32.5991932072      -22.8340572838       -1.9481797344  MEMB      177             0.0000000000
     20501       177  OSM       C18F          -31.0323820781      -21.3394037122       -1.6655157896  MEMB      177             0.0000000000
     20502       177  OSM       H18F          -30.0163585285      -21.0786234698       -2.0286063150  MEMB      177             0.0000000000
     20503       177  OSM       H18G          -31.0651971037      -21.4720436168       -0.5654780975  MEMB      177             0.0000000000
     20504       177  OSM       H18H          -31.6424991392      -20.4764602585       -1.8751354184  MEMB      177             0.0000000000
     20505       178  OSM       N              36.1618839857       13.1139894546      -22.3597019397  MEMB      178             0.0000000000
     20506       178  OSM       C15            35.3474913316       13.8546282715      -23.3812894779  MEMB      178             0.0000000000
     20507       178  OSM       H15A           35.7735306833       14.8450334941      -23.4841621478  MEMB      178             0.0000000000
     20508       178  OSM       H15B           34.3124062663       13.9770103066      -23.0884218210  MEMB      178             0.0000000000
     20509       178  OSM       H15C           35.3803933035       13.3923160580      -24.3699081498  MEMB      178             0.0000000000
     20510       178  OSM       C14            37.5074912420       12.7828733911      -22.8902079411  MEMB      178             0.0000000000
     20511       178  OSM       H14A           38.0316337641       13.6414098633      -23.2601919060  MEMB      178             0.0000000000
     20512       178  OSM       H14B           37.4343215274       12.0206557529      -23.6621537393  MEMB      178             0.0000000000
     20513       178  OSM       H14C           38.0705832761       12.3215458022      -22.0765383048  MEMB      178             0.0000000000
     20514       178  OSM       C13            36.0994439983       13.7530727177      -21.0316281899  MEMB      178             0.0000000000
     20515       178  OSM       H13A           36.4046121093       14.7901697582      -21.0226984824  MEMB      178             0.0000000000
     20516       178  OSM       H13B           36.7240675556       13.1662303250      -20.3488594771  MEMB      178             0.0000000000
     20517       178  OSM       H13C           35.0850827980       13.7049303106      -20.6388310759  MEMB      178             0.0000000000
     20518       178  OSM       C12            35.6049020595       11.7989983653      -22.1229663126  MEMB      178             0.0000000000
     20519       178  OSM       H12A           35.6000498992       11.4333164011      -23.1407241772  MEMB      178             0.0000000000
     20520       178  OSM       H12B           34.6099512381       11.9304141478      -21.7004297767  MEMB      178             0.0000000000
     20521       178  OSM       C11            36.2151219519       10.5917144673      -21.4446803585  MEMB      178             0.0000000000
     20522       178  OSM       H11A           37.1160901823       10.2915640211      -22.0417273690  MEMB      178             0.0000000000
     20523       178  OSM       H11B           35.5322236312        9.7060163198      -21.4897726105  MEMB      178             0.0000000000
     20524       178  OSM       P              37.8201975945       10.7605606918      -19.4802044553  MEMB      178             0.0000000000
     20525       178  OSM       O13            38.3281549657        9.5852446666      -20.1953679283  MEMB      178             0.0000000000
     20526       178  OSM       O14            38.4603350882       12.0607572836      -19.7016380623  MEMB      178             0.0000000000
     20527       178  OSM       O11            37.4163054714       10.5335767009      -17.9556623744  MEMB      178             0.0000000000
     20528       178  OSM       O12            36.3865358599       10.9324932880      -20.0907603864  MEMB      178             0.0000000000
     20529       178  OSM       C1S            36.3880157850       11.4041699876      -17.4481728540  MEMB      178             0.0000000000
     20530       178  OSM       H1S            35.4258524645       11.1203884049      -17.9310736076  MEMB      178             0.0000000000
     20531       178  OSM       H1T            36.5615265708       12.4730374740      -17.7084220372  MEMB      178             0.0000000000
     20532       178  OSM       NF             34.9420160171       11.6753523937      -15.4734648068  MEMB      178             0.0000000000
     20533       178  OSM       HNF            34.9052593400       12.4281879967      -14.8210664582  MEMB      178             0.0000000000
     20534       178  OSM       C2S            36.2896732594       11.2755760447      -15.9024457926  MEMB      178             0.0000000000
     20535       178  OSM       H2S            36.3688013964       10.2232490096      -15.5979488753  MEMB      178             0.0000000000
     20536       178  OSM       C3S            37.4565168812       12.1042410470      -15.1333930905  MEMB      178             0.0000000000
     20537       178  OSM       H3S            37.3937458317       13.1882236270      -15.3498814592  MEMB      178             0.0000000000
     20538       178  OSM       O3             38.7557939658       11.9450926259      -15.6012263652  MEMB      178             0.0000000000
     20539       178  OSM       HO3            38.6137632149       11.9309145598      -16.5593641670  MEMB      178             0.0000000000
     20540       178  OSM       C4S            37.2983450224       11.7560812757      -13.6328253848  MEMB      178             0.0000000000
     20541       178  OSM       H4S            37.6987609064       10.7939142971      -13.3668614242  MEMB      178             0.0000000000
     20542       178  OSM       C5S            37.1741417544       12.5155374005      -12.5370496026  MEMB      178             0.0000000000
     20543       178  OSM       H5S            37.4329688919       13.5647092561      -12.7092593804  MEMB      178             0.0000000000
     20544       178  OSM       C6S            36.9591465113       12.2335120935      -11.0462996765  MEMB      178             0.0000000000
     20545       178  OSM       H6S            36.6860535686       11.2038260208      -10.8337862181  MEMB      178             0.0000000000
     20546       178  OSM       H6T            36.1899036998       12.8503353287      -10.5240334611  MEMB      178             0.0000000000
     20547       178  OSM       C7S            38.1688013881       12.5805769454      -10.3115792890  MEMB      178             0.0000000000
     20548       178  OSM       H7S            38.3326308408       13.6120689993      -10.7301378773  MEMB      178             0.0000000000
     20549       178  OSM       H7T            38.9188184565       11.8384650363      -10.6760459498  MEMB      178             0.0000000000
     20550       178  OSM       C8S            38.2693519709       12.5392582986       -8.7657367081  MEMB      178             0.0000000000
     20551       178  OSM       H8S            39.3547388475       12.4562708233       -8.5100291280  MEMB      178             0.0000000000
     20552       178  OSM       H8T            37.8470655785       11.5823325079       -8.4131500161  MEMB      178             0.0000000000
     20553       178  OSM       C9S            37.7722729763       13.7935167529       -8.0132547186  MEMB      178             0.0000000000
     20554       178  OSM       H9S            36.7350342629       14.0702075647       -8.2938188893  MEMB      178             0.0000000000
     20555       178  OSM       H9T            38.4033891226       14.6655396106       -8.2912350796  MEMB      178             0.0000000000
     20556       178  OSM       C10S           37.8602548121       13.6870024913       -6.4852618941  MEMB      178             0.0000000000
     20557       178  OSM       H10S           38.9221256539       13.8302262488       -6.1697420756  MEMB      178             0.0000000000
     20558       178  OSM       H10T           37.5399902527       12.6761790006       -6.1501385412  MEMB      178             0.0000000000
     20559       178  OSM       C11S           37.0368267295       14.7864700762       -5.8075353248  MEMB      178             0.0000000000
     20560       178  OSM       H11S           36.0509920806       14.9853583186       -6.2768810527  MEMB      178             0.0000000000
     20561       178  OSM       H11T           37.6488653681       15.7140642842       -5.8280392482  MEMB      178             0.0000000000
     20562       178  OSM       C12S           36.6656874780       14.4839176426       -4.3937813992  MEMB      178             0.0000000000
     20563       178  OSM       H12S           35.8358333549       13.7388104564       -4.3074777127  MEMB      178             0.0000000000
     20564       178  OSM       H12T           36.3122884358       15.4109385215       -3.8890353709  MEMB      178             0.0000000000
     20565       178  OSM       C13S           37.7334535926       13.8784383098       -3.5815813488  MEMB      178             0.0000000000
     20566       178  OSM       H13S           38.7020361327       14.4280392069       -3.5047936955  MEMB      178             0.0000000000
     20567       178  OSM       H13T           38.0005658363       12.8472751205       -3.9400704878  MEMB      178             0.0000000000
     20568       178  OSM       C14S           36.9199590285       13.7880521262       -2.3057431827  MEMB      178             0.0000000000
     20569       178  OSM       H14S           37.1963665791       12.7752835813       -2.0583853040  MEMB      178             0.0000000000
     20570       178  OSM       H14T           35.9787856085       13.2605732825       -2.1604541676  MEMB      178             0.0000000000
     20571       178  OSM       C15S           37.0080187021       14.9645452086       -1.2915109187  MEMB      178             0.0000000000
     20572       178  OSM       H15S           36.2791969012       15.6091271194       -1.6119621421  MEMB      178             0.0000000000
     20573       178  OSM       H15T           37.8431413792       15.7102246413       -1.2510852468  MEMB      178             0.0000000000
     20574       178  OSM       C16S           36.7320829233       14.4624147874        0.1672963346  MEMB      178             0.0000000000
     20575       178  OSM       H16S           37.3814333149       14.3372434668        0.9601211287  MEMB      178             0.0000000000
     20576       178  OSM       H16T           36.5379389789       13.4004581818        0.4290980525  MEMB      178             0.0000000000
     20577       178  OSM       C17S           36.6735425884       15.5956920796        1.0422912636  MEMB      178             0.0000000000
     20578       178  OSM       H17S           35.9525587232       15.3361065538        0.4692648880  MEMB      178             0.0000000000
     20579       178  OSM       H17T           36.7594022684       16.6398567076        0.7887576452  MEMB      178             0.0000000000
     20580       178  OSM       C18S           36.1607664972       15.1817223253        2.2510054270  MEMB      178             0.0000000000
     20581       178  OSM       H18S           35.9554240532       14.0748763734        2.3520644927  MEMB      178             0.0000000000
     20582       178  OSM       H18T           35.4765782736       15.8744035559        2.6186311673  MEMB      178             0.0000000000
     20583       178  OSM       H18U           36.6809365396       15.4657811189        2.9886154979  MEMB      178             0.0000000000
     20584       178  OSM       C1F            33.7670802104       11.1271443712      -15.7850513373  MEMB      178             0.0000000000
     20585       178  OSM       OF             33.5629465964       10.4912450339      -16.7997104917  MEMB      178             0.0000000000
     20586       178  OSM       C2F            32.7109277971       11.3937344142      -14.7924864269  MEMB      178             0.0000000000
     20587       178  OSM       H2F            31.6844179630       11.2127070055      -15.1970964683  MEMB      178             0.0000000000
     20588       178  OSM       H2G            32.8501131560       12.4465393146      -14.5403811245  MEMB      178             0.0000000000
     20589       178  OSM       C3F            33.0675659942       10.8124262282      -13.4131227589  MEMB      178             0.0000000000
     20590       178  OSM       H3F            34.1022743377       10.9781541530      -13.1013776442  MEMB      178             0.0000000000
     20591       178  OSM       H3G            33.1246901119        9.7879397354      -13.3408389745  MEMB      178             0.0000000000
     20592       178  OSM       C4F            32.0429859524       11.0939574302      -12.3591669973  MEMB      178             0.0000000000
     20593       178  OSM       H4F            31.0214194006       11.2913340623      -12.7943483572  MEMB      178             0.0000000000
     20594       178  OSM       H4G            32.6433898246       11.9223447981      -11.9420348652  MEMB      178             0.0000000000
     20595       178  OSM       C5F            31.8889297972       10.5486121659      -10.9796117698  MEMB      178             0.0000000000
     20596       178  OSM       H5F            31.3968280139        9.6603914742      -11.3262087607  MEMB      178             0.0000000000
     20597       178  OSM       H5G            31.0767794231       11.0323614312      -10.4183313444  MEMB      178             0.0000000000
     20598       178  OSM       C6F            33.1600915446       10.5155876744      -10.0778385432  MEMB      178             0.0000000000
     20599       178  OSM       H6F            33.5514262671       11.5199623886       -9.9728961148  MEMB      178             0.0000000000
     20600       178  OSM       H6G            33.9680742174        9.9850260905      -10.6437029906  MEMB      178             0.0000000000
     20601       178  OSM       C7F            32.9908971175        9.9305597506       -8.6190981822  MEMB      178             0.0000000000
     20602       178  OSM       H7F            32.3727505609        9.0300800194       -8.4851996254  MEMB      178             0.0000000000
     20603       178  OSM       H7G            32.2917142162       10.4666456254       -7.9792972420  MEMB      178             0.0000000000
     20604       178  OSM       C8F            34.2926251100        9.3577669988       -8.0451614667  MEMB      178             0.0000000000
     20605       178  OSM       H8F            34.9322104475        8.8115689446       -8.7749843868  MEMB      178             0.0000000000
     20606       178  OSM       H8G            34.0595989763        8.6623829095       -7.2336297524  MEMB      178             0.0000000000
     20607       178  OSM       C9F            35.0636969766       10.4374733836       -7.4834681663  MEMB      178             0.0000000000
     20608       178  OSM       H9F            35.4956976136       11.0776003091       -8.2569166140  MEMB      178             0.0000000000
     20609       178  OSM       C10F           35.2562271059       10.6094938853       -6.1771880181  MEMB      178             0.0000000000
     20610       178  OSM       H10F           35.7842610431       11.5290035061       -5.9281348879  MEMB      178             0.0000000000
     20611       178  OSM       C11F           34.7287642181        9.7387885595       -5.0365246456  MEMB      178             0.0000000000
     20612       178  OSM       H11F           34.7140556494        8.6465539586       -5.2783818523  MEMB      178             0.0000000000
     20613       178  OSM       H11G           33.6644423512        9.9937658745       -4.8322824555  MEMB      178             0.0000000000
     20614       178  OSM       C12F           35.4735302044        9.9673541681       -3.6996211759  MEMB      178             0.0000000000
     20615       178  OSM       H12F           35.7561902414       11.0376506113       -3.6338044894  MEMB      178             0.0000000000
     20616       178  OSM       H12G           36.3965227798        9.3493011171       -3.6205345655  MEMB      178             0.0000000000
     20617       178  OSM       C13F           34.6073713969        9.6638512916       -2.4744411803  MEMB      178             0.0000000000
     20618       178  OSM       H13F           34.6379760749        8.5847124493       -2.3119138010  MEMB      178             0.0000000000
     20619       178  OSM       H13G           33.5497033121        9.9621159148       -2.6358678833  MEMB      178             0.0000000000
     20620       178  OSM       C14F           35.0933234285       10.2342033240       -1.1472140073  MEMB      178             0.0000000000
     20621       178  OSM       H14F           34.9160530612       11.3284256388       -1.1776761850  MEMB      178             0.0000000000
     20622       178  OSM       H14G           36.1775757560       10.0137232930       -1.0461443224  MEMB      178             0.0000000000
     20623       178  OSM       C15F           34.3012912326        9.6692455743        0.0435846307  MEMB      178             0.0000000000
     20624       178  OSM       H15F           34.2879795482        8.5591961900        0.0197808688  MEMB      178             0.0000000000
     20625       178  OSM       H15G           33.2608291789       10.0404433394       -0.0975650807  MEMB      178             0.0000000000
     20626       178  OSM       C16F           34.8233548902       10.1245952074        1.4121797337  MEMB      178             0.0000000000
     20627       178  OSM       H16F           35.0649192223       11.2085428513        1.3330835002  MEMB      178             0.0000000000
     20628       178  OSM       H16G           35.7781933464        9.6148895579        1.6554120358  MEMB      178             0.0000000000
     20629       178  OSM       C17F           33.8141300683        9.9835020955        2.5757438478  MEMB      178             0.0000000000
     20630       178  OSM       H17F           32.9745341489       10.6735464090        2.3315982726  MEMB      178             0.0000000000
     20631       178  OSM       H17G           34.3041958330       10.3953048624        3.4873991349  MEMB      178             0.0000000000
     20632       178  OSM       C18F           33.1265593335        8.6319569789        2.8665786780  MEMB      178             0.0000000000
     20633       178  OSM       H18F           33.7823513756        7.8119880380        3.2269061400  MEMB      178             0.0000000000
     20634       178  OSM       H18G           32.5416802313        8.3021485222        1.9798216557  MEMB      178             0.0000000000
     20635       178  OSM       H18H           32.3930041987        8.7853140405        3.6849319164  MEMB      178             0.0000000000
     20636       179  CHL1      C3             29.8592552990       23.2841494268      -17.4153526678  MEMB      179             0.0000000000
     20637       179  CHL1      H3             29.0387284354       22.5477348183      -17.2608751464  MEMB      179             0.0000000000
     20638       179  CHL1      O3             30.1057802234       23.6059606842      -18.7765205877  MEMB      179             0.0000000000
     20639       179  CHL1      H3'            29.2612990571       23.9670560178      -19.0743257103  MEMB      179             0.0000000000
     20640       179  CHL1      C4             29.4235756150       24.5452438578      -16.7771048794  MEMB      179             0.0000000000
     20641       179  CHL1      H4A            30.3506079006       25.1375865626      -17.0300639090  MEMB      179             0.0000000000
     20642       179  CHL1      H4B            28.5649762855       25.0771326636      -17.2433238422  MEMB      179             0.0000000000
     20643       179  CHL1      C5             29.1453668674       24.2736290203      -15.3087226441  MEMB      179             0.0000000000
     20644       179  CHL1      C6             27.9989252841       24.5925095164      -14.6816204772  MEMB      179             0.0000000000
     20645       179  CHL1      H6             27.3140877355       25.3092372013      -15.1835378928  MEMB      179             0.0000000000
     20646       179  CHL1      C7             27.8996959004       24.4254919169      -13.1744025386  MEMB      179             0.0000000000
     20647       179  CHL1      H7A            27.3610272699       25.2905951731      -12.7164351732  MEMB      179             0.0000000000
     20648       179  CHL1      H7B            27.3250237236       23.5465987525      -12.9361912071  MEMB      179             0.0000000000
     20649       179  CHL1      C8             29.2216537401       24.1151079672      -12.3917676394  MEMB      179             0.0000000000
     20650       179  CHL1      H8             30.0807015067       24.8124998680      -12.4399298001  MEMB      179             0.0000000000
     20651       179  CHL1      C14            28.9866738167       23.8446685745      -10.9044281246  MEMB      179             0.0000000000
     20652       179  CHL1      H14            28.6075166626       22.8173296359      -10.9354314099  MEMB      179             0.0000000000
     20653       179  CHL1      C15            27.8604628092       24.5495599808      -10.1132951024  MEMB      179             0.0000000000
     20654       179  CHL1      H15A           27.6742940987       25.5241529898      -10.5448250672  MEMB      179             0.0000000000
     20655       179  CHL1      H15B           26.8395680116       24.1965819319      -10.2558805713  MEMB      179             0.0000000000
     20656       179  CHL1      C16            28.2810373326       24.4018599654       -8.6415890961  MEMB      179             0.0000000000
     20657       179  CHL1      H16A           28.3901706495       25.3351623319       -8.1327369566  MEMB      179             0.0000000000
     20658       179  CHL1      H16B           27.5265779977       23.9167729881       -8.0048756846  MEMB      179             0.0000000000
     20659       179  CHL1      C17            29.6302742662       23.6314500200       -8.6317669895  MEMB      179             0.0000000000
     20660       179  CHL1      H17            29.2871253269       22.5813324274       -8.6734974878  MEMB      179             0.0000000000
     20661       179  CHL1      C13            30.2253447456       23.7887159668      -10.0204753527  MEMB      179             0.0000000000
     20662       179  CHL1      C18            31.0755016411       24.9538154731       -9.9152063569  MEMB      179             0.0000000000
     20663       179  CHL1      H18A           31.4376941517       25.4575650933      -10.7479747332  MEMB      179             0.0000000000
     20664       179  CHL1      H18B           30.4302418315       25.7369397575       -9.8192986734  MEMB      179             0.0000000000
     20665       179  CHL1      H18C           31.9095628440       24.9892354310       -9.1795881481  MEMB      179             0.0000000000
     20666       179  CHL1      C12            31.1022503902       22.7600518746      -10.6144571756  MEMB      179             0.0000000000
     20667       179  CHL1      H12A           32.0645490519       22.7943282593      -10.0556164718  MEMB      179             0.0000000000
     20668       179  CHL1      H12B           30.6160344063       21.8237417719      -10.3764168829  MEMB      179             0.0000000000
     20669       179  CHL1      C11            31.2203872201       22.9481126049      -12.1555780377  MEMB      179             0.0000000000
     20670       179  CHL1      H11A           31.7051573844       23.8896088448      -12.3355195184  MEMB      179             0.0000000000
     20671       179  CHL1      H11B           31.8703634832       22.2529318464      -12.6120104039  MEMB      179             0.0000000000
     20672       179  CHL1      C9             30.0320071966       23.1691675557      -13.0795118445  MEMB      179             0.0000000000
     20673       179  CHL1      H9             29.4598016162       22.2552176986      -13.0904133146  MEMB      179             0.0000000000
     20674       179  CHL1      C10            30.3345469064       23.6790069115      -14.5410897338  MEMB      179             0.0000000000
     20675       179  CHL1      C19            31.5002194245       24.6498372851      -14.5902601213  MEMB      179             0.0000000000
     20676       179  CHL1      H19A           31.7872052652       25.2149738346      -15.4897016056  MEMB      179             0.0000000000
     20677       179  CHL1      H19B           31.4428029273       25.4364201657      -13.8320713266  MEMB      179             0.0000000000
     20678       179  CHL1      H19C           32.3419255062       23.9604498586      -14.3971011409  MEMB      179             0.0000000000
     20679       179  CHL1      C1             30.8802486637       22.4790941296      -15.2638884857  MEMB      179             0.0000000000
     20680       179  CHL1      H1A            31.7754439571       22.0843714398      -14.7275732866  MEMB      179             0.0000000000
     20681       179  CHL1      H1B            30.0612513579       21.7540619073      -15.1473189704  MEMB      179             0.0000000000
     20682       179  CHL1      C2             31.1439383922       22.7717126216      -16.7413726988  MEMB      179             0.0000000000
     20683       179  CHL1      H2A            31.3615076125       21.8183559574      -17.2469585939  MEMB      179             0.0000000000
     20684       179  CHL1      H2B            32.0018471745       23.4747592125      -16.8755546172  MEMB      179             0.0000000000
     20685       179  CHL1      C20            30.5338001129       23.8510374784       -7.3897026963  MEMB      179             0.0000000000
     20686       179  CHL1      H20            31.3071967934       24.6289213853       -7.4864434401  MEMB      179             0.0000000000
     20687       179  CHL1      C21            31.3560649007       22.5845506990       -7.2594726273  MEMB      179             0.0000000000
     20688       179  CHL1      H21A           30.6299939938       21.8265152144       -7.2007304855  MEMB      179             0.0000000000
     20689       179  CHL1      H21B           31.9957868556       22.5830009287       -6.3622187280  MEMB      179             0.0000000000
     20690       179  CHL1      H21C           31.9106369542       22.2679628329       -8.1512179313  MEMB      179             0.0000000000
     20691       179  CHL1      C22            29.7220298970       24.1779182465       -6.1003531430  MEMB      179             0.0000000000
     20692       179  CHL1      H22A           29.2598597079       25.1901501244       -6.1937631096  MEMB      179             0.0000000000
     20693       179  CHL1      H22B           28.9300297383       23.4084721918       -6.0515970411  MEMB      179             0.0000000000
     20694       179  CHL1      C23            30.4258868748       24.0661503646       -4.7282265038  MEMB      179             0.0000000000
     20695       179  CHL1      H23A           30.7203560822       23.0215515685       -4.5541023280  MEMB      179             0.0000000000
     20696       179  CHL1      H23B           31.3652059717       24.6050424773       -4.6829224873  MEMB      179             0.0000000000
     20697       179  CHL1      C24            29.5625598510       24.5797818827       -3.5661234897  MEMB      179             0.0000000000
     20698       179  CHL1      H24A           29.2705593332       25.6347342813       -3.7878499855  MEMB      179             0.0000000000
     20699       179  CHL1      H24B           28.6547141486       23.9487983132       -3.4987032172  MEMB      179             0.0000000000
     20700       179  CHL1      C25            30.2156675979       24.5603734725       -2.1700941074  MEMB      179             0.0000000000
     20701       179  CHL1      H25            30.6018794779       23.5491727341       -1.9186835771  MEMB      179             0.0000000000
     20702       179  CHL1      C26            31.4045569143       25.4304867994       -2.1110254355  MEMB      179             0.0000000000
     20703       179  CHL1      H26A           32.2955442858       25.0548713487       -2.6701409689  MEMB      179             0.0000000000
     20704       179  CHL1      H26B           31.0734404215       26.3774299335       -2.5939910638  MEMB      179             0.0000000000
     20705       179  CHL1      H26C           31.7396959688       25.6803746498       -1.0805472391  MEMB      179             0.0000000000
     20706       179  CHL1      C27            29.2494391081       25.1397667749       -1.1303010150  MEMB      179             0.0000000000
     20707       179  CHL1      H27A           29.7320087166       25.1688714822       -0.1297481134  MEMB      179             0.0000000000
     20708       179  CHL1      H27B           28.8833474759       26.1538209474       -1.3890563021  MEMB      179             0.0000000000
     20709       179  CHL1      H27C           28.3353204658       24.5503708964       -1.0858781570  MEMB      179             0.0000000000
     20710       180  CHL1      C3            -29.8811940044       24.4128654829      -17.3546892877  MEMB      180             0.0000000000
     20711       180  CHL1      H3            -29.8569886237       25.5280843498      -17.3162014241  MEMB      180             0.0000000000
     20712       180  CHL1      O3            -29.7554145614       24.0204481484      -18.7137832889  MEMB      180             0.0000000000
     20713       180  CHL1      H3'           -30.3521893042       24.6086508917      -19.1777907905  MEMB      180             0.0000000000
     20714       180  CHL1      C4            -28.7246899789       23.8072089859      -16.5298516241  MEMB      180             0.0000000000
     20715       180  CHL1      H4A           -28.7326897472       22.7150090284      -16.7049972405  MEMB      180             0.0000000000
     20716       180  CHL1      H4B           -27.7417924629       24.1684506112      -16.9161626594  MEMB      180             0.0000000000
     20717       180  CHL1      C5            -28.8510506267       24.0594765148      -15.0461250029  MEMB      180             0.0000000000
     20718       180  CHL1      C6            -27.8614315930       24.6587424164      -14.3699331700  MEMB      180             0.0000000000
     20719       180  CHL1      H6            -26.9203295270       24.8656906231      -14.9035172147  MEMB      180             0.0000000000
     20720       180  CHL1      C7            -27.9038591626       24.9450187373      -12.8951021582  MEMB      180             0.0000000000
     20721       180  CHL1      H7A           -26.9215011656       24.6946425573      -12.4573708059  MEMB      180             0.0000000000
     20722       180  CHL1      H7B           -28.0657405409       26.0315924987      -12.7256970840  MEMB      180             0.0000000000
     20723       180  CHL1      C8            -29.0420517618       24.1635655278      -12.1693537205  MEMB      180             0.0000000000
     20724       180  CHL1      H8            -28.7190658589       23.1017249654      -12.0980011044  MEMB      180             0.0000000000
     20725       180  CHL1      C14           -29.3104626826       24.7125319411      -10.7584587681  MEMB      180             0.0000000000
     20726       180  CHL1      H14           -29.6398280040       25.7680729258      -10.9260100232  MEMB      180             0.0000000000
     20727       180  CHL1      C15           -28.1474366162       24.8193581665       -9.7654409167  MEMB      180             0.0000000000
     20728       180  CHL1      H15A          -27.4781668626       23.9348870548       -9.8441717463  MEMB      180             0.0000000000
     20729       180  CHL1      H15B          -27.5484030339       25.7279784305       -9.9701548679  MEMB      180             0.0000000000
     20730       180  CHL1      C16           -28.8520267400       24.8801717587       -8.3897559478  MEMB      180             0.0000000000
     20731       180  CHL1      H16A          -28.4555111290       24.0417174807       -7.7770148501  MEMB      180             0.0000000000
     20732       180  CHL1      H16B          -28.6714070178       25.8430217626       -7.8740912900  MEMB      180             0.0000000000
     20733       180  CHL1      C17           -30.3908594735       24.6534273194       -8.5769827996  MEMB      180             0.0000000000
     20734       180  CHL1      H17           -30.9048989726       25.6410709697       -8.6219652831  MEMB      180             0.0000000000
     20735       180  CHL1      C13           -30.4594777735       24.0507535799       -9.9844193622  MEMB      180             0.0000000000
     20736       180  CHL1      C18           -30.1768696188       22.5550141094       -9.8038058323  MEMB      180             0.0000000000
     20737       180  CHL1      H18A          -31.0021939425       22.0728783729       -9.2500358857  MEMB      180             0.0000000000
     20738       180  CHL1      H18B          -30.1869511199       22.0956207816      -10.7865380043  MEMB      180             0.0000000000
     20739       180  CHL1      H18C          -29.2002587596       22.3217864872       -9.3265893951  MEMB      180             0.0000000000
     20740       180  CHL1      C12           -31.7223342482       24.3335034385      -10.8075592954  MEMB      180             0.0000000000
     20741       180  CHL1      H12A          -32.6271848339       23.9104081722      -10.3428025215  MEMB      180             0.0000000000
     20742       180  CHL1      H12B          -31.8448921428       25.4356912190      -10.8966858133  MEMB      180             0.0000000000
     20743       180  CHL1      C11           -31.5869629144       23.7322528517      -12.2146688647  MEMB      180             0.0000000000
     20744       180  CHL1      H11A          -31.5217631363       22.6361164579      -12.0836541050  MEMB      180             0.0000000000
     20745       180  CHL1      H11B          -32.5205602960       23.9280539223      -12.7750423513  MEMB      180             0.0000000000
     20746       180  CHL1      C9            -30.3409002016       24.2467218009      -12.9942664752  MEMB      180             0.0000000000
     20747       180  CHL1      H9            -30.5213771348       25.3392914092      -13.1449552826  MEMB      180             0.0000000000
     20748       180  CHL1      C10           -30.1991716728       23.6617128572      -14.4241418757  MEMB      180             0.0000000000
     20749       180  CHL1      C19           -30.2653142351       22.1120571173      -14.2903330449  MEMB      180             0.0000000000
     20750       180  CHL1      H19A          -29.6072434606       21.7475137825      -13.4729828009  MEMB      180             0.0000000000
     20751       180  CHL1      H19B          -31.3043672530       21.8000991058      -14.0649357360  MEMB      180             0.0000000000
     20752       180  CHL1      H19C          -29.9653958816       21.5651178493      -15.2045270633  MEMB      180             0.0000000000
     20753       180  CHL1      C1            -31.3616926972       24.2316365925      -15.3084122141  MEMB      180             0.0000000000
     20754       180  CHL1      H1A           -32.3233027890       23.8081013449      -14.9519001495  MEMB      180             0.0000000000
     20755       180  CHL1      H1B           -31.3973353220       25.3338359968      -15.1527605969  MEMB      180             0.0000000000
     20756       180  CHL1      C2            -31.2620120561       23.9963396246      -16.8274674181  MEMB      180             0.0000000000
     20757       180  CHL1      H2A           -32.0184254556       24.6132199793      -17.3684093941  MEMB      180             0.0000000000
     20758       180  CHL1      H2B           -31.4980583885       22.9329431837      -17.0412875872  MEMB      180             0.0000000000
     20759       180  CHL1      C20           -31.0357594580       23.8983690173       -7.3825070818  MEMB      180             0.0000000000
     20760       180  CHL1      H20           -30.7386256672       22.8281787193       -7.3589038867  MEMB      180             0.0000000000
     20761       180  CHL1      C21           -32.5835549152       23.9202464032       -7.4467057774  MEMB      180             0.0000000000
     20762       180  CHL1      H21A          -32.9452255984       24.9237094256       -7.1882370746  MEMB      180             0.0000000000
     20763       180  CHL1      H21B          -33.0175907634       23.2171006912       -6.7052828860  MEMB      180             0.0000000000
     20764       180  CHL1      H21C          -32.9943791749       23.6735813088       -8.4350575531  MEMB      180             0.0000000000
     20765       180  CHL1      C22           -30.5518925029       24.4996442499       -6.0471775213  MEMB      180             0.0000000000
     20766       180  CHL1      H22A          -29.4592280107       24.6196246644       -5.9681649657  MEMB      180             0.0000000000
     20767       180  CHL1      H22B          -30.9066062202       25.5512729294       -5.9927131558  MEMB      180             0.0000000000
     20768       180  CHL1      C23           -30.9089580331       23.6900716489       -4.8069261211  MEMB      180             0.0000000000
     20769       180  CHL1      H23A          -31.9945639029       23.4176635986       -4.7227425443  MEMB      180             0.0000000000
     20770       180  CHL1      H23B          -30.3222682746       22.7557162645       -4.7342712772  MEMB      180             0.0000000000
     20771       180  CHL1      C24           -30.5189604309       24.5365451194       -3.6321033025  MEMB      180             0.0000000000
     20772       180  CHL1      H24A          -29.5134024614       24.9846568838       -3.5905857054  MEMB      180             0.0000000000
     20773       180  CHL1      H24B          -31.0498570268       25.4801555678       -3.7397061057  MEMB      180             0.0000000000
     20774       180  CHL1      C25           -30.8447019721       23.7626050966       -2.3625755741  MEMB      180             0.0000000000
     20775       180  CHL1      H25           -31.7306749269       23.1495811879       -2.5488477443  MEMB      180             0.0000000000
     20776       180  CHL1      C26           -29.6149423825       22.9283284030       -1.9535250590  MEMB      180             0.0000000000
     20777       180  CHL1      H26A          -29.7531116485       22.4704959379       -0.9539427669  MEMB      180             0.0000000000
     20778       180  CHL1      H26B          -29.4875014709       22.1405225212       -2.7182713791  MEMB      180             0.0000000000
     20779       180  CHL1      H26C          -28.6854624088       23.5429989927       -1.9267061822  MEMB      180             0.0000000000
     20780       180  CHL1      C27           -31.2382649350       24.7039418668       -1.2565910236  MEMB      180             0.0000000000
     20781       180  CHL1      H27A          -30.4277436604       25.1830919281       -1.7038769798  MEMB      180             0.0000000000
     20782       180  CHL1      H27B          -31.9537520633       25.5228887230       -1.2042873488  MEMB      180             0.0000000000
     20783       180  CHL1      H27C          -31.0051861889       24.4055307785       -0.1927175219  MEMB      180             0.0000000000
     20784       181  SAPE      N             -36.2726553752      -11.7498276608      -22.8444703223  MEMB      181             0.0000000000
     20785       181  SAPE      HN1           -35.6011691793      -12.4259094709      -22.3689214543  MEMB      181             0.0000000000
     20786       181  SAPE      HN2           -36.2602533564      -11.9982457023      -23.8692230841  MEMB      181             0.0000000000
     20787       181  SAPE      HN3           -35.8977398977      -10.8061538373      -22.6665170528  MEMB      181             0.0000000000
     20788       181  SAPE      C12           -37.4702855099      -11.9487239665      -22.0104476447  MEMB      181             0.0000000000
     20789       181  SAPE      H12A          -37.6065147906      -13.0518151599      -21.9515156133  MEMB      181             0.0000000000
     20790       181  SAPE      H12B          -38.2364416432      -11.4370939574      -22.6032202683  MEMB      181             0.0000000000
     20791       181  SAPE      C11           -37.3790437938      -11.3040445659      -20.5896895343  MEMB      181             0.0000000000
     20792       181  SAPE      H11A          -38.3937358982      -11.3850690642      -20.1499422904  MEMB      181             0.0000000000
     20793       181  SAPE      H11B          -37.1239836649      -10.2178165593      -20.6659747154  MEMB      181             0.0000000000
     20794       181  SAPE      P             -36.6635957259      -13.1504675384      -18.7128902056  MEMB      181             0.0000000000
     20795       181  SAPE      O13           -38.0946294627      -13.0946950852      -18.3351767728  MEMB      181             0.0000000000
     20796       181  SAPE      O14           -36.1830074772      -14.3744031916      -19.3736103436  MEMB      181             0.0000000000
     20797       181  SAPE      O12           -36.4470731396      -11.9162656004      -19.7190329032  MEMB      181             0.0000000000
     20798       181  SAPE      O11           -35.6772148443      -12.7021951745      -17.5911035153  MEMB      181             0.0000000000
     20799       181  SAPE      C1            -34.7464050427      -11.6219997851      -17.7656455218  MEMB      181             0.0000000000
     20800       181  SAPE      HA            -33.7201926139      -12.0489321767      -17.8951873969  MEMB      181             0.0000000000
     20801       181  SAPE      HB            -34.9128714885      -10.9092944023      -18.5957040162  MEMB      181             0.0000000000
     20802       181  SAPE      C2            -34.8908970963      -10.6149454855      -16.6257158163  MEMB      181             0.0000000000
     20803       181  SAPE      HS            -33.9388232479      -10.0241307064      -16.6571692045  MEMB      181             0.0000000000
     20804       181  SAPE      O21           -34.8462319965      -11.2595229323      -15.4897334163  MEMB      181             0.0000000000
     20805       181  SAPE      C21           -34.5674687800      -10.4401513206      -14.5200498196  MEMB      181             0.0000000000
     20806       181  SAPE      O22           -34.1395836463       -9.3258850671      -14.4691379639  MEMB      181             0.0000000000
     20807       181  SAPE      C22           -34.5119100339      -11.2704770814      -13.5335464803  MEMB      181             0.0000000000
     20808       181  SAPE      H2R           -35.4850465824      -10.9180946403      -13.0603834308  MEMB      181             0.0000000000
     20809       181  SAPE      H2S           -35.0238268258      -12.2753700554      -13.8587248132  MEMB      181             0.0000000000
     20810       181  SAPE      C3            -36.1805932333       -9.8149911746      -16.4478396406  MEMB      181             0.0000000000
     20811       181  SAPE      HX            -36.3810991874       -9.4517093163      -17.4488839379  MEMB      181             0.0000000000
     20812       181  SAPE      HY            -36.0196194871       -8.9632684654      -15.7379680095  MEMB      181             0.0000000000
     20813       181  SAPE      O31           -37.2482215364      -10.6914056056      -16.0063451882  MEMB      181             0.0000000000
     20814       181  SAPE      C31           -37.7484756712      -10.6264204126      -14.7842475161  MEMB      181             0.0000000000
     20815       181  SAPE      O32           -37.4937292243       -9.8117427164      -13.9238771249  MEMB      181             0.0000000000
     20816       181  SAPE      C32           -38.8573286986      -11.6247205336      -14.7131693639  MEMB      181             0.0000000000
     20817       181  SAPE      H2X           -39.4740049256      -11.5153769817      -15.6183630438  MEMB      181             0.0000000000
     20818       181  SAPE      H2Y           -39.4606920776      -11.4700511775      -13.7887088726  MEMB      181             0.0000000000
     20819       181  SAPE      C23           -33.0245816975      -11.4588214747      -12.4669874326  MEMB      181             0.0000000000
     20820       181  SAPE      H3R           -33.2115705770      -10.3739138650      -12.3899364030  MEMB      181             0.0000000000
     20821       181  SAPE      H3S           -32.0376469779      -11.4114304953      -12.7738447271  MEMB      181             0.0000000000
     20822       181  SAPE      C24           -32.7869680912      -12.8787330872      -10.8390779871  MEMB      181             0.0000000000
     20823       181  SAPE      H4R           -33.2121684489      -13.9333083128      -10.8371397473  MEMB      181             0.0000000000
     20824       181  SAPE      H4S           -33.7169702016      -13.1309095967      -10.1946664335  MEMB      181             0.0000000000
     20825       181  SAPE      C25           -32.4111056886      -12.8419535613       -9.5367381975  MEMB      181             0.0000000000
     20826       181  SAPE      H5R           -31.5965791590      -12.2770399866       -9.8980199700  MEMB      181             0.0000000000
     20827       181  SAPE      C26           -32.6556543897      -13.2455391309       -8.3692973178  MEMB      181             0.0000000000
     20828       181  SAPE      H6R           -31.9760267829      -12.6510890321       -7.8194047540  MEMB      181             0.0000000000
     20829       181  SAPE      C27           -33.7344922223      -14.1372546073       -7.9782332261  MEMB      181             0.0000000000
     20830       181  SAPE      H7R           -34.7297270378      -13.7256321122       -8.2255487093  MEMB      181             0.0000000000
     20831       181  SAPE      H7S           -33.6081483717      -14.1656482117       -6.9149964862  MEMB      181             0.0000000000
     20832       181  SAPE      C28           -33.5293100141      -15.5177270895       -8.4397168275  MEMB      181             0.0000000000
     20833       181  SAPE      H8R           -32.9115788574      -15.8135700985       -9.3104988506  MEMB      181             0.0000000000
     20834       181  SAPE      C29           -34.1839921530      -16.4167587672       -7.7789810814  MEMB      181             0.0000000000
     20835       181  SAPE      H9R           -33.8544432799      -17.3854688668       -8.0266134281  MEMB      181             0.0000000000
     20836       181  SAPE      C210          -35.1049762011      -16.1768498514       -6.6545939866  MEMB      181             0.0000000000
     20837       181  SAPE      H10R          -36.0791181451      -15.9637179100       -7.1184755155  MEMB      181             0.0000000000
     20838       181  SAPE      H10S          -34.6349318230      -15.4177945732       -6.0379137418  MEMB      181             0.0000000000
     20839       181  SAPE      C211          -35.5420251630      -17.1223512625       -5.6613684959  MEMB      181             0.0000000000
     20840       181  SAPE      H11R          -35.4306441978      -18.1299505594       -5.8880001999  MEMB      181             0.0000000000
     20841       181  SAPE      C212          -35.9965612104      -16.9533542305       -4.4636850928  MEMB      181             0.0000000000
     20842       181  SAPE      H12R          -36.1769595791      -17.8847143486       -3.9492053846  MEMB      181             0.0000000000
     20843       181  SAPE      C213          -36.1976264589      -15.6825484916       -3.7765713718  MEMB      181             0.0000000000
     20844       181  SAPE      H13R          -37.2895744614      -15.6448112902       -3.6287677937  MEMB      181             0.0000000000
     20845       181  SAPE      H13S          -35.8788313033      -14.8974721301       -4.4835689452  MEMB      181             0.0000000000
     20846       181  SAPE      C214          -35.4298358369      -15.4930468862       -2.5076117953  MEMB      181             0.0000000000
     20847       181  SAPE      H14R          -34.4582165851      -15.9967117951       -2.4131993142  MEMB      181             0.0000000000
     20848       181  SAPE      C215          -35.8686762794      -14.8084830140       -1.4592682839  MEMB      181             0.0000000000
     20849       181  SAPE      H15R          -35.1466319502      -14.6614789624       -0.6495542411  MEMB      181             0.0000000000
     20850       181  SAPE      C216          -37.1920149254      -14.1051050740       -1.3223519153  MEMB      181             0.0000000000
     20851       181  SAPE      H16R          -37.9192287643      -14.4446403274       -2.0859876057  MEMB      181             0.0000000000
     20852       181  SAPE      H16S          -37.0567798469      -13.0162070913       -1.4381702034  MEMB      181             0.0000000000
     20853       181  SAPE      C217          -37.8669352333      -14.3565273009        0.0218109594  MEMB      181             0.0000000000
     20854       181  SAPE      H17R          -38.1576366945      -15.4097036052        0.1250629609  MEMB      181             0.0000000000
     20855       181  SAPE      H17S          -38.8305668980      -13.8508267658        0.0805988720  MEMB      181             0.0000000000
     20856       181  SAPE      C218          -37.1104504392      -13.7846239204        1.1855576988  MEMB      181             0.0000000000
     20857       181  SAPE      H18R          -36.0172126646      -13.9484409846        1.2509673390  MEMB      181             0.0000000000
     20858       181  SAPE      H18S          -37.6207144136      -14.0182363153        2.1445039797  MEMB      181             0.0000000000
     20859       181  SAPE      C219          -37.0952592585      -12.3539301993        1.1373394221  MEMB      181             0.0000000000
     20860       181  SAPE      H19R          -38.0556234106      -11.9473712675        0.8188447468  MEMB      181             0.0000000000
     20861       181  SAPE      H19S          -36.4557599832      -11.9338752187        0.3550880340  MEMB      181             0.0000000000
     20862       181  SAPE      C220          -36.6485156161      -11.9229208304        2.4795287122  MEMB      181             0.0000000000
     20863       181  SAPE      H20R          -36.8380161823      -10.9679799355        2.0305966649  MEMB      181             0.0000000000
     20864       181  SAPE      H20S          -35.5698531515      -11.9036558764        2.7129385199  MEMB      181             0.0000000000
     20865       181  SAPE      H20T          -37.2926607535      -11.9400133592        3.3940489161  MEMB      181             0.0000000000
     20866       181  SAPE      C33           -38.2290839492      -12.9771582106      -14.6739979981  MEMB      181             0.0000000000
     20867       181  SAPE      H3X           -37.2574221705      -12.9486883989      -14.1105595033  MEMB      181             0.0000000000
     20868       181  SAPE      H3Y           -38.0247512610      -13.4464622262      -15.6636511007  MEMB      181             0.0000000000
     20869       181  SAPE      C34           -39.1054811840      -13.8193084633      -13.8723284990  MEMB      181             0.0000000000
     20870       181  SAPE      H4X           -39.7608429352      -14.3648933877      -14.6069437802  MEMB      181             0.0000000000
     20871       181  SAPE      H4Y           -39.9031711075      -13.3725058617      -13.2321241387  MEMB      181             0.0000000000
     20872       181  SAPE      C35           -38.0484255142      -14.5828181049      -13.0552821006  MEMB      181             0.0000000000
     20873       181  SAPE      H5X           -37.3541854254      -15.3097996473      -13.5091485951  MEMB      181             0.0000000000
     20874       181  SAPE      H5Y           -39.0175391483      -14.9150154588      -12.8144206185  MEMB      181             0.0000000000
     20875       181  SAPE      C36           -37.5457432650      -14.6061919535      -11.6383614573  MEMB      181             0.0000000000
     20876       181  SAPE      H6X           -36.6081204455      -14.2099082299      -11.8735233493  MEMB      181             0.0000000000
     20877       181  SAPE      H6Y           -37.2055103714      -15.6164259198      -11.3012607166  MEMB      181             0.0000000000
     20878       181  SAPE      C37           -38.4295061563      -14.0662709560      -10.5591795899  MEMB      181             0.0000000000
     20879       181  SAPE      H7X           -39.1638018005      -14.8292192819      -10.2377877151  MEMB      181             0.0000000000
     20880       181  SAPE      H7Y           -39.0076336263      -13.1930704934      -10.9104208461  MEMB      181             0.0000000000
     20881       181  SAPE      C38           -37.5563102865      -13.7997773561       -9.3609749091  MEMB      181             0.0000000000
     20882       181  SAPE      H8X           -36.9526302827      -12.9071217891       -9.6212699488  MEMB      181             0.0000000000
     20883       181  SAPE      H8Y           -36.8562450245      -14.6568818539       -9.1971432985  MEMB      181             0.0000000000
     20884       181  SAPE      C39           -38.3638832716      -13.4778551211       -8.1259102401  MEMB      181             0.0000000000
     20885       181  SAPE      H9X           -38.9748047674      -14.3360228497       -7.7650284973  MEMB      181             0.0000000000
     20886       181  SAPE      H9Y           -39.0428711914      -12.6217853920       -8.3519463950  MEMB      181             0.0000000000
     20887       181  SAPE      C310          -37.4374512507      -13.0614284447       -7.0091976818  MEMB      181             0.0000000000
     20888       181  SAPE      H10X          -36.7797818544      -12.2420750531       -7.3813250936  MEMB      181             0.0000000000
     20889       181  SAPE      H10Y          -36.8064559472      -13.9399130993       -6.7408927712  MEMB      181             0.0000000000
     20890       181  SAPE      C311          -38.3011500713      -12.5823490503       -5.8497722359  MEMB      181             0.0000000000
     20891       181  SAPE      H11X          -38.9448062981      -13.4220737951       -5.5162081560  MEMB      181             0.0000000000
     20892       181  SAPE      H11Y          -38.9057281677      -11.7129420783       -6.1810041526  MEMB      181             0.0000000000
     20893       181  SAPE      C312          -37.5217015005      -12.1989583437       -4.6465373757  MEMB      181             0.0000000000
     20894       181  SAPE      H12X          -36.8611211429      -13.0828832588       -4.4375636457  MEMB      181             0.0000000000
     20895       181  SAPE      H12Y          -38.0658792261      -11.9500557504       -3.7162986536  MEMB      181             0.0000000000
     20896       181  SAPE      C313          -36.7077682279      -11.0086990660       -4.8549489483  MEMB      181             0.0000000000
     20897       181  SAPE      H13X          -37.1183907256      -10.0774664687       -4.4123530815  MEMB      181             0.0000000000
     20898       181  SAPE      H13Y          -36.4852365371      -10.7343507153       -5.9234738293  MEMB      181             0.0000000000
     20899       181  SAPE      C314          -35.5326756656      -11.5478104113       -4.0749488271  MEMB      181             0.0000000000
     20900       181  SAPE      H14X          -35.2011578287      -10.6530890221       -4.4116700061  MEMB      181             0.0000000000
     20901       181  SAPE      H14Y          -34.9116396137      -12.3648701332       -4.4965650367  MEMB      181             0.0000000000
     20902       181  SAPE      C315          -35.1488080249      -11.1357398074       -2.7231496318  MEMB      181             0.0000000000
     20903       181  SAPE      H15X          -35.7225690707      -11.8337487893       -2.1162788227  MEMB      181             0.0000000000
     20904       181  SAPE      H15Y          -35.3239893470      -10.0445832010       -2.5485201827  MEMB      181             0.0000000000
     20905       181  SAPE      C316          -33.7016186502      -11.3815029541       -2.5014530365  MEMB      181             0.0000000000
     20906       181  SAPE      H16X          -33.0998746185      -10.8617295848       -3.2923056620  MEMB      181             0.0000000000
     20907       181  SAPE      H16Y          -33.5295642254      -12.4829230076       -2.4315425990  MEMB      181             0.0000000000
     20908       181  SAPE      C317          -33.1932824326      -10.7211894862       -1.2993406441  MEMB      181             0.0000000000
     20909       181  SAPE      H17X          -33.4410504680       -9.6922140604       -1.5988843250  MEMB      181             0.0000000000
     20910       181  SAPE      H17Y          -32.1222307576      -10.7893127798       -0.9801831244  MEMB      181             0.0000000000
     20911       181  SAPE      C318          -34.1305273047      -10.8062200522       -0.2134808118  MEMB      181             0.0000000000
     20912       181  SAPE      H18X          -35.1840957076      -10.8159723061       -0.4392840814  MEMB      181             0.0000000000
     20913       181  SAPE      H18Y          -34.0690074492       -9.7563980891        0.1666789555  MEMB      181             0.0000000000
     20914       181  SAPE      H18Z          -33.7714889127      -11.6076967206        0.4748761939  MEMB      181             0.0000000000
     20915       182  SLPC      N              28.6483990666      -24.3254542974      -15.4788771009  MEMB      182             0.0000000000
     20916       182  SLPC      C13            27.2670581507      -24.2150241377      -15.9977538503  MEMB      182             0.0000000000
     20917       182  SLPC      H13A           26.6232053719      -25.0152104282      -15.7433636905  MEMB      182             0.0000000000
     20918       182  SLPC      H13B           26.8229486959      -23.2708538346      -15.6811764397  MEMB      182             0.0000000000
     20919       182  SLPC      H13C           27.3487440451      -24.0801813119      -17.0852247348  MEMB      182             0.0000000000
     20920       182  SLPC      C14            28.8726522250      -24.2513292696      -13.9514312159  MEMB      182             0.0000000000
     20921       182  SLPC      H14A           29.8908102882      -24.2717874018      -13.5808703807  MEMB      182             0.0000000000
     20922       182  SLPC      H14B           28.4567141073      -23.3682692135      -13.5088478416  MEMB      182             0.0000000000
     20923       182  SLPC      H14C           28.3243288053      -25.0090188377      -13.4078744385  MEMB      182             0.0000000000
     20924       182  SLPC      C15            29.1545319715      -23.3160388957      -16.3623814549  MEMB      182             0.0000000000
     20925       182  SLPC      H15A           29.3510660264      -23.4186039294      -17.4240009216  MEMB      182             0.0000000000
     20926       182  SLPC      H15B           28.6198247284      -22.4093994015      -16.1796201556  MEMB      182             0.0000000000
     20927       182  SLPC      H15C           30.1960300383      -23.0914157699      -16.1358159148  MEMB      182             0.0000000000
     20928       182  SLPC      C12            29.4580970145      -25.3983213515      -15.9360019721  MEMB      182             0.0000000000
     20929       182  SLPC      H12A           29.1802446770      -26.1454132266      -15.2613366774  MEMB      182             0.0000000000
     20930       182  SLPC      H12B           30.5215614252      -25.1639478416      -15.7806870144  MEMB      182             0.0000000000
     20931       182  SLPC      C11            29.2115294110      -25.9687471849      -17.3029475701  MEMB      182             0.0000000000
     20932       182  SLPC      H11A           28.1641701578      -26.3167386464      -17.3935074079  MEMB      182             0.0000000000
     20933       182  SLPC      H11B           29.8827231188      -26.8181275525      -17.3177406639  MEMB      182             0.0000000000
     20934       182  SLPC      P              31.0754935380      -24.9841647965      -18.7465389347  MEMB      182             0.0000000000
     20935       182  SLPC      O13            31.6114513804      -26.1159835629      -19.5040707166  MEMB      182             0.0000000000
     20936       182  SLPC      O14            31.1576831577      -23.6942177766      -19.3886097062  MEMB      182             0.0000000000
     20937       182  SLPC      O12            29.5547068163      -25.1551855321      -18.3734461254  MEMB      182             0.0000000000
     20938       182  SLPC      O11            31.7692937389      -24.9576739463      -17.3191092917  MEMB      182             0.0000000000
     20939       182  SLPC      C1             33.0410627245      -25.5721417468      -17.1147024493  MEMB      182             0.0000000000
     20940       182  SLPC      HA             33.0877666434      -26.5856470154      -17.5868209969  MEMB      182             0.0000000000
     20941       182  SLPC      HB             33.8641430305      -24.9515277370      -17.5333331771  MEMB      182             0.0000000000
     20942       182  SLPC      C2             33.2317145460      -25.7712308594      -15.6019444772  MEMB      182             0.0000000000
     20943       182  SLPC      HS             32.4070904785      -26.4873776841      -15.3508181517  MEMB      182             0.0000000000
     20944       182  SLPC      O21            33.0933202899      -24.5081596860      -14.9074269693  MEMB      182             0.0000000000
     20945       182  SLPC      C21            32.5326581115      -24.6537554249      -13.7111081658  MEMB      182             0.0000000000
     20946       182  SLPC      O22            31.9847503802      -25.6595315979      -13.3294756566  MEMB      182             0.0000000000
     20947       182  SLPC      C22            32.5891879848      -23.4240092730      -12.8352968707  MEMB      182             0.0000000000
     20948       182  SLPC      H2R            31.5289307361      -23.1667263111      -12.6218524870  MEMB      182             0.0000000000
     20949       182  SLPC      H2S            33.0791186806      -23.6178275774      -11.8850987478  MEMB      182             0.0000000000
     20950       182  SLPC      C3             34.6047470885      -26.3971929853      -15.2369606577  MEMB      182             0.0000000000
     20951       182  SLPC      HX             35.3973999898      -25.6969246630      -15.5680572466  MEMB      182             0.0000000000
     20952       182  SLPC      HY             34.7761946339      -27.3550455834      -15.7826572557  MEMB      182             0.0000000000
     20953       182  SLPC      O31            34.7439611545      -26.5216885081      -13.8113722071  MEMB      182             0.0000000000
     20954       182  SLPC      C31            34.1300507039      -27.5679053814      -13.3143115467  MEMB      182             0.0000000000
     20955       182  SLPC      O32            33.5882670200      -28.4458064146      -13.9481628600  MEMB      182             0.0000000000
     20956       182  SLPC      C32            34.1575198648      -27.4602560790      -11.8035352143  MEMB      182             0.0000000000
     20957       182  SLPC      H2X            33.8450218762      -26.4439836511      -11.5146099671  MEMB      182             0.0000000000
     20958       182  SLPC      H2Y            35.1842908999      -27.7681443254      -11.5318102150  MEMB      182             0.0000000000
     20959       182  SLPC      C23            33.4148268038      -22.3580127041      -13.5141539453  MEMB      182             0.0000000000
     20960       182  SLPC      H3R            32.6923619090      -22.1583479350      -14.2263651695  MEMB      182             0.0000000000
     20961       182  SLPC      H3S            34.2897360935      -22.6680468992      -14.1136331403  MEMB      182             0.0000000000
     20962       182  SLPC      C24            33.5694857409      -21.0080371555      -12.8978806615  MEMB      182             0.0000000000
     20963       182  SLPC      H4R            34.3888045137      -20.5752759191      -13.4575309005  MEMB      182             0.0000000000
     20964       182  SLPC      H4S            33.7193422879      -21.0085127239      -11.8129695444  MEMB      182             0.0000000000
     20965       182  SLPC      C25            32.5728222481      -19.9981133836      -13.2444546919  MEMB      182             0.0000000000
     20966       182  SLPC      H5R            32.3159622291      -19.7845774538      -14.2907836207  MEMB      182             0.0000000000
     20967       182  SLPC      H5S            32.8092865345      -19.0019047331      -12.9339988388  MEMB      182             0.0000000000
     20968       182  SLPC      C26            31.4597068584      -19.9703885012      -12.4249225401  MEMB      182             0.0000000000
     20969       182  SLPC      H6R            30.8212078422      -20.3147955611      -13.1547687461  MEMB      182             0.0000000000
     20970       182  SLPC      H6S            31.0400555208      -18.9724794964      -12.7381403034  MEMB      182             0.0000000000
     20971       182  SLPC      C27            31.3728743036      -20.6298814728      -10.9585191489  MEMB      182             0.0000000000
     20972       182  SLPC      H7R            31.8995763681      -19.8440411779      -10.4206098932  MEMB      182             0.0000000000
     20973       182  SLPC      H7S            31.9426367280      -21.5712724621      -10.9471883710  MEMB      182             0.0000000000
     20974       182  SLPC      C28            30.0809781991      -20.9926710706      -10.0745358734  MEMB      182             0.0000000000
     20975       182  SLPC      H8R            29.1169914890      -20.4815413757       -9.9538020912  MEMB      182             0.0000000000
     20976       182  SLPC      H8S            30.1545772575      -20.7968856450       -8.9865395659  MEMB      182             0.0000000000
     20977       182  SLPC      C29            29.5777936251      -22.2416761958      -10.6784875728  MEMB      182             0.0000000000
     20978       182  SLPC      H9R            29.0279383607      -22.2498586870      -11.6233267637  MEMB      182             0.0000000000
     20979       182  SLPC      C210           29.5980591530      -23.3447610761      -10.0692507377  MEMB      182             0.0000000000
     20980       182  SLPC      H10R           29.1511444923      -24.1322514412      -10.6306972315  MEMB      182             0.0000000000
     20981       182  SLPC      C211           30.1231506043      -23.4849765400       -8.7180387637  MEMB      182             0.0000000000
     20982       182  SLPC      H11R           30.6760935106      -22.5740614913       -8.4289556828  MEMB      182             0.0000000000
     20983       182  SLPC      H11S           30.8759842359      -24.2668248968       -8.8657433797  MEMB      182             0.0000000000
     20984       182  SLPC      C212           29.1033419952      -23.7133507248       -7.6421804801  MEMB      182             0.0000000000
     20985       182  SLPC      H12R           28.0936676860      -23.2926894938       -7.7752654291  MEMB      182             0.0000000000
     20986       182  SLPC      C213           29.3970630093      -24.3956912611       -6.5393810709  MEMB      182             0.0000000000
     20987       182  SLPC      H13R           28.6500892533      -24.5923310657       -5.7594028057  MEMB      182             0.0000000000
     20988       182  SLPC      C214           30.7240886675      -25.0189448531       -6.2375859896  MEMB      182             0.0000000000
     20989       182  SLPC      H14R           31.3979559670      -24.4282786130       -5.6099897045  MEMB      182             0.0000000000
     20990       182  SLPC      H14S           31.2887938655      -25.2645884595       -7.1850486825  MEMB      182             0.0000000000
     20991       182  SLPC      C215           30.4722584269      -26.3060217405       -5.4630778858  MEMB      182             0.0000000000
     20992       182  SLPC      H15R           31.3076235797      -26.9882272765       -5.7465161290  MEMB      182             0.0000000000
     20993       182  SLPC      H15S           29.4839344995      -26.6097031100       -5.8503403369  MEMB      182             0.0000000000
     20994       182  SLPC      C216           29.7394844232      -26.6515444865       -4.2004641016  MEMB      182             0.0000000000
     20995       182  SLPC      H16R           29.5253218082      -27.7498717162       -4.0957745354  MEMB      182             0.0000000000
     20996       182  SLPC      H16S           28.7217044271      -26.2412870141       -4.1415492579  MEMB      182             0.0000000000
     20997       182  SLPC      C217           30.7454288952      -26.3049220905       -3.2335817733  MEMB      182             0.0000000000
     20998       182  SLPC      H17R           30.9811791284      -25.2458322013       -3.3745532889  MEMB      182             0.0000000000
     20999       182  SLPC      H17S           31.6599922511      -26.8359975348       -3.6065416506  MEMB      182             0.0000000000
     21000       182  SLPC      C218           30.1900890766      -26.6800159042       -1.8787942946  MEMB      182             0.0000000000
     21001       182  SLPC      H18R           29.2842206325      -26.1572757288       -1.6314430487  MEMB      182             0.0000000000
     21002       182  SLPC      H18S           30.9772220511      -26.4969886222       -1.1023991659  MEMB      182             0.0000000000
     21003       182  SLPC      H18T           30.0203278207      -27.7906364984       -1.9048078885  MEMB      182             0.0000000000
     21004       182  SLPC      C33            33.2408761203      -28.4494948396      -11.1493275025  MEMB      182             0.0000000000
     21005       182  SLPC      H3X            33.7864889160      -29.3552961183      -11.4209293515  MEMB      182             0.0000000000
     21006       182  SLPC      H3Y            32.2254011576      -28.3161202383      -11.5304446701  MEMB      182             0.0000000000
     21007       182  SLPC      C34            33.0659817274      -28.8139700064       -9.6971511050  MEMB      182             0.0000000000
     21008       182  SLPC      H4X            32.2374399861      -29.5065025894       -9.4086372475  MEMB      182             0.0000000000
     21009       182  SLPC      H4Y            32.8010548740      -27.8193492061       -9.3024872972  MEMB      182             0.0000000000
     21010       182  SLPC      C35            34.2300976592      -29.5653337319       -9.1439988892  MEMB      182             0.0000000000
     21011       182  SLPC      H5X            34.9521195767      -28.9953838163       -9.7315263692  MEMB      182             0.0000000000
     21012       182  SLPC      H5Y            34.8386539462      -30.4162198965       -9.4942399038  MEMB      182             0.0000000000
     21013       182  SLPC      C36            34.1345061762      -29.6138631177       -7.6229638332  MEMB      182             0.0000000000
     21014       182  SLPC      H6X            35.0598180901      -30.1871045432       -7.3797261987  MEMB      182             0.0000000000
     21015       182  SLPC      H6Y            33.2351983724      -29.9943130487       -7.1497141501  MEMB      182             0.0000000000
     21016       182  SLPC      C37            34.0205816183      -28.3177132969       -6.8546299019  MEMB      182             0.0000000000
     21017       182  SLPC      H7X            33.4930309427      -27.4694867971       -7.3756644361  MEMB      182             0.0000000000
     21018       182  SLPC      H7Y            35.1167138628      -28.4047345534       -6.9591808707  MEMB      182             0.0000000000
     21019       182  SLPC      C38            33.7807900144      -28.1141219613       -5.3561355914  MEMB      182             0.0000000000
     21020       182  SLPC      H8X            32.7960956931      -28.3609417404       -5.3548362831  MEMB      182             0.0000000000
     21021       182  SLPC      H8Y            33.8228284398      -27.2478758412       -4.6912507982  MEMB      182             0.0000000000
     21022       182  SLPC      C39            34.5867375356      -28.9342353264       -4.5266044153  MEMB      182             0.0000000000
     21023       182  SLPC      H9X            35.3802529117      -28.3622053231       -4.3275644571  MEMB      182             0.0000000000
     21024       182  SLPC      H9Y            34.6854916106      -29.8454747436       -5.1304648556  MEMB      182             0.0000000000
     21025       182  SLPC      C310           34.9621946734      -28.8646595823       -3.0226011679  MEMB      182             0.0000000000
     21026       182  SLPC      H10X           35.2421389118      -29.9599533959       -2.9608986219  MEMB      182             0.0000000000
     21027       182  SLPC      H10Y           34.5974916356      -29.1898550407       -2.1466022381  MEMB      182             0.0000000000
     21028       182  SLPC      C311           35.3588933928      -27.5367453893       -2.1749660722  MEMB      182             0.0000000000
     21029       182  SLPC      H11X           34.9804053839      -26.6697798802       -2.6867254630  MEMB      182             0.0000000000
     21030       182  SLPC      H11Y           36.4324665247      -27.2387288769       -2.1449610694  MEMB      182             0.0000000000
     21031       182  SLPC      C312           35.0544941122      -27.4619022311       -0.6485584276  MEMB      182             0.0000000000
     21032       182  SLPC      H12X           35.2370875170      -28.2857904337        0.0481938513  MEMB      182             0.0000000000
     21033       182  SLPC      H12Y           34.0163672078      -27.1023323153       -0.4709082768  MEMB      182             0.0000000000
     21034       182  SLPC      C313           36.1822091848      -26.6300474849       -0.0616283596  MEMB      182             0.0000000000
     21035       182  SLPC      H13X           36.0069000214      -26.0220672381       -1.0103147075  MEMB      182             0.0000000000
     21036       182  SLPC      H13Y           37.0896459725      -26.1861052422       -0.4459744791  MEMB      182             0.0000000000
     21037       182  SLPC      C314           35.8465935848      -26.1509991390        1.4137564244  MEMB      182             0.0000000000
     21038       182  SLPC      H14X           36.3714373903      -26.5459336672        2.2685449974  MEMB      182             0.0000000000
     21039       182  SLPC      H14Y           34.8881033254      -26.8380840596        1.5693274401  MEMB      182             0.0000000000
     21040       182  SLPC      C315           35.7576297225      -24.3727762636        1.8199650997  MEMB      182             0.0000000000
     21041       182  SLPC      H15X           36.3747957990      -23.6399266416        1.7563502126  MEMB      182             0.0000000000
     21042       182  SLPC      H15Y           35.3072965990      -25.0324132973        2.7452955469  MEMB      182             0.0000000000
     21043       182  SLPC      C316           33.8796543482      -22.6706192046        0.8731711429  MEMB      182             0.0000000000
     21044       182  SLPC      H16X           34.2340169622      -22.2632556219        0.0244530188  MEMB      182             0.0000000000
     21045       182  SLPC      H16Y           33.5437861275      -21.8213133154        1.4173919031  MEMB      182             0.0000000000
     21046       182  SLPC      C317           32.0630382490      -23.1884621119        1.0400871009  MEMB      182             0.0000000000
     21047       182  SLPC      H17X           31.6474104433      -24.0864841618        0.4016008562  MEMB      182             0.0000000000
     21048       182  SLPC      H17Y           31.4154884912      -22.4007727435        0.7732205912  MEMB      182             0.0000000000
     21049       182  SLPC      C318           31.4795297227      -24.0708336527        2.2450028927  MEMB      182             0.0000000000
     21050       182  SLPC      H18X           31.2534048851      -23.4628181387        3.0957844596  MEMB      182             0.0000000000
     21051       182  SLPC      H18Y           32.1440660577      -24.8534850318        2.7634817969  MEMB      182             0.0000000000
     21052       182  SLPC      H18Z           30.7852022694      -24.7364392812        1.8466096540  MEMB      182             0.0000000000
     21053       183  OSM       N              35.9915105301       21.1185848037      -22.2180668826  MEMB      183             0.0000000000
     21054       183  OSM       C15            35.8501992403       19.9615826185      -23.0615119342  MEMB      183             0.0000000000
     21055       183  OSM       H15A           36.6818577317       19.9515400549      -23.7397230630  MEMB      183             0.0000000000
     21056       183  OSM       H15B           34.9695593825       20.1198967649      -23.6716147744  MEMB      183             0.0000000000
     21057       183  OSM       H15C           35.7320076014       19.0477337069      -22.5084160333  MEMB      183             0.0000000000
     21058       183  OSM       C14            37.3002756254       21.0979007430      -21.5230193895  MEMB      183             0.0000000000
     21059       183  OSM       H14A           38.1209336591       20.9110728056      -22.1999498382  MEMB      183             0.0000000000
     21060       183  OSM       H14B           37.2415194765       20.2725408195      -20.8190570001  MEMB      183             0.0000000000
     21061       183  OSM       H14C           37.4719370746       22.0241237929      -21.0012546031  MEMB      183             0.0000000000
     21062       183  OSM       C13            35.9755738078       22.1750593857      -23.0433767721  MEMB      183             0.0000000000
     21063       183  OSM       H13A           35.0260414376       22.3668437491      -23.5665774788  MEMB      183             0.0000000000
     21064       183  OSM       H13B           36.7665627086       22.3764926910      -23.7575290399  MEMB      183             0.0000000000
     21065       183  OSM       H13C           36.0106973583       23.0143315173      -22.3288067961  MEMB      183             0.0000000000
     21066       183  OSM       C12            34.8203034455       21.3413291459      -21.3229002878  MEMB      183             0.0000000000
     21067       183  OSM       H12A           33.8739703217       21.3213973933      -21.8742041209  MEMB      183             0.0000000000
     21068       183  OSM       H12B           34.8598186778       22.3359026752      -20.8861407697  MEMB      183             0.0000000000
     21069       183  OSM       C11            34.8628926672       20.3230454010      -20.2081546095  MEMB      183             0.0000000000
     21070       183  OSM       H11A           33.8670543902       20.3560394201      -19.7165360703  MEMB      183             0.0000000000
     21071       183  OSM       H11B           35.6811058074       20.6887211585      -19.5433379976  MEMB      183             0.0000000000
     21072       183  OSM       P              35.6242802947       17.8800112341      -19.7642989486  MEMB      183             0.0000000000
     21073       183  OSM       O13            35.5602744544       16.6110292614      -20.5253434130  MEMB      183             0.0000000000
     21074       183  OSM       O14            36.9102248450       18.3234093239      -19.2087027099  MEMB      183             0.0000000000
     21075       183  OSM       O11            34.4704001760       17.9392049117      -18.6986543344  MEMB      183             0.0000000000
     21076       183  OSM       O12            35.1601837307       19.0153903676      -20.7032484660  MEMB      183             0.0000000000
     21077       183  OSM       C1S            34.3407682160       16.8234744928      -17.8241765134  MEMB      183             0.0000000000
     21078       183  OSM       H1S            35.2030953956       16.1214788167      -17.8935299109  MEMB      183             0.0000000000
     21079       183  OSM       H1T            33.4758569036       16.2080769103      -18.1414522075  MEMB      183             0.0000000000
     21080       183  OSM       NF             34.4449763456       16.2690298680      -15.4632142554  MEMB      183             0.0000000000
     21081       183  OSM       HNF            33.7633188094       16.0780086202      -14.7589358434  MEMB      183             0.0000000000
     21082       183  OSM       C2S            34.1570505502       17.3221165758      -16.3663253762  MEMB      183             0.0000000000
     21083       183  OSM       H2S            34.8792947324       18.1415278929      -16.1497218964  MEMB      183             0.0000000000
     21084       183  OSM       C3S            32.7189839848       17.8637416491      -16.1447998880  MEMB      183             0.0000000000
     21085       183  OSM       H3S            32.0156792209       17.0452714137      -16.2248008241  MEMB      183             0.0000000000
     21086       183  OSM       O3             32.2827546151       18.7031716715      -17.1757822596  MEMB      183             0.0000000000
     21087       183  OSM       HO3            32.9322956393       18.5075800575      -17.8595429430  MEMB      183             0.0000000000
     21088       183  OSM       C4S            32.5998424073       18.5991741809      -14.8274561557  MEMB      183             0.0000000000
     21089       183  OSM       H4S            33.1989836130       19.5058622074      -14.7381435312  MEMB      183             0.0000000000
     21090       183  OSM       C5S            31.7581203582       18.3045984686      -13.8166545620  MEMB      183             0.0000000000
     21091       183  OSM       H5S            31.0960653789       17.4364306996      -13.9262891825  MEMB      183             0.0000000000
     21092       183  OSM       C6S            31.5911222606       18.9961389638      -12.4915462196  MEMB      183             0.0000000000
     21093       183  OSM       H6S            31.4450343306       18.2398716591      -11.6896970961  MEMB      183             0.0000000000
     21094       183  OSM       H6T            30.6308799988       19.5574202483      -12.5304631634  MEMB      183             0.0000000000
     21095       183  OSM       C7S            32.6900872691       19.9719693617      -12.0227808102  MEMB      183             0.0000000000
     21096       183  OSM       H7S            32.3248160014       20.3795080535      -11.0514705294  MEMB      183             0.0000000000
     21097       183  OSM       H7T            32.8426239011       20.7616926841      -12.7700708352  MEMB      183             0.0000000000
     21098       183  OSM       C8S            34.0984390604       19.4253445553      -11.8192947953  MEMB      183             0.0000000000
     21099       183  OSM       H8S            34.4813960947       18.9181757332      -12.7203168086  MEMB      183             0.0000000000
     21100       183  OSM       H8T            34.0127579742       18.6709468404      -11.0774126078  MEMB      183             0.0000000000
     21101       183  OSM       C9S            35.1252404782       20.3667717154      -11.1809844385  MEMB      183             0.0000000000
     21102       183  OSM       H9S            35.2547039144       21.2632529539      -11.8127130693  MEMB      183             0.0000000000
     21103       183  OSM       H9T            36.1130672181       19.8568149310      -11.1668466319  MEMB      183             0.0000000000
     21104       183  OSM       C10S           34.7824192926       20.7622885399       -9.7349284609  MEMB      183             0.0000000000
     21105       183  OSM       H10S           33.6952525461       20.9663239870       -9.5889178976  MEMB      183             0.0000000000
     21106       183  OSM       H10T           35.3381809301       21.6843680322       -9.4787218737  MEMB      183             0.0000000000
     21107       183  OSM       C11S           35.3007084753       19.7977149546       -8.6842006903  MEMB      183             0.0000000000
     21108       183  OSM       H11S           36.3795555472       19.5854485993       -8.7900923811  MEMB      183             0.0000000000
     21109       183  OSM       H11T           34.8149396536       18.8427127325       -8.8785261321  MEMB      183             0.0000000000
     21110       183  OSM       C12S           34.9433905724       20.3300114375       -7.2959430562  MEMB      183             0.0000000000
     21111       183  OSM       H12S           33.8400939526       20.2677504130       -7.1769920174  MEMB      183             0.0000000000
     21112       183  OSM       H12T           35.1781731040       21.4154002799       -7.2876331184  MEMB      183             0.0000000000
     21113       183  OSM       C13S           35.6203368309       19.5920030564       -6.1371067641  MEMB      183             0.0000000000
     21114       183  OSM       H13S           36.6712262546       19.9338964157       -6.0168014988  MEMB      183             0.0000000000
     21115       183  OSM       H13T           35.6609531805       18.4948227030       -6.3140965367  MEMB      183             0.0000000000
     21116       183  OSM       C14S           34.9245024056       19.8707170029       -4.8090476936  MEMB      183             0.0000000000
     21117       183  OSM       H14S           33.8650954561       19.5331531913       -4.8222314662  MEMB      183             0.0000000000
     21118       183  OSM       H14T           34.9323115909       20.9730430624       -4.6581663087  MEMB      183             0.0000000000
     21119       183  OSM       C15S           35.6722084569       19.2408735751       -3.6454392226  MEMB      183             0.0000000000
     21120       183  OSM       H15S           36.1401908877       18.2659727696       -3.9285169050  MEMB      183             0.0000000000
     21121       183  OSM       H15T           34.9516584764       19.0991207402       -2.8180702924  MEMB      183             0.0000000000
     21122       183  OSM       C16S           36.6852061705       20.1960393862       -3.0725838363  MEMB      183             0.0000000000
     21123       183  OSM       H16S           36.1843746417       21.1720911730       -2.8711480885  MEMB      183             0.0000000000
     21124       183  OSM       H16T           37.4981052973       20.3473388193       -3.8185638335  MEMB      183             0.0000000000
     21125       183  OSM       C17S           37.3912096744       19.6570510631       -1.8624952191  MEMB      183             0.0000000000
     21126       183  OSM       H17S           37.9544742530       18.7406748418       -2.1411103180  MEMB      183             0.0000000000
     21127       183  OSM       H17T           36.8037933135       19.4853603710       -0.9313254564  MEMB      183             0.0000000000
     21128       183  OSM       C18S           38.4469252665       20.6014751702       -1.5440717339  MEMB      183             0.0000000000
     21129       183  OSM       H18S           39.0812911012       20.0679264856       -0.8017177809  MEMB      183             0.0000000000
     21130       183  OSM       H18T           38.0550197201       21.5474820384       -1.0866566460  MEMB      183             0.0000000000
     21131       183  OSM       H18U           39.1499203369       20.8590655011       -2.3570277777  MEMB      183             0.0000000000
     21132       183  OSM       C1F            35.4760886900       15.4812233673      -15.4672756976  MEMB      183             0.0000000000
     21133       183  OSM       OF             36.4947762308       15.5168400609      -16.1329693031  MEMB      183             0.0000000000
     21134       183  OSM       C2F            35.1815123975       14.4268664830      -14.5961136858  MEMB      183             0.0000000000
     21135       183  OSM       H2F            35.8006966652       13.6353734507      -14.8124907168  MEMB      183             0.0000000000
     21136       183  OSM       H2G            34.1859724154       13.9585004930      -14.6454336039  MEMB      183             0.0000000000
     21137       183  OSM       C3F            35.6655064842       14.7833858166      -13.2729093126  MEMB      183             0.0000000000
     21138       183  OSM       H3F            36.6721059189       15.2045768198      -13.1040420602  MEMB      183             0.0000000000
     21139       183  OSM       H3G            35.4184630980       13.7615718568      -12.8783601679  MEMB      183             0.0000000000
     21140       183  OSM       C4F            34.8298819598       15.4627962003      -12.4257013927  MEMB      183             0.0000000000
     21141       183  OSM       H4F            33.9360925920       15.2668709741      -13.0105335964  MEMB      183             0.0000000000
     21142       183  OSM       H4G            34.9307396984       16.5620375598      -12.3679868158  MEMB      183             0.0000000000
     21143       183  OSM       C5F            34.8994334941       14.5884443335      -11.1751926675  MEMB      183             0.0000000000
     21144       183  OSM       H5F            35.4078852959       14.7307665089      -10.2011162813  MEMB      183             0.0000000000
     21145       183  OSM       H5G            34.4860133492       13.5498715447      -11.2528682092  MEMB      183             0.0000000000
     21146       183  OSM       C6F            34.0606763005       15.1481894982      -10.4664303838  MEMB      183             0.0000000000
     21147       183  OSM       H6F            33.2266236651       15.6916091816      -11.2730968326  MEMB      183             0.0000000000
     21148       183  OSM       H6G            34.1254714679       16.2625759345      -10.6023948479  MEMB      183             0.0000000000
     21149       183  OSM       C7F            33.5078884051       14.0728411572       -8.8750090484  MEMB      183             0.0000000000
     21150       183  OSM       H7F            33.6095126170       13.0251137592       -8.9448913758  MEMB      183             0.0000000000
     21151       183  OSM       H7G            32.2804586736       13.8641783424       -8.6259490702  MEMB      183             0.0000000000
     21152       183  OSM       C8F            33.4982583203       14.5986830758       -7.3934707060  MEMB      183             0.0000000000
     21153       183  OSM       H8F            34.2131537496       15.4145271722       -7.2815636655  MEMB      183             0.0000000000
     21154       183  OSM       H8G            33.8700218709       13.7078133989       -6.8674147546  MEMB      183             0.0000000000
     21155       183  OSM       C9F            32.3255339946       15.3374860272       -6.7766382192  MEMB      183             0.0000000000
     21156       183  OSM       H9F            31.6615123536       15.9034750376       -7.3341715070  MEMB      183             0.0000000000
     21157       183  OSM       C10F           31.4932113237       15.1851141148       -5.8832224940  MEMB      183             0.0000000000
     21158       183  OSM       H10F           30.7197326266       15.9117894040       -5.4534021209  MEMB      183             0.0000000000
     21159       183  OSM       C11F           31.9981858070       13.8914333038       -5.5440491715  MEMB      183             0.0000000000
     21160       183  OSM       H11F           31.9419394235       13.0191686890       -6.2054245823  MEMB      183             0.0000000000
     21161       183  OSM       H11G           30.9935060861       13.9821762228       -5.2707470353  MEMB      183             0.0000000000
     21162       183  OSM       C12F           33.1985387097       13.6405034640       -4.6492567199  MEMB      183             0.0000000000
     21163       183  OSM       H12F           34.0039482558       14.4251234937       -4.7399438058  MEMB      183             0.0000000000
     21164       183  OSM       H12G           33.2723871699       12.6502345186       -4.1485915693  MEMB      183             0.0000000000
     21165       183  OSM       C13F           32.7821184699       14.1217413050       -3.4421147048  MEMB      183             0.0000000000
     21166       183  OSM       H13F           32.1367364452       13.4591456676       -2.8341144903  MEMB      183             0.0000000000
     21167       183  OSM       H13G           32.3778014048       15.0017013707       -3.9159832436  MEMB      183             0.0000000000
     21168       183  OSM       C14F           33.5124951236       14.7640664504       -2.4767401924  MEMB      183             0.0000000000
     21169       183  OSM       H14F           34.6369154645       14.6620213611       -2.7101283137  MEMB      183             0.0000000000
     21170       183  OSM       H14G           33.5721316461       13.7650892672       -1.9367160427  MEMB      183             0.0000000000
     21171       183  OSM       C15F           33.2592623678       16.9478624623       -0.6607034822  MEMB      183             0.0000000000
     21172       183  OSM       H15F           32.6710908637       16.8427732296       -0.0202369980  MEMB      183             0.0000000000
     21173       183  OSM       H15G           33.2520859625       18.0374906268       -0.9396178918  MEMB      183             0.0000000000
     21174       183  OSM       C16F           34.5090962194       17.6757559954        0.0920436390  MEMB      183             0.0000000000
     21175       183  OSM       H16F           35.2828878851       18.2336572811       -0.4881596284  MEMB      183             0.0000000000
     21176       183  OSM       H16G           35.1301328507       16.8883211441        0.1221597104  MEMB      183             0.0000000000
     21177       183  OSM       C17F           33.9554318301       18.2331256642        1.3673293137  MEMB      183             0.0000000000
     21178       183  OSM       H17F           33.1530711336       18.9493725825        1.0850050773  MEMB      183             0.0000000000
     21179       183  OSM       H17G           34.8689245531       18.5294421298        1.8224453590  MEMB      183             0.0000000000
     21180       183  OSM       C18F           33.3772495102       17.3806491134        2.4244173732  MEMB      183             0.0000000000
     21181       183  OSM       H18F           33.9825142113       16.6126854996        2.7338549891  MEMB      183             0.0000000000
     21182       183  OSM       H18G           32.4817580311       16.8126348849        2.1560334348  MEMB      183             0.0000000000
     21183       183  OSM       H18H           33.2784041438       17.7207516193        3.4416278782  MEMB      183             0.0000000000
     21184       184  CHL1      C3            -34.0429408026      -20.3564207398      -17.3166719375  MEMB      184             0.0000000000
     21185       184  CHL1      H3            -34.4540686960      -21.3496914131      -17.0052457906  MEMB      184             0.0000000000
     21186       184  CHL1      O3            -34.0563716833      -20.2451654290      -18.7277288243  MEMB      184             0.0000000000
     21187       184  CHL1      H3'           -33.6738222723      -21.0838908093      -19.0279584909  MEMB      184             0.0000000000
     21188       184  CHL1      C4            -34.8380733530      -19.2687388416      -16.6562595537  MEMB      184             0.0000000000
     21189       184  CHL1      H4A           -34.6173607538      -18.2184442262      -16.9661799166  MEMB      184             0.0000000000
     21190       184  CHL1      H4B           -35.7350318779      -19.5416042320      -17.0597467699  MEMB      184             0.0000000000
     21191       184  CHL1      C5            -35.0985624760      -19.5141297293      -15.2149922635  MEMB      184             0.0000000000
     21192       184  CHL1      C6            -36.2376524431      -19.8621113041      -14.6333423880  MEMB      184             0.0000000000
     21193       184  CHL1      H6            -37.1523263096      -19.8969801436      -15.1872810335  MEMB      184             0.0000000000
     21194       184  CHL1      C7            -36.5034492137      -19.8868509541      -13.2047129006  MEMB      184             0.0000000000
     21195       184  CHL1      H7A           -37.3758485081      -19.2414276258      -12.9953653808  MEMB      184             0.0000000000
     21196       184  CHL1      H7B           -36.7258665855      -20.9423953880      -12.9496010867  MEMB      184             0.0000000000
     21197       184  CHL1      C8            -35.3756967602      -19.3213923659      -12.4211623876  MEMB      184             0.0000000000
     21198       184  CHL1      H8            -35.4103854970      -18.2116097119      -12.5008756155  MEMB      184             0.0000000000
     21199       184  CHL1      C14           -35.5113749397      -19.8431538411      -11.0216572561  MEMB      184             0.0000000000
     21200       184  CHL1      H14           -35.5908679929      -20.9533184416      -11.0808597838  MEMB      184             0.0000000000
     21201       184  CHL1      C15           -36.7102608701      -19.4701297045      -10.2085627988  MEMB      184             0.0000000000
     21202       184  CHL1      H15A          -36.8170536044      -18.3688139984      -10.2122472590  MEMB      184             0.0000000000
     21203       184  CHL1      H15B          -37.6529700895      -19.9625622938      -10.5155880934  MEMB      184             0.0000000000
     21204       184  CHL1      C16           -36.3353393234      -19.7793055889       -8.7629867445  MEMB      184             0.0000000000
     21205       184  CHL1      H16A          -36.5879013112      -18.8978565111       -8.1175774842  MEMB      184             0.0000000000
     21206       184  CHL1      H16B          -36.8548355153      -20.6802525421       -8.4043969377  MEMB      184             0.0000000000
     21207       184  CHL1      C17           -34.8341169400      -20.0088403925       -8.7590482610  MEMB      184             0.0000000000
     21208       184  CHL1      H17           -34.6494788601      -21.0933031175       -8.7849469190  MEMB      184             0.0000000000
     21209       184  CHL1      C13           -34.3741892440      -19.4540420776      -10.1447986448  MEMB      184             0.0000000000
     21210       184  CHL1      C18           -34.2741941999      -17.9223371564      -10.2606794220  MEMB      184             0.0000000000
     21211       184  CHL1      H18A          -34.0639438277      -17.4254144022      -11.2201849778  MEMB      184             0.0000000000
     21212       184  CHL1      H18B          -35.1501995790      -17.4033341759       -9.8104282778  MEMB      184             0.0000000000
     21213       184  CHL1      H18C          -33.3311316270      -17.7050868871       -9.7452081124  MEMB      184             0.0000000000
     21214       184  CHL1      C12           -33.1283726181      -20.0849771540      -10.6825316270  MEMB      184             0.0000000000
     21215       184  CHL1      H12A          -32.2827203810      -19.7470305885      -10.0632844013  MEMB      184             0.0000000000
     21216       184  CHL1      H12B          -33.2102441981      -21.1866399507      -10.6946768320  MEMB      184             0.0000000000
     21217       184  CHL1      C11           -32.9229719886      -19.6546947131      -12.1060620530  MEMB      184             0.0000000000
     21218       184  CHL1      H11A          -32.5788257771      -18.6100209345      -12.0843603948  MEMB      184             0.0000000000
     21219       184  CHL1      H11B          -32.1245527400      -20.2253997975      -12.5661789386  MEMB      184             0.0000000000
     21220       184  CHL1      C9            -34.1187407062      -19.8605009738      -13.0256171317  MEMB      184             0.0000000000
     21221       184  CHL1      H9            -34.3056000785      -20.9685348624      -13.1076453952  MEMB      184             0.0000000000
     21222       184  CHL1      C10           -33.9112740838      -19.3628147156      -14.4580872802  MEMB      184             0.0000000000
     21223       184  CHL1      C19           -33.7287906038      -17.8054092739      -14.5039303550  MEMB      184             0.0000000000
     21224       184  CHL1      H19A          -33.3379917248      -17.3778223926      -15.4575464072  MEMB      184             0.0000000000
     21225       184  CHL1      H19B          -34.4393851637      -17.1345010028      -14.0196213845  MEMB      184             0.0000000000
     21226       184  CHL1      H19C          -33.0558484632      -17.5744297995      -13.6940230554  MEMB      184             0.0000000000
     21227       184  CHL1      C1            -32.9569450238      -20.3502686703      -15.2139669179  MEMB      184             0.0000000000
     21228       184  CHL1      H1A           -32.0282792628      -20.3766818606      -14.7122025188  MEMB      184             0.0000000000
     21229       184  CHL1      H1B           -33.2520186410      -21.4030470805      -15.0150870112  MEMB      184             0.0000000000
     21230       184  CHL1      C2            -32.7132094138      -20.1381450617      -16.7224636717  MEMB      184             0.0000000000
     21231       184  CHL1      H2A           -31.9515307953      -20.7841737828      -17.1622056776  MEMB      184             0.0000000000
     21232       184  CHL1      H2B           -32.3859082790      -19.1110426879      -16.9565216705  MEMB      184             0.0000000000
     21233       184  CHL1      C20           -34.2509459759      -19.6214897978       -7.4106516239  MEMB      184             0.0000000000
     21234       184  CHL1      H20           -34.6865628323      -18.6569826028       -7.3245316614  MEMB      184             0.0000000000
     21235       184  CHL1      C21           -32.7592072533      -19.5989370470       -7.4571898856  MEMB      184             0.0000000000
     21236       184  CHL1      H21A          -32.3618742838      -18.7326867238       -8.0366030320  MEMB      184             0.0000000000
     21237       184  CHL1      H21B          -32.4366352514      -20.5470299879       -7.8968676564  MEMB      184             0.0000000000
     21238       184  CHL1      H21C          -32.3571622000      -19.5582214944       -6.4313831858  MEMB      184             0.0000000000
     21239       184  CHL1      C22           -34.7596232366      -20.2667311604       -6.0838097920  MEMB      184             0.0000000000
     21240       184  CHL1      H22A          -35.8694535735      -20.1089634207       -6.1055570183  MEMB      184             0.0000000000
     21241       184  CHL1      H22B          -34.4981127592      -21.3246873680       -6.2089415456  MEMB      184             0.0000000000
     21242       184  CHL1      C23           -34.1976745923      -19.6934676379       -4.7120402963  MEMB      184             0.0000000000
     21243       184  CHL1      H23A          -33.1091318209      -19.6338250760       -4.6560057137  MEMB      184             0.0000000000
     21244       184  CHL1      H23B          -34.2358913255      -18.6342816159       -4.5233485423  MEMB      184             0.0000000000
     21245       184  CHL1      C24           -34.9800670103      -20.0729637840       -3.4357542540  MEMB      184             0.0000000000
     21246       184  CHL1      H24A          -36.0514648645      -20.2350905670       -3.7105318510  MEMB      184             0.0000000000
     21247       184  CHL1      H24B          -34.5160321599      -21.0292267671       -3.1384007756  MEMB      184             0.0000000000
     21248       184  CHL1      C25           -34.9305775187      -19.0498881056       -2.2362482503  MEMB      184             0.0000000000
     21249       184  CHL1      H25           -35.5045386489      -18.1152034514       -2.3630076133  MEMB      184             0.0000000000
     21250       184  CHL1      C26           -35.6033302696      -19.5814125551       -0.9813503016  MEMB      184             0.0000000000
     21251       184  CHL1      H26A          -35.4540400741      -18.8148402014       -0.2159434785  MEMB      184             0.0000000000
     21252       184  CHL1      H26B          -36.6966508585      -19.7620431173       -1.0850157972  MEMB      184             0.0000000000
     21253       184  CHL1      H26C          -35.0740705940      -20.4772707986       -0.6384367096  MEMB      184             0.0000000000
     21254       184  CHL1      C27           -33.5567543792      -18.4565342846       -1.9282605282  MEMB      184             0.0000000000
     21255       184  CHL1      H27A          -33.6343844087      -17.8029106791       -1.0355731893  MEMB      184             0.0000000000
     21256       184  CHL1      H27B          -32.8990818392      -19.2662863221       -1.6687737351  MEMB      184             0.0000000000
     21257       184  CHL1      H27C          -33.1303837583      -17.8761567873       -2.7748693659  MEMB      184             0.0000000000
     21258       185  SAPS      N              21.2565803238       36.8061344212      -21.6383533980  MEMB      185             0.0000000000
     21259       185  SAPS      HN1            20.4240685001       36.6240993873      -21.0599457980  MEMB      185             0.0000000000
     21260       185  SAPS      HN2            21.4220224318       37.7701862958      -21.2754992256  MEMB      185             0.0000000000
     21261       185  SAPS      HN3            21.1460524943       37.2987168543      -22.5619959341  MEMB      185             0.0000000000
     21262       185  SAPS      C12            22.5685971002       36.0395855205      -21.2113494613  MEMB      185             0.0000000000
     21263       185  SAPS      H12A           22.4863033760       35.1340113414      -21.7228787492  MEMB      185             0.0000000000
     21264       185  SAPS      C13            23.8335961965       36.6699564006      -21.8054294227  MEMB      185             0.0000000000
     21265       185  SAPS      O13A           23.4449098704       37.4254485115      -22.7126530374  MEMB      185             0.0000000000
     21266       185  SAPS      O13B           24.9008602333       36.0211714392      -21.9221948020  MEMB      185             0.0000000000
     21267       185  SAPS      C11            22.8671393296       35.7623836914      -19.6714956287  MEMB      185             0.0000000000
     21268       185  SAPS      H11A           21.9678606976       35.3111897871      -19.1977233942  MEMB      185             0.0000000000
     21269       185  SAPS      H11B           23.0012644155       36.6252786584      -19.0416161509  MEMB      185             0.0000000000
     21270       185  SAPS      P              24.0763459740       33.9365823680      -18.3591830843  MEMB      185             0.0000000000
     21271       185  SAPS      O13            22.8617815386       33.1363586218      -18.5503879514  MEMB      185             0.0000000000
     21272       185  SAPS      O14            25.4001112526       33.2595763648      -18.3570583423  MEMB      185             0.0000000000
     21273       185  SAPS      O12            24.1020234406       35.0548699241      -19.4557320892  MEMB      185             0.0000000000
     21274       185  SAPS      O11            23.9800441386       34.8005345937      -17.0804473366  MEMB      185             0.0000000000
     21275       185  SAPS      C1             25.0621582941       35.6716624863      -16.7479495036  MEMB      185             0.0000000000
     21276       185  SAPS      HA             25.5487817210       36.1557448609      -17.6294664442  MEMB      185             0.0000000000
     21277       185  SAPS      HB             24.5474862625       36.4217015983      -16.1648228134  MEMB      185             0.0000000000
     21278       185  SAPS      C2             26.1565986162       35.1287735830      -15.7888429885  MEMB      185             0.0000000000
     21279       185  SAPS      HS             27.0316727718       34.9431472895      -16.4534662151  MEMB      185             0.0000000000
     21280       185  SAPS      O21            25.6593200574       33.9377238486      -15.2165327635  MEMB      185             0.0000000000
     21281       185  SAPS      C21            26.5222908595       33.0911223320      -14.7911302436  MEMB      185             0.0000000000
     21282       185  SAPS      O22            27.7118788774       33.0436796869      -15.0684759917  MEMB      185             0.0000000000
     21283       185  SAPS      C22            25.7569283165       32.1235126986      -13.9317661334  MEMB      185             0.0000000000
     21284       185  SAPS      H2R            25.1899509141       32.7454701300      -13.1890098257  MEMB      185             0.0000000000
     21285       185  SAPS      H2S            25.0070085900       31.5694656474      -14.5318350362  MEMB      185             0.0000000000
     21286       185  SAPS      C3             26.5543783992       36.1259260669      -14.6398444111  MEMB      185             0.0000000000
     21287       185  SAPS      HX             26.9094687544       37.0440938108      -15.1491099180  MEMB      185             0.0000000000
     21288       185  SAPS      HY             27.4306308745       35.8127624313      -14.0442344489  MEMB      185             0.0000000000
     21289       185  SAPS      O31            25.4323010429       36.4666127725      -13.7910254025  MEMB      185             0.0000000000
     21290       185  SAPS      C31            25.2037398658       35.7598987896      -12.7175340022  MEMB      185             0.0000000000
     21291       185  SAPS      O32            25.9515820512       34.9108423731      -12.2599579236  MEMB      185             0.0000000000
     21292       185  SAPS      C32            23.8936255901       36.2031392722      -12.0604244711  MEMB      185             0.0000000000
     21293       185  SAPS      H2X            23.3136359526       36.8695622995      -12.7311235606  MEMB      185             0.0000000000
     21294       185  SAPS      H2Y            24.1118879734       36.6819826812      -11.0909517850  MEMB      185             0.0000000000
     21295       185  SAPS      C23            26.6660273501       31.1423360590      -13.1789884207  MEMB      185             0.0000000000
     21296       185  SAPS      H3R            27.3339787573       31.7649236018      -12.5244577659  MEMB      185             0.0000000000
     21297       185  SAPS      H3S            27.2196964308       30.3828722323      -13.7530044315  MEMB      185             0.0000000000
     21298       185  SAPS      C24            25.7859151705       30.3257026378      -12.3255083851  MEMB      185             0.0000000000
     21299       185  SAPS      H4R            25.1845939597       29.5065591846      -12.7172892750  MEMB      185             0.0000000000
     21300       185  SAPS      H4S            25.0792327290       31.0846845593      -12.1941943964  MEMB      185             0.0000000000
     21301       185  SAPS      C25            26.3928166430       30.2097895033      -11.0159653785  MEMB      185             0.0000000000
     21302       185  SAPS      H5R            27.3445196989       29.6031334769      -10.9980912990  MEMB      185             0.0000000000
     21303       185  SAPS      C26            25.7625990557       30.6350962101       -9.8894365235  MEMB      185             0.0000000000
     21304       185  SAPS      H6R            26.3361535555       29.9068759825       -9.2494885723  MEMB      185             0.0000000000
     21305       185  SAPS      C27            24.2731119786       31.3452711449       -9.3097376863  MEMB      185             0.0000000000
     21306       185  SAPS      H7R            23.3245040092       30.7187307813       -8.8710321037  MEMB      185             0.0000000000
     21307       185  SAPS      H7S            23.2019715729       30.8477573075       -9.3224223179  MEMB      185             0.0000000000
     21308       185  SAPS      C28            23.9681167930       32.4160043758       -8.5631550702  MEMB      185             0.0000000000
     21309       185  SAPS      H8R            24.8000529033       32.4185869449       -7.8887356707  MEMB      185             0.0000000000
     21310       185  SAPS      C29            22.6892051150       32.7324888083       -8.3121969202  MEMB      185             0.0000000000
     21311       185  SAPS      H9R            22.6625004824       33.5443369066       -7.6638854009  MEMB      185             0.0000000000
     21312       185  SAPS      C210           21.3749276879       32.0169529869       -8.7617135873  MEMB      185             0.0000000000
     21313       185  SAPS      H10R           21.1599711167       31.6740995701       -9.7880144023  MEMB      185             0.0000000000
     21314       185  SAPS      H10S           20.6369876113       32.8069902527       -8.7020645891  MEMB      185             0.0000000000
     21315       185  SAPS      C211           21.0384763063       30.6718651810       -8.1660298345  MEMB      185             0.0000000000
     21316       185  SAPS      H11R           20.5940906938       29.8748480025       -8.8067975869  MEMB      185             0.0000000000
     21317       185  SAPS      C212           20.9581014167       30.5456141498       -6.9010896094  MEMB      185             0.0000000000
     21318       185  SAPS      H12R           20.1139398987       29.9309705727       -6.6589285074  MEMB      185             0.0000000000
     21319       185  SAPS      C213           21.1924343406       31.6466025761       -5.9498381080  MEMB      185             0.0000000000
     21320       185  SAPS      H13R           20.4263623586       32.3291065194       -5.7574063911  MEMB      185             0.0000000000
     21321       185  SAPS      H13S           21.4619520455       32.6606861832       -6.2719763565  MEMB      185             0.0000000000
     21322       185  SAPS      C214           21.1745946764       31.0480677789       -4.6249828199  MEMB      185             0.0000000000
     21323       185  SAPS      H14R           20.4064660095       30.3066568861       -4.3476527887  MEMB      185             0.0000000000
     21324       185  SAPS      C215           22.0373255824       31.5176643858       -3.7935154970  MEMB      185             0.0000000000
     21325       185  SAPS      H15R           22.2041651264       30.9113677801       -2.9084002361  MEMB      185             0.0000000000
     21326       185  SAPS      C216           23.0059063029       32.6198041878       -4.1626316510  MEMB      185             0.0000000000
     21327       185  SAPS      H16R           22.8234411667       33.3971526877       -3.4067701010  MEMB      185             0.0000000000
     21328       185  SAPS      H16S           22.8574955856       33.1025307204       -5.1399596617  MEMB      185             0.0000000000
     21329       185  SAPS      C217           24.5108393012       32.3411858293       -4.2661183224  MEMB      185             0.0000000000
     21330       185  SAPS      H17R           25.0761649804       33.2434654752       -4.5430553927  MEMB      185             0.0000000000
     21331       185  SAPS      H17S           24.7372510538       31.4537664327       -4.9221769974  MEMB      185             0.0000000000
     21332       185  SAPS      C218           25.0130337255       32.0419963218       -2.9059185296  MEMB      185             0.0000000000
     21333       185  SAPS      H18R           25.9467004367       31.4414446958       -2.9282838570  MEMB      185             0.0000000000
     21334       185  SAPS      H18S           24.1659130306       31.3424719222       -2.8016928654  MEMB      185             0.0000000000
     21335       185  SAPS      C219           24.9313146799       33.1205135205       -1.7575061903  MEMB      185             0.0000000000
     21336       185  SAPS      H19R           23.8987209044       33.4989509890       -1.7805999814  MEMB      185             0.0000000000
     21337       185  SAPS      H19S           25.7559461751       33.7798811850       -2.0572053708  MEMB      185             0.0000000000
     21338       185  SAPS      C220           25.0661640715       32.9380783052       -0.2300305211  MEMB      185             0.0000000000
     21339       185  SAPS      H20R           26.1539612379       32.9224364869        0.0171769578  MEMB      185             0.0000000000
     21340       185  SAPS      H20S           24.4233589896       32.0680593793        0.0646808426  MEMB      185             0.0000000000
     21341       185  SAPS      H20T           25.0734841059       33.6219885279        0.6043298968  MEMB      185             0.0000000000
     21342       185  SAPS      C33            23.0712134103       34.9655248777      -11.7504724511  MEMB      185             0.0000000000
     21343       185  SAPS      H3X            23.6415940162       34.2853191913      -11.0794107995  MEMB      185             0.0000000000
     21344       185  SAPS      H3Y            22.9982556474       34.4917892499      -12.7354751921  MEMB      185             0.0000000000
     21345       185  SAPS      C34            21.7362534672       35.2262260077      -11.0705706870  MEMB      185             0.0000000000
     21346       185  SAPS      H4X            21.2940612448       34.2571640472      -10.7962409384  MEMB      185             0.0000000000
     21347       185  SAPS      H4Y            20.9897152112       35.7841769448      -11.6712224653  MEMB      185             0.0000000000
     21348       185  SAPS      C35            21.9191012646       35.8659110018       -9.7246289182  MEMB      185             0.0000000000
     21349       185  SAPS      H5X            22.3431603509       36.8917649688       -9.8181927797  MEMB      185             0.0000000000
     21350       185  SAPS      H5Y            22.6337897322       35.2566004838       -9.1313067340  MEMB      185             0.0000000000
     21351       185  SAPS      C36            20.5966394680       35.8631568143       -9.0073472892  MEMB      185             0.0000000000
     21352       185  SAPS      H6X            20.1443249843       34.8919135019       -8.7575599109  MEMB      185             0.0000000000
     21353       185  SAPS      H6Y            19.8663089768       36.5336776347       -9.5466743349  MEMB      185             0.0000000000
     21354       185  SAPS      C37            20.8020286520       36.4635771549       -7.6872250461  MEMB      185             0.0000000000
     21355       185  SAPS      H7X            19.7655470675       36.5527965139       -7.2498043626  MEMB      185             0.0000000000
     21356       185  SAPS      H7Y            21.1324523979       37.4568911585       -8.0654564284  MEMB      185             0.0000000000
     21357       185  SAPS      C38            21.6495627399       35.8559205097       -6.5252477772  MEMB      185             0.0000000000
     21358       185  SAPS      H8X            21.4206638018       34.7971929325       -6.5127115499  MEMB      185             0.0000000000
     21359       185  SAPS      H8Y            21.2530544576       36.3060796460       -5.5816816717  MEMB      185             0.0000000000
     21360       185  SAPS      C39            23.1866652085       35.8872737423       -6.4362263627  MEMB      185             0.0000000000
     21361       185  SAPS      H9X            23.5999723814       36.0917496977       -7.4485754974  MEMB      185             0.0000000000
     21362       185  SAPS      H9Y            23.7406680287       34.9725900299       -6.2276878103  MEMB      185             0.0000000000
     21363       185  SAPS      C310           23.6978960238       36.9019094483       -5.4238684288  MEMB      185             0.0000000000
     21364       185  SAPS      H10X           23.2289818517       37.8971143806       -5.4892630867  MEMB      185             0.0000000000
     21365       185  SAPS      H10Y           24.7913449309       36.8919641652       -5.5888626555  MEMB      185             0.0000000000
     21366       185  SAPS      C311           23.6543565618       36.8125008360       -3.9896989466  MEMB      185             0.0000000000
     21367       185  SAPS      H11X           24.2473193513       35.9023871222       -3.8034463785  MEMB      185             0.0000000000
     21368       185  SAPS      H11Y           22.5844004025       36.8112749378       -3.7011972959  MEMB      185             0.0000000000
     21369       185  SAPS      C312           24.3382467344       37.9943690885       -3.3328718516  MEMB      185             0.0000000000
     21370       185  SAPS      H12X           24.1425715760       38.9595151899       -3.8225042202  MEMB      185             0.0000000000
     21371       185  SAPS      H12Y           25.4242996089       37.9152688084       -3.4976555865  MEMB      185             0.0000000000
     21372       185  SAPS      C313           23.8387170583       37.8617156378       -1.8996258117  MEMB      185             0.0000000000
     21373       185  SAPS      H13X           22.9055345709       38.4111725478       -1.7090634439  MEMB      185             0.0000000000
     21374       185  SAPS      H13Y           24.3457790536       38.4340424905       -1.2329220821  MEMB      185             0.0000000000
     21375       185  SAPS      C314           24.1544794284       36.4890665001       -1.2470269770  MEMB      185             0.0000000000
     21376       185  SAPS      H14X           25.1798419254       36.1575139232       -1.4971143458  MEMB      185             0.0000000000
     21377       185  SAPS      H14Y           23.4111928214       35.8307276558       -1.7364382665  MEMB      185             0.0000000000
     21378       185  SAPS      C315           24.1394188166       36.3191250895        0.3056413313  MEMB      185             0.0000000000
     21379       185  SAPS      H15X           24.5795978884       37.1646818762        0.8849621024  MEMB      185             0.0000000000
     21380       185  SAPS      H15Y           24.5618657094       35.3792770862        0.6508116780  MEMB      185             0.0000000000
     21381       185  SAPS      C316           22.7036733793       36.0400892090        0.5925562647  MEMB      185             0.0000000000
     21382       185  SAPS      H16X           22.3640442650       35.3285261741       -0.1707381206  MEMB      185             0.0000000000
     21383       185  SAPS      H16Y           22.5025734080       37.0819654759        0.2257461415  MEMB      185             0.0000000000
     21384       185  SAPS      C317           22.0302420485       35.5698052642        1.9946874496  MEMB      185             0.0000000000
     21385       185  SAPS      H17X           22.9184493241       35.9978202545        2.4476344525  MEMB      185             0.0000000000
     21386       185  SAPS      H17Y           22.2821969859       34.5646901546        2.2786126890  MEMB      185             0.0000000000
     21387       185  SAPS      C318           20.4786920575       35.8946621951        2.7109438843  MEMB      185             0.0000000000
     21388       185  SAPS      H18X           20.1835498936       36.2004743786        3.7243967207  MEMB      185             0.0000000000
     21389       185  SAPS      H18Y           20.0717888799       35.0282118212        2.6486148057  MEMB      185             0.0000000000
     21390       185  SAPS      H18Z           19.7879155752       36.7536412676        2.5350204902  MEMB      185             0.0000000000
     21391       186  SAPS      N             -24.7151286172      -35.7918036855      -21.7641907890  MEMB      186             0.0000000000
     21392       186  SAPS      HN1           -24.8198643248      -35.4295322169      -22.7282620930  MEMB      186             0.0000000000
     21393       186  SAPS      HN2           -23.9472060935      -36.4861207025      -21.6066722258  MEMB      186             0.0000000000
     21394       186  SAPS      HN3           -25.6234914293      -36.3004115297      -21.6396504635  MEMB      186             0.0000000000
     21395       186  SAPS      C12           -24.7962287197      -34.7203657119      -20.7406758428  MEMB      186             0.0000000000
     21396       186  SAPS      H12A          -24.1815515954      -33.8808386297      -21.0253541172  MEMB      186             0.0000000000
     21397       186  SAPS      C13           -26.2504293638      -34.2289266499      -20.5496613262  MEMB      186             0.0000000000
     21398       186  SAPS      O13A          -27.1245699307      -34.6070168096      -21.3726089706  MEMB      186             0.0000000000
     21399       186  SAPS      O13B          -26.4186237199      -33.2832213302      -19.7477766799  MEMB      186             0.0000000000
     21400       186  SAPS      C11           -24.2176042299      -35.2890792451      -19.4436487666  MEMB      186             0.0000000000
     21401       186  SAPS      H11A          -24.7763399756      -36.2368618061      -19.2334951597  MEMB      186             0.0000000000
     21402       186  SAPS      H11B          -24.3879409958      -34.5883684734      -18.5960237929  MEMB      186             0.0000000000
     21403       186  SAPS      P             -22.1828561461      -36.8828326928      -19.2881760694  MEMB      186             0.0000000000
     21404       186  SAPS      O13           -22.8758686868      -37.8466775922      -20.1619224887  MEMB      186             0.0000000000
     21405       186  SAPS      O14           -20.7314603365      -36.7439244113      -19.4166381118  MEMB      186             0.0000000000
     21406       186  SAPS      O12           -22.8104902003      -35.4767584228      -19.6223296232  MEMB      186             0.0000000000
     21407       186  SAPS      O11           -22.6214903672      -37.0592311870      -17.7828260309  MEMB      186             0.0000000000
     21408       186  SAPS      C1            -21.9998182545      -36.1117745864      -16.8967255026  MEMB      186             0.0000000000
     21409       186  SAPS      HA            -20.9337607472      -36.3904931207      -16.7367478546  MEMB      186             0.0000000000
     21410       186  SAPS      HB            -22.0313794300      -35.0698784079      -17.3072393629  MEMB      186             0.0000000000
     21411       186  SAPS      C2            -22.7398812494      -36.0167513455      -15.5440474553  MEMB      186             0.0000000000
     21412       186  SAPS      HS            -22.1553960761      -35.3509036732      -14.8622751704  MEMB      186             0.0000000000
     21413       186  SAPS      O21           -22.9632819242      -37.3180924817      -14.9658418018  MEMB      186             0.0000000000
     21414       186  SAPS      C21           -21.9170524173      -37.8700479668      -14.3977154056  MEMB      186             0.0000000000
     21415       186  SAPS      O22           -20.8551205437      -37.3144056983      -14.1704734175  MEMB      186             0.0000000000
     21416       186  SAPS      C22           -22.2826353931      -39.3035544784      -13.9925088689  MEMB      186             0.0000000000
     21417       186  SAPS      H2R           -23.0286829455      -39.6811808999      -14.7280668759  MEMB      186             0.0000000000
     21418       186  SAPS      H2S           -21.3929546361      -39.9588001220      -14.0324370169  MEMB      186             0.0000000000
     21419       186  SAPS      C3            -24.1253748298      -35.3776453418      -15.7546343785  MEMB      186             0.0000000000
     21420       186  SAPS      HX            -24.6852788034      -36.0456649215      -16.4415325006  MEMB      186             0.0000000000
     21421       186  SAPS      HY            -24.0516970682      -34.3783523447      -16.2500204648  MEMB      186             0.0000000000
     21422       186  SAPS      O31           -24.7934229095      -35.3740116401      -14.4909608185  MEMB      186             0.0000000000
     21423       186  SAPS      C31           -25.4910839177      -34.3167082652      -14.2074721886  MEMB      186             0.0000000000
     21424       186  SAPS      O32           -25.6259002964      -33.3148466024      -14.8765269755  MEMB      186             0.0000000000
     21425       186  SAPS      C32           -26.1430404515      -34.5840640757      -12.8536302303  MEMB      186             0.0000000000
     21426       186  SAPS      H2X           -26.8152232421      -35.4440180705      -12.9344019020  MEMB      186             0.0000000000
     21427       186  SAPS      H2Y           -26.8075237030      -33.7797328371      -12.7333004732  MEMB      186             0.0000000000
     21428       186  SAPS      C23           -22.8948346636      -39.3397154104      -12.5733419561  MEMB      186             0.0000000000
     21429       186  SAPS      H3R           -23.4385000518      -40.3030552619      -12.4495766838  MEMB      186             0.0000000000
     21430       186  SAPS      H3S           -23.6461234426      -38.5224947710      -12.5043285891  MEMB      186             0.0000000000
     21431       186  SAPS      C24           -21.8690360389      -39.3384179489      -11.4224139099  MEMB      186             0.0000000000
     21432       186  SAPS      H4R           -21.0908099454      -38.5460780988      -11.5374212799  MEMB      186             0.0000000000
     21433       186  SAPS      H4S           -21.3352284363      -40.3138090751      -11.5045111772  MEMB      186             0.0000000000
     21434       186  SAPS      C25           -22.6038012814      -39.2996665946      -10.0974751270  MEMB      186             0.0000000000
     21435       186  SAPS      H5R           -23.1071216709      -40.2373080385       -9.8321647053  MEMB      186             0.0000000000
     21436       186  SAPS      C26           -22.7947848295      -38.2690564227       -9.2587210011  MEMB      186             0.0000000000
     21437       186  SAPS      H6R           -23.3790105392      -38.4359842764       -8.3393913178  MEMB      186             0.0000000000
     21438       186  SAPS      C27           -22.3230458258      -36.8567410590       -9.4152340273  MEMB      186             0.0000000000
     21439       186  SAPS      H7R           -23.1298118608      -36.2091473374       -9.0113351275  MEMB      186             0.0000000000
     21440       186  SAPS      H7S           -22.2275390870      -36.5729515145      -10.4858470923  MEMB      186             0.0000000000
     21441       186  SAPS      C28           -21.0061890141      -36.6351897777       -8.7184148881  MEMB      186             0.0000000000
     21442       186  SAPS      H8R           -20.1560367373      -37.2420149549       -9.0568115218  MEMB      186             0.0000000000
     21443       186  SAPS      C29           -20.7677259701      -35.7549721625       -7.7414954132  MEMB      186             0.0000000000
     21444       186  SAPS      H9R           -19.7336800442      -35.6503304830       -7.3961104675  MEMB      186             0.0000000000
     21445       186  SAPS      C210          -21.7145522176      -34.7843388632       -7.1042784616  MEMB      186             0.0000000000
     21446       186  SAPS      H10R          -21.1703341051      -34.2135275736       -6.3278839654  MEMB      186             0.0000000000
     21447       186  SAPS      H10S          -22.5496172007      -35.2775608092       -6.5629185445  MEMB      186             0.0000000000
     21448       186  SAPS      C211          -22.2854614620      -33.8325433508       -8.0888688676  MEMB      186             0.0000000000
     21449       186  SAPS      H11R          -21.7868119130      -33.6362153953       -9.0600143801  MEMB      186             0.0000000000
     21450       186  SAPS      C212          -23.2492521698      -33.0203372582       -7.7504065272  MEMB      186             0.0000000000
     21451       186  SAPS      H12R          -23.5483095743      -32.4401539373       -8.6031112277  MEMB      186             0.0000000000
     21452       186  SAPS      C213          -23.9944974784      -32.7887692365       -6.4469365030  MEMB      186             0.0000000000
     21453       186  SAPS      H13R          -24.4302490236      -33.7066348567       -6.0695231939  MEMB      186             0.0000000000
     21454       186  SAPS      H13S          -24.8661966789      -32.1027443432       -6.5982996977  MEMB      186             0.0000000000
     21455       186  SAPS      C214          -23.0437101457      -32.1819546222       -5.4549784584  MEMB      186             0.0000000000
     21456       186  SAPS      H14R          -22.3863848194      -31.3644513501       -5.7825766818  MEMB      186             0.0000000000
     21457       186  SAPS      C215          -22.9940714731      -32.4425127832       -4.1788754708  MEMB      186             0.0000000000
     21458       186  SAPS      H15R          -22.2727182493      -31.8386515815       -3.5952660667  MEMB      186             0.0000000000
     21459       186  SAPS      C216          -23.8275469358      -33.3537080148       -3.3656800512  MEMB      186             0.0000000000
     21460       186  SAPS      H16R          -24.3064570763      -34.0411508629       -4.0545001899  MEMB      186             0.0000000000
     21461       186  SAPS      H16S          -24.6416953288      -32.9063618267       -2.7349430796  MEMB      186             0.0000000000
     21462       186  SAPS      C217          -22.7386603860      -34.0344686443       -2.5791606385  MEMB      186             0.0000000000
     21463       186  SAPS      H17R          -21.8580052791      -34.3081517271       -3.2035716640  MEMB      186             0.0000000000
     21464       186  SAPS      H17S          -23.1732336408      -34.9577109956       -2.1423778807  MEMB      186             0.0000000000
     21465       186  SAPS      C218          -22.1176045974      -33.2350407038       -1.4720695862  MEMB      186             0.0000000000
     21466       186  SAPS      H18R          -22.8945677178      -33.0032975265       -0.7423861810  MEMB      186             0.0000000000
     21467       186  SAPS      H18S          -21.5139314772      -32.3448568560       -1.6903449701  MEMB      186             0.0000000000
     21468       186  SAPS      C219          -21.2063775519      -34.1019801057       -0.7372438056  MEMB      186             0.0000000000
     21469       186  SAPS      H19R          -20.4970742179      -34.7083739944       -1.3239433315  MEMB      186             0.0000000000
     21470       186  SAPS      H19S          -21.9890249100      -34.8121524037       -0.4083224120  MEMB      186             0.0000000000
     21471       186  SAPS      C220          -20.4757632866      -33.3947889505        0.3845330981  MEMB      186             0.0000000000
     21472       186  SAPS      H20R          -20.0023279372      -32.4192344210        0.2919379957  MEMB      186             0.0000000000
     21473       186  SAPS      H20S          -19.5995149613      -33.9847101377        0.6624148139  MEMB      186             0.0000000000
     21474       186  SAPS      H20T          -21.1693975881      -33.3218398516        1.2644257713  MEMB      186             0.0000000000
     21475       186  SAPS      C33           -25.1646407277      -34.6316164344      -11.6540183417  MEMB      186             0.0000000000
     21476       186  SAPS      H3X           -24.4933176225      -33.7367674413      -11.7056825132  MEMB      186             0.0000000000
     21477       186  SAPS      H3Y           -24.5530225035      -35.5319967264      -11.8644307204  MEMB      186             0.0000000000
     21478       186  SAPS      C34           -25.7418997544      -34.8512019892      -10.2199676665  MEMB      186             0.0000000000
     21479       186  SAPS      H4X           -26.2403052049      -34.0247168777       -9.7024760462  MEMB      186             0.0000000000
     21480       186  SAPS      H4Y           -24.9016592718      -34.9127459477       -9.5071017567  MEMB      186             0.0000000000
     21481       186  SAPS      C35           -26.7829165188      -35.9697374272      -10.0577350118  MEMB      186             0.0000000000
     21482       186  SAPS      H5X           -26.2423880142      -36.9364237495      -10.0352708129  MEMB      186             0.0000000000
     21483       186  SAPS      H5Y           -27.4974058449      -36.0110818084      -10.9125740918  MEMB      186             0.0000000000
     21484       186  SAPS      C36           -27.5942634093      -35.7923779044       -8.7536130754  MEMB      186             0.0000000000
     21485       186  SAPS      H6X           -28.3190063058      -36.6307225392       -8.6895030030  MEMB      186             0.0000000000
     21486       186  SAPS      H6Y           -28.1976870453      -34.8529923110       -8.7862219750  MEMB      186             0.0000000000
     21487       186  SAPS      C37           -26.7194815379      -35.7877537777       -7.4809336422  MEMB      186             0.0000000000
     21488       186  SAPS      H7X           -25.8831977258      -35.0609963508       -7.5754280241  MEMB      186             0.0000000000
     21489       186  SAPS      H7Y           -26.2661587431      -36.7940213673       -7.3522649740  MEMB      186             0.0000000000
     21490       186  SAPS      C38           -27.5086411098      -35.3921471484       -6.2247329085  MEMB      186             0.0000000000
     21491       186  SAPS      H8X           -28.3982995111      -36.0526313074       -6.1431556656  MEMB      186             0.0000000000
     21492       186  SAPS      H8Y           -27.8502852031      -34.3401728757       -6.3619309052  MEMB      186             0.0000000000
     21493       186  SAPS      C39           -26.7035790083      -35.4014409067       -4.9127106060  MEMB      186             0.0000000000
     21494       186  SAPS      H9X           -27.3059237995      -34.8402301166       -4.1639489936  MEMB      186             0.0000000000
     21495       186  SAPS      H9Y           -25.7719493224      -34.8248671650       -5.0551599587  MEMB      186             0.0000000000
     21496       186  SAPS      C310          -26.3916763903      -36.8157217285       -4.3932596920  MEMB      186             0.0000000000
     21497       186  SAPS      H10X          -25.9882145177      -37.4266416795       -5.2287561117  MEMB      186             0.0000000000
     21498       186  SAPS      H10Y          -27.3439494247      -37.2939785428       -4.0776908184  MEMB      186             0.0000000000
     21499       186  SAPS      C311          -25.3669855414      -36.8753017049       -3.2452047386  MEMB      186             0.0000000000
     21500       186  SAPS      H11X          -25.7280806832      -36.2838420633       -2.3712716263  MEMB      186             0.0000000000
     21501       186  SAPS      H11Y          -24.4149453368      -36.4064856151       -3.5642587024  MEMB      186             0.0000000000
     21502       186  SAPS      C312          -25.0444615939      -38.3131860426       -2.7967338087  MEMB      186             0.0000000000
     21503       186  SAPS      H12X          -25.9132581815      -38.9925493863       -2.9669525856  MEMB      186             0.0000000000
     21504       186  SAPS      H12Y          -24.8959355302      -38.2763815689       -1.6965617121  MEMB      186             0.0000000000
     21505       186  SAPS      C313          -23.7840305037      -38.9585171194       -3.4290993146  MEMB      186             0.0000000000
     21506       186  SAPS      H13X          -23.8979279013      -39.0577374555       -4.5306795202  MEMB      186             0.0000000000
     21507       186  SAPS      H13Y          -23.7383501680      -39.9785062326       -2.9880124712  MEMB      186             0.0000000000
     21508       186  SAPS      C314          -22.4339064310      -38.2414972043       -3.2119000630  MEMB      186             0.0000000000
     21509       186  SAPS      H14X          -22.2673510793      -38.0749504924       -2.1304524029  MEMB      186             0.0000000000
     21510       186  SAPS      H14Y          -22.4916197226      -37.2546466138       -3.7183775404  MEMB      186             0.0000000000
     21511       186  SAPS      C315          -21.2142785834      -38.9810931845       -3.8151162291  MEMB      186             0.0000000000
     21512       186  SAPS      H15X          -21.5375734474      -39.5987891737       -4.6784465042  MEMB      186             0.0000000000
     21513       186  SAPS      H15Y          -20.8043689430      -39.6731822004       -3.0467104317  MEMB      186             0.0000000000
     21514       186  SAPS      C316          -20.1111495289      -38.0669396143       -4.3979798940  MEMB      186             0.0000000000
     21515       186  SAPS      H16X          -20.5114576640      -37.5186617286       -5.2817202187  MEMB      186             0.0000000000
     21516       186  SAPS      H16Y          -19.2678332077      -38.6940533248       -4.7636278030  MEMB      186             0.0000000000
     21517       186  SAPS      C317          -19.5855243536      -37.0137372940       -3.4258213410  MEMB      186             0.0000000000
     21518       186  SAPS      H17X          -20.4616436740      -36.3524460856       -3.2056511951  MEMB      186             0.0000000000
     21519       186  SAPS      H17Y          -18.8105331153      -36.3945914297       -3.9219591072  MEMB      186             0.0000000000
     21520       186  SAPS      C318          -18.9808239995      -37.6010938087       -2.1553091862  MEMB      186             0.0000000000
     21521       186  SAPS      H18X          -18.6489588197      -36.8105571753       -1.4448764135  MEMB      186             0.0000000000
     21522       186  SAPS      H18Y          -18.2083703054      -38.3713081175       -2.2731657027  MEMB      186             0.0000000000
     21523       186  SAPS      H18Z          -19.7100765685      -38.2746535088       -1.7230533492  MEMB      186             0.0000000000
     21524       187  SAPE      N              27.2170739704       31.6850396807      -19.2813771424  MEMB      187             0.0000000000
     21525       187  SAPE      HN1            27.5267475868       31.6058186830      -20.2773052859  MEMB      187             0.0000000000
     21526       187  SAPE      HN2            26.3431249319       31.1488144953      -19.0997128747  MEMB      187             0.0000000000
     21527       187  SAPE      HN3            26.9170704923       32.6640718418      -19.0538169152  MEMB      187             0.0000000000
     21528       187  SAPE      C12            28.3457430250       31.2900553711      -18.3899710039  MEMB      187             0.0000000000
     21529       187  SAPE      H12A           28.4893174526       30.2032289788      -18.5583138844  MEMB      187             0.0000000000
     21530       187  SAPE      H12B           28.0337394879       31.4773263679      -17.3425585077  MEMB      187             0.0000000000
     21531       187  SAPE      C11            29.6331357693       32.0465691525      -18.7581898478  MEMB      187             0.0000000000
     21532       187  SAPE      H11A           30.4789954846       31.5242029487      -18.2340002090  MEMB      187             0.0000000000
     21533       187  SAPE      H11B           29.6278886848       33.0851810643      -18.3679683054  MEMB      187             0.0000000000
     21534       187  SAPE      P              31.2302788398       32.0238091898      -20.8119009413  MEMB      187             0.0000000000
     21535       187  SAPE      O13            31.1025579314       31.6272355735      -22.2219074169  MEMB      187             0.0000000000
     21536       187  SAPE      O14            32.0223757035       33.2195310297      -20.4717694591  MEMB      187             0.0000000000
     21537       187  SAPE      O12            29.7728425237       32.1108101026      -20.1844972334  MEMB      187             0.0000000000
     21538       187  SAPE      O11            31.7034718793       30.8197377116      -19.9550079570  MEMB      187             0.0000000000
     21539       187  SAPE      C1             31.6995923161       29.5155030492      -20.5067110152  MEMB      187             0.0000000000
     21540       187  SAPE      HA             30.6935006894       29.1372531980      -20.7391639135  MEMB      187             0.0000000000
     21541       187  SAPE      HB             32.3901376769       29.4667081879      -21.3845581610  MEMB      187             0.0000000000
     21542       187  SAPE      C2             32.3375392962       28.6287704120      -19.5035639953  MEMB      187             0.0000000000
     21543       187  SAPE      HS             32.4261232795       27.5732381203      -19.8791495587  MEMB      187             0.0000000000
     21544       187  SAPE      O21            31.6872527302       28.6820843449      -18.2534477608  MEMB      187             0.0000000000
     21545       187  SAPE      C21            30.5297218867       28.1239106311      -18.1135252949  MEMB      187             0.0000000000
     21546       187  SAPE      O22            29.8984992173       27.4994527083      -18.9456331906  MEMB      187             0.0000000000
     21547       187  SAPE      C22            30.0619684401       28.4498151681      -16.6972568592  MEMB      187             0.0000000000
     21548       187  SAPE      H2R            30.6150800228       29.3198522760      -16.2935802279  MEMB      187             0.0000000000
     21549       187  SAPE      H2S            28.9631900436       28.5761148471      -16.7250673178  MEMB      187             0.0000000000
     21550       187  SAPE      C3             33.7277810494       29.2703866331      -19.4390130336  MEMB      187             0.0000000000
     21551       187  SAPE      HX             34.1424137035       29.1174006676      -20.4451620446  MEMB      187             0.0000000000
     21552       187  SAPE      HY             34.4135027414       28.6654900984      -19.0189114793  MEMB      187             0.0000000000
     21553       187  SAPE      O31            33.9886768037       30.5933058520      -18.9355637909  MEMB      187             0.0000000000
     21554       187  SAPE      C31            34.0134701473       30.9473018825      -17.6662024799  MEMB      187             0.0000000000
     21555       187  SAPE      O32            33.5357767805       30.4285536150      -16.7135544585  MEMB      187             0.0000000000
     21556       187  SAPE      C32            34.5649964961       32.2174969373      -17.3588024771  MEMB      187             0.0000000000
     21557       187  SAPE      H2X            35.2032077131       32.4436674294      -18.2324210715  MEMB      187             0.0000000000
     21558       187  SAPE      H2Y            35.1409971496       32.1654082141      -16.3995419190  MEMB      187             0.0000000000
     21559       187  SAPE      C23            30.3043825389       27.4139297529      -15.6171523847  MEMB      187             0.0000000000
     21560       187  SAPE      H3R            31.2992532296       27.1058622229      -15.4335813224  MEMB      187             0.0000000000
     21561       187  SAPE      H3S            29.9005024899       26.5333585972      -15.9752136189  MEMB      187             0.0000000000
     21562       187  SAPE      C24            29.7126368347       27.8324989394      -14.3053228017  MEMB      187             0.0000000000
     21563       187  SAPE      H4R            28.6899174530       28.1565242395      -14.5091520208  MEMB      187             0.0000000000
     21564       187  SAPE      H4S            30.4481698571       28.3943599868      -13.7232217572  MEMB      187             0.0000000000
     21565       187  SAPE      C25            29.2541381523       26.9099929716      -13.3539185056  MEMB      187             0.0000000000
     21566       187  SAPE      H5R            29.5864530240       25.9985444661      -13.7912501830  MEMB      187             0.0000000000
     21567       187  SAPE      C26            29.2701980496       26.8982739876      -12.0361303105  MEMB      187             0.0000000000
     21568       187  SAPE      H6R            29.1604432263       26.0150595835      -11.4880747741  MEMB      187             0.0000000000
     21569       187  SAPE      C27            29.7313176562       27.7247862252      -11.0194006955  MEMB      187             0.0000000000
     21570       187  SAPE      H7R            29.5175089812       28.6155040650      -11.5523826159  MEMB      187             0.0000000000
     21571       187  SAPE      H7S            30.8128208688       27.3877687942      -11.0720812753  MEMB      187             0.0000000000
     21572       187  SAPE      C28            28.9669135618       27.5431108367       -9.6988867467  MEMB      187             0.0000000000
     21573       187  SAPE      H8R            27.9532732826       27.1301337638       -9.7362795382  MEMB      187             0.0000000000
     21574       187  SAPE      C29            29.5554656558       27.3766238952       -8.5136394859  MEMB      187             0.0000000000
     21575       187  SAPE      H9R            28.9931633351       26.9925457224       -7.6492639606  MEMB      187             0.0000000000
     21576       187  SAPE      C210           31.0190583612       27.3413496507       -8.3309079563  MEMB      187             0.0000000000
     21577       187  SAPE      H10R           31.7396673060       26.8803261876       -9.0090701861  MEMB      187             0.0000000000
     21578       187  SAPE      H10S           31.2377905134       26.6255796127       -7.5573557978  MEMB      187             0.0000000000
     21579       187  SAPE      C211           31.6851991656       28.5175355378       -8.8780327973  MEMB      187             0.0000000000
     21580       187  SAPE      H11R           31.6721721927       28.6028466893       -9.9448044296  MEMB      187             0.0000000000
     21581       187  SAPE      C212           32.4030539530       29.3571529494       -8.2094049398  MEMB      187             0.0000000000
     21582       187  SAPE      H12R           32.7954023298       30.2487049304       -8.5999512071  MEMB      187             0.0000000000
     21583       187  SAPE      C213           32.6605661105       29.2688939095       -6.8451512990  MEMB      187             0.0000000000
     21584       187  SAPE      H13R           31.5351078597       28.8944713622       -6.7073082457  MEMB      187             0.0000000000
     21585       187  SAPE      H13S           32.0966804560       30.1463705605       -6.2872936185  MEMB      187             0.0000000000
     21586       187  SAPE      C214           34.0524023481       28.3280771896       -6.2121653898  MEMB      187             0.0000000000
     21587       187  SAPE      H14R           34.8169585159       28.7576695066       -6.8251120174  MEMB      187             0.0000000000
     21588       187  SAPE      C215           34.4159734599       27.6283911134       -4.6769418968  MEMB      187             0.0000000000
     21589       187  SAPE      H15R           35.4407352297       27.7063874699       -4.4373633600  MEMB      187             0.0000000000
     21590       187  SAPE      C216           33.4703713365       27.6842355004       -3.0189412890  MEMB      187             0.0000000000
     21591       187  SAPE      H16R           32.9340309513       26.9077154392       -2.5951048477  MEMB      187             0.0000000000
     21592       187  SAPE      H16S           32.4196179156       28.2304203999       -2.9090641675  MEMB      187             0.0000000000
     21593       187  SAPE      C217           33.0033384229       28.8859150774       -1.9357763537  MEMB      187             0.0000000000
     21594       187  SAPE      H17R           32.0637011273       28.6807807087       -1.3384324833  MEMB      187             0.0000000000
     21595       187  SAPE      H17S           32.8540882285       29.8685507173       -2.3530981204  MEMB      187             0.0000000000
     21596       187  SAPE      C218           34.2219427582       29.3546875766       -1.3220355890  MEMB      187             0.0000000000
     21597       187  SAPE      H18R           34.9834558341       28.9454532241       -1.9599241875  MEMB      187             0.0000000000
     21598       187  SAPE      H18S           33.9098891964       28.6649907254       -0.6015160154  MEMB      187             0.0000000000
     21599       187  SAPE      C219           34.7467150865       30.0677172925       -0.0960213467  MEMB      187             0.0000000000
     21600       187  SAPE      H19R           35.7618374814       29.8003338820       -0.0049630785  MEMB      187             0.0000000000
     21601       187  SAPE      H19S           34.1638606027       29.8798884464        0.8184262327  MEMB      187             0.0000000000
     21602       187  SAPE      C220           34.9855469231       31.3987990427       -0.3307868201  MEMB      187             0.0000000000
     21603       187  SAPE      H20R           33.9396454268       31.2266539954       -0.5395475287  MEMB      187             0.0000000000
     21604       187  SAPE      H20S           35.3749696762       31.9103485845       -1.1963851303  MEMB      187             0.0000000000
     21605       187  SAPE      H20T           35.1717633874       32.2946795683        0.2371908193  MEMB      187             0.0000000000
     21606       187  SAPE      C33            33.1644295086       32.8254548126      -17.1101843193  MEMB      187             0.0000000000
     21607       187  SAPE      H3X            32.5762651268       32.7582132190      -18.0640492503  MEMB      187             0.0000000000
     21608       187  SAPE      H3Y            33.4528807123       33.8548317366      -16.8949267585  MEMB      187             0.0000000000
     21609       187  SAPE      C34            32.2422698008       32.3979864201      -15.8881043712  MEMB      187             0.0000000000
     21610       187  SAPE      H4X            31.8231390024       31.3559359005      -15.9757123082  MEMB      187             0.0000000000
     21611       187  SAPE      H4Y            31.3427077838       33.0167839107      -15.8597875208  MEMB      187             0.0000000000
     21612       187  SAPE      C35            32.9309896876       32.4944689363      -14.5245851279  MEMB      187             0.0000000000
     21613       187  SAPE      H5X            33.4583416068       33.4442540502      -14.3955154821  MEMB      187             0.0000000000
     21614       187  SAPE      H5Y            33.7888607094       31.8880916769      -14.4486513189  MEMB      187             0.0000000000
     21615       187  SAPE      C36            32.0086727968       32.1088374302      -13.3703017960  MEMB      187             0.0000000000
     21616       187  SAPE      H6X            31.7343007138       31.0246859103      -13.3769371927  MEMB      187             0.0000000000
     21617       187  SAPE      H6Y            31.1096920969       32.7125356980      -13.6086196445  MEMB      187             0.0000000000
     21618       187  SAPE      C37            32.6131147225       32.4926870692      -12.0128527334  MEMB      187             0.0000000000
     21619       187  SAPE      H7X            33.3126272099       33.3362048980      -12.2264350053  MEMB      187             0.0000000000
     21620       187  SAPE      H7Y            33.2292264098       31.6551620565      -11.6165752565  MEMB      187             0.0000000000
     21621       187  SAPE      C38            31.5733566883       32.9946073097      -10.9886698892  MEMB      187             0.0000000000
     21622       187  SAPE      H8X            30.9337507727       33.7514266932      -11.4917233141  MEMB      187             0.0000000000
     21623       187  SAPE      H8Y            32.0996133187       33.5160621321      -10.1587220688  MEMB      187             0.0000000000
     21624       187  SAPE      C39            30.6641050153       31.9144031028      -10.3747182800  MEMB      187             0.0000000000
     21625       187  SAPE      H9X            31.3136956375       31.1206331569       -9.9531351186  MEMB      187             0.0000000000
     21626       187  SAPE      H9Y            30.0463271154       31.4356053299      -11.1648553507  MEMB      187             0.0000000000
     21627       187  SAPE      C310           29.7402829992       32.4622577977       -9.2614916843  MEMB      187             0.0000000000
     21628       187  SAPE      H10X           29.0040389556       33.1898264062       -9.6741936060  MEMB      187             0.0000000000
     21629       187  SAPE      H10Y           30.3787800009       33.0310489424       -8.5514341421  MEMB      187             0.0000000000
     21630       187  SAPE      C311           28.9904774396       31.3427426660       -8.4951604259  MEMB      187             0.0000000000
     21631       187  SAPE      H11X           29.7011109813       30.5007814216       -8.3869794503  MEMB      187             0.0000000000
     21632       187  SAPE      H11Y           28.1750746572       30.9835689716       -9.1470693162  MEMB      187             0.0000000000
     21633       187  SAPE      C312           28.4258683491       31.8116520705       -7.1274186511  MEMB      187             0.0000000000
     21634       187  SAPE      H12X           27.6078482738       32.5309526647       -7.3580690369  MEMB      187             0.0000000000
     21635       187  SAPE      H12Y           29.2402735549       32.3612918645       -6.6057525359  MEMB      187             0.0000000000
     21636       187  SAPE      C313           27.8848284350       30.7921361316       -6.0785939568  MEMB      187             0.0000000000
     21637       187  SAPE      H13X           27.0090629009       30.2413401156       -6.4833889642  MEMB      187             0.0000000000
     21638       187  SAPE      H13Y           27.5421039269       31.4137167317       -5.2154972444  MEMB      187             0.0000000000
     21639       187  SAPE      C314           28.9571846014       29.8116763612       -5.5607789348  MEMB      187             0.0000000000
     21640       187  SAPE      H14X           29.8057999594       30.3825463847       -5.1427210570  MEMB      187             0.0000000000
     21641       187  SAPE      H14Y           29.2465048496       29.2062410031       -6.4456233428  MEMB      187             0.0000000000
     21642       187  SAPE      C315           28.6078401478       28.7443806989       -4.5213969911  MEMB      187             0.0000000000
     21643       187  SAPE      H15X           29.4074777234       27.9904035944       -4.3664622803  MEMB      187             0.0000000000
     21644       187  SAPE      H15Y           27.8052630288       28.2461394472       -4.9939755806  MEMB      187             0.0000000000
     21645       187  SAPE      C316           28.1942552601       29.2091607556       -3.1801856477  MEMB      187             0.0000000000
     21646       187  SAPE      H16X           27.6372962808       28.4570324246       -2.5692580580  MEMB      187             0.0000000000
     21647       187  SAPE      H16Y           27.6395562756       30.1753078789       -3.2217898394  MEMB      187             0.0000000000
     21648       187  SAPE      C317           29.3911267358       29.4387717276       -2.4233467553  MEMB      187             0.0000000000
     21649       187  SAPE      H17X           30.0966027408       30.0185486446       -3.0641376315  MEMB      187             0.0000000000
     21650       187  SAPE      H17Y           29.9527670383       28.5025352245       -2.1484295390  MEMB      187             0.0000000000
     21651       187  SAPE      C318           28.9124800683       30.2202206666       -1.2349692549  MEMB      187             0.0000000000
     21652       187  SAPE      H18X           29.8042855108       29.7912557791       -0.8565104116  MEMB      187             0.0000000000
     21653       187  SAPE      H18Y           28.5057796695       29.8903490647       -0.3012436323  MEMB      187             0.0000000000
     21654       187  SAPE      H18Z           28.9875264644       31.3429784955       -1.2321144257  MEMB      187             0.0000000000
     21655       188  OSM       N             -30.6318542027       31.5370911144      -22.6853961341  MEMB      188             0.0000000000
     21656       188  OSM       C15           -29.4901400296       30.5756627615      -22.4974444849  MEMB      188             0.0000000000
     21657       188  OSM       H15A          -28.8082748712       30.6279097768      -23.3407768724  MEMB      188             0.0000000000
     21658       188  OSM       H15B          -29.8003077162       29.5454305356      -22.4345609678  MEMB      188             0.0000000000
     21659       188  OSM       H15C          -28.9281998178       30.8602544219      -21.6080161237  MEMB      188             0.0000000000
     21660       188  OSM       C14           -30.0023361696       32.8539959864      -22.9666593521  MEMB      188             0.0000000000
     21661       188  OSM       H14A          -29.2370342340       33.0400160284      -22.2080936234  MEMB      188             0.0000000000
     21662       188  OSM       H14B          -30.7320774558       33.6387293047      -22.8883101204  MEMB      188             0.0000000000
     21663       188  OSM       H14C          -29.5592240961       32.8670812564      -23.9540021359  MEMB      188             0.0000000000
     21664       188  OSM       C13           -31.3813240205       31.1063397774      -23.8884995053  MEMB      188             0.0000000000
     21665       188  OSM       H13A          -31.8781927845       30.1684011140      -23.6718467968  MEMB      188             0.0000000000
     21666       188  OSM       H13B          -30.6715244584       30.9739677731      -24.7018004028  MEMB      188             0.0000000000
     21667       188  OSM       H13C          -32.1242920207       31.8429836081      -24.1567148093  MEMB      188             0.0000000000
     21668       188  OSM       C12           -31.5765300068       31.5830941361      -21.4861994112  MEMB      188             0.0000000000
     21669       188  OSM       H12A          -32.1115673805       30.6447681481      -21.4584052372  MEMB      188             0.0000000000
     21670       188  OSM       H12B          -32.3176547292       32.3641154987      -21.6285917360  MEMB      188             0.0000000000
     21671       188  OSM       C11           -30.9800464062       31.8335318742      -20.0853778831  MEMB      188             0.0000000000
     21672       188  OSM       H11A          -30.2989505221       30.9846256443      -19.8229772252  MEMB      188             0.0000000000
     21673       188  OSM       H11B          -31.7843176086       31.8381163642      -19.3162334219  MEMB      188             0.0000000000
     21674       188  OSM       P             -28.8956351528       33.2915548181      -19.5049431800  MEMB      188             0.0000000000
     21675       188  OSM       O13           -28.0065875212       32.6176050190      -20.4859617728  MEMB      188             0.0000000000
     21676       188  OSM       O14           -28.6175620708       34.7029695167      -19.2023872857  MEMB      188             0.0000000000
     21677       188  OSM       O11           -28.8846055031       32.4488017243      -18.1593620152  MEMB      188             0.0000000000
     21678       188  OSM       O12           -30.3752616362       33.1181582765      -20.0576951340  MEMB      188             0.0000000000
     21679       188  OSM       C1S           -29.3394562880       33.0616512070      -16.9430156495  MEMB      188             0.0000000000
     21680       188  OSM       H1S           -30.4010482555       33.3813296365      -17.0248662542  MEMB      188             0.0000000000
     21681       188  OSM       H1T           -28.7315790674       33.9667047636      -16.6996479914  MEMB      188             0.0000000000
     21682       188  OSM       NF            -29.9722705667       32.4975343808      -14.5868691632  MEMB      188             0.0000000000
     21683       188  OSM       HNF           -29.3892943054       32.5895768581      -13.7918468972  MEMB      188             0.0000000000
     21684       188  OSM       C2S           -29.2697744364       32.0467189250      -15.7661907690  MEMB      188             0.0000000000
     21685       188  OSM       H2S           -29.7161797829       31.0818814943      -16.1041399444  MEMB      188             0.0000000000
     21686       188  OSM       C3S           -27.8066770269       31.7500216106      -15.4155083605  MEMB      188             0.0000000000
     21687       188  OSM       H3S           -27.1836563968       32.6707803532      -15.3126327030  MEMB      188             0.0000000000
     21688       188  OSM       O3            -27.2030699943       30.9685015652      -16.4318278562  MEMB      188             0.0000000000
     21689       188  OSM       HO3           -27.7666889422       31.1514311668      -17.1958404281  MEMB      188             0.0000000000
     21690       188  OSM       C4S           -27.6917321012       30.9955692474      -14.1123946729  MEMB      188             0.0000000000
     21691       188  OSM       H4S           -27.8332667323       29.9056712873      -14.1563670539  MEMB      188             0.0000000000
     21692       188  OSM       C5S           -27.3022970310       31.5608966581      -12.9555372965  MEMB      188             0.0000000000
     21693       188  OSM       H5S           -26.8717059203       32.5810653790      -12.9573088737  MEMB      188             0.0000000000
     21694       188  OSM       C6S           -27.1401443079       30.7999162911      -11.6696299903  MEMB      188             0.0000000000
     21695       188  OSM       H6S           -26.1081513561       31.0393188396      -11.3973826058  MEMB      188             0.0000000000
     21696       188  OSM       H6T           -27.2187216751       29.6859106252      -11.7550231617  MEMB      188             0.0000000000
     21697       188  OSM       C7S           -27.7470832092       31.3292460675      -10.4076370320  MEMB      188             0.0000000000
     21698       188  OSM       H7S           -28.8050686975       31.1693892208      -10.6436429048  MEMB      188             0.0000000000
     21699       188  OSM       H7T           -27.3598723553       32.3795701167      -10.3666499825  MEMB      188             0.0000000000
     21700       188  OSM       C8S           -27.4469353560       30.6412954292       -9.0700089614  MEMB      188             0.0000000000
     21701       188  OSM       H8S           -26.4619424357       30.9804506422       -8.7241256609  MEMB      188             0.0000000000
     21702       188  OSM       H8T           -27.4763183748       29.5218409600       -9.0985566820  MEMB      188             0.0000000000
     21703       188  OSM       C9S           -28.0379330913       31.2199021158       -7.8366029934  MEMB      188             0.0000000000
     21704       188  OSM       H9S           -27.5691745184       32.2247154471       -7.6724771107  MEMB      188             0.0000000000
     21705       188  OSM       H9T           -27.7027889275       30.5303726704       -7.0241285449  MEMB      188             0.0000000000
     21706       188  OSM       C10S          -29.5151634659       31.2852275018       -8.0577716092  MEMB      188             0.0000000000
     21707       188  OSM       H10S          -29.8681292975       30.2652902809       -8.3391944830  MEMB      188             0.0000000000
     21708       188  OSM       H10T          -29.6890627185       31.9679491304       -8.9231679028  MEMB      188             0.0000000000
     21709       188  OSM       C11S          -30.2741905949       31.8573082829       -6.8770665027  MEMB      188             0.0000000000
     21710       188  OSM       H11S          -31.3510181947       31.7213974871       -7.1184321795  MEMB      188             0.0000000000
     21711       188  OSM       H11T          -30.0699003126       32.9499180706       -6.8478280386  MEMB      188             0.0000000000
     21712       188  OSM       C12S          -29.9535413562       31.2133526976       -5.5150593830  MEMB      188             0.0000000000
     21713       188  OSM       H12S          -29.6197768314       30.1642146819       -5.6628483896  MEMB      188             0.0000000000
     21714       188  OSM       H12T          -30.9039710127       31.1839282927       -4.9364636383  MEMB      188             0.0000000000
     21715       188  OSM       C13S          -28.9445665354       32.0253999951       -4.6754529871  MEMB      188             0.0000000000
     21716       188  OSM       H13S          -29.3490311789       33.0648570390       -4.6342244692  MEMB      188             0.0000000000
     21717       188  OSM       H13T          -27.9611431897       32.0723982444       -5.1861923961  MEMB      188             0.0000000000
     21718       188  OSM       C14S          -28.7133231659       31.5150525723       -3.2296172608  MEMB      188             0.0000000000
     21719       188  OSM       H14S          -29.7059790736       31.5142153101       -2.7337011348  MEMB      188             0.0000000000
     21720       188  OSM       H14T          -28.0912335222       32.2716046564       -2.6974280456  MEMB      188             0.0000000000
     21721       188  OSM       C15S          -28.0242863182       30.1238185164       -3.1442570222  MEMB      188             0.0000000000
     21722       188  OSM       H15S          -26.9659800924       30.2213951272       -3.4677855466  MEMB      188             0.0000000000
     21723       188  OSM       H15T          -28.5651414018       29.4656560945       -3.8615748347  MEMB      188             0.0000000000
     21724       188  OSM       C16S          -28.0111171114       29.3502948024       -1.8029180057  MEMB      188             0.0000000000
     21725       188  OSM       H16S          -27.4070712983       28.4152727710       -1.8730572055  MEMB      188             0.0000000000
     21726       188  OSM       H16T          -29.0527929285       28.9942873560       -1.6328816861  MEMB      188             0.0000000000
     21727       188  OSM       C17S          -27.4442809907       30.0853374739       -0.5730439338  MEMB      188             0.0000000000
     21728       188  OSM       H17S          -27.5351856576       31.1741846604       -0.6676940434  MEMB      188             0.0000000000
     21729       188  OSM       H17T          -26.3492449350       29.9808455289       -0.4908913973  MEMB      188             0.0000000000
     21730       188  OSM       C18S          -28.0876681970       29.5440564307        0.6967048020  MEMB      188             0.0000000000
     21731       188  OSM       H18S          -27.8886726570       28.4804227018        0.5467518847  MEMB      188             0.0000000000
     21732       188  OSM       H18T          -29.1845549642       29.5518436337        0.8148255045  MEMB      188             0.0000000000
     21733       188  OSM       H18U          -27.6734922429       29.9238783210        1.6505869397  MEMB      188             0.0000000000
     21734       188  OSM       C1F           -31.2650929635       32.7049154098      -14.4056421165  MEMB      188             0.0000000000
     21735       188  OSM       OF            -32.1164691752       32.5240228915      -15.2622709711  MEMB      188             0.0000000000
     21736       188  OSM       C2F           -31.5842158748       33.1274961117      -13.0205318025  MEMB      188             0.0000000000
     21737       188  OSM       H2F           -30.6822402582       33.0453312331      -12.3761693199  MEMB      188             0.0000000000
     21738       188  OSM       H2G           -32.3961849647       32.5128932664      -12.5724702887  MEMB      188             0.0000000000
     21739       188  OSM       C3F           -31.9826527924       34.5826803575      -13.0164912926  MEMB      188             0.0000000000
     21740       188  OSM       H3F           -32.7828002296       34.7398587805      -13.7778437767  MEMB      188             0.0000000000
     21741       188  OSM       H3G           -31.1903919593       35.2943981352      -13.3267282820  MEMB      188             0.0000000000
     21742       188  OSM       C4F           -32.4391047313       34.9500462810      -11.6080103371  MEMB      188             0.0000000000
     21743       188  OSM       H4F           -33.4697613201       34.5507566800      -11.4305563139  MEMB      188             0.0000000000
     21744       188  OSM       H4G           -32.3969360648       36.0555481064      -11.6878636558  MEMB      188             0.0000000000
     21745       188  OSM       C5F           -31.5644584286       34.8878164508      -10.3714079116  MEMB      188             0.0000000000
     21746       188  OSM       H5F           -30.6581163940       35.4482915848      -10.6842937841  MEMB      188             0.0000000000
     21747       188  OSM       H5G           -31.3442740111       33.8359261483      -10.1308442665  MEMB      188             0.0000000000
     21748       188  OSM       C6F           -32.2024899567       35.5243251960       -9.1092758677  MEMB      188             0.0000000000
     21749       188  OSM       H6F           -32.3868056806       36.6066802179       -9.2688407026  MEMB      188             0.0000000000
     21750       188  OSM       H6G           -31.4402025650       35.6588847883       -8.3281303382  MEMB      188             0.0000000000
     21751       188  OSM       C7F           -33.4400509254       34.6592985850       -8.6693029706  MEMB      188             0.0000000000
     21752       188  OSM       H7F           -33.1071024763       33.6633022296       -8.3681701816  MEMB      188             0.0000000000
     21753       188  OSM       H7G           -34.2400602522       34.6183744837       -9.4305392718  MEMB      188             0.0000000000
     21754       188  OSM       C8F           -34.2476760776       35.0724080421       -7.4725433595  MEMB      188             0.0000000000
     21755       188  OSM       H8F           -34.8760520154       35.8450779274       -8.0057808831  MEMB      188             0.0000000000
     21756       188  OSM       H8G           -33.4449280345       35.4332030638       -6.7642207428  MEMB      188             0.0000000000
     21757       188  OSM       C9F           -35.3942879224       34.5841599386       -6.6949445501  MEMB      188             0.0000000000
     21758       188  OSM       H9F           -36.3714103203       34.9861224820       -7.0144552059  MEMB      188             0.0000000000
     21759       188  OSM       C10F          -35.2564333042       33.8883839811       -5.5833671130  MEMB      188             0.0000000000
     21760       188  OSM       H10F          -36.1575163366       33.5968900995       -5.0483502315  MEMB      188             0.0000000000
     21761       188  OSM       C11F          -33.9609833885       33.4760226113       -4.9655210528  MEMB      188             0.0000000000
     21762       188  OSM       H11F          -33.0981498286       33.3698995441       -5.6709101228  MEMB      188             0.0000000000
     21763       188  OSM       H11G          -34.1328293305       32.4650926268       -4.5573758320  MEMB      188             0.0000000000
     21764       188  OSM       C12F          -33.4890352770       34.3307038027       -3.8178755521  MEMB      188             0.0000000000
     21765       188  OSM       H12F          -34.2589223271       34.3612836691       -3.0071565540  MEMB      188             0.0000000000
     21766       188  OSM       H12G          -33.2781906863       35.3821649760       -4.1415135086  MEMB      188             0.0000000000
     21767       188  OSM       C13F          -32.2018726390       33.6461579624       -3.3675735326  MEMB      188             0.0000000000
     21768       188  OSM       H13F          -31.3619492247       34.0274207480       -3.9917363569  MEMB      188             0.0000000000
     21769       188  OSM       H13G          -32.2846708089       32.5528224129       -3.3926213708  MEMB      188             0.0000000000
     21770       188  OSM       C14F          -31.8600997746       33.9697457485       -2.0116566633  MEMB      188             0.0000000000
     21771       188  OSM       H14F          -30.7608351121       33.7153119280       -1.8011544356  MEMB      188             0.0000000000
     21772       188  OSM       H14G          -32.5038829747       33.5293864344       -1.2149506988  MEMB      188             0.0000000000
     21773       188  OSM       C15F          -32.1202507465       35.4008103989       -1.9679681923  MEMB      188             0.0000000000
     21774       188  OSM       H15F          -33.1869340598       35.7926161869       -1.8196306482  MEMB      188             0.0000000000
     21775       188  OSM       H15G          -31.8124966674       36.0600980131       -2.7945326753  MEMB      188             0.0000000000
     21776       188  OSM       C16F          -31.2348206860       35.3180551641       -0.7338881586  MEMB      188             0.0000000000
     21777       188  OSM       H16F          -31.7943957619       34.8959469285        0.0723267142  MEMB      188             0.0000000000
     21778       188  OSM       H16G          -32.0203315690       36.1742125998       -0.4860332317  MEMB      188             0.0000000000
     21779       188  OSM       C17F          -29.2935491983       35.3965839795       -0.4873508510  MEMB      188             0.0000000000
     21780       188  OSM       H17F          -28.5627743227       36.3938355468       -0.6370326490  MEMB      188             0.0000000000
     21781       188  OSM       H17G          -28.7310339327       34.8141433247       -1.1531947552  MEMB      188             0.0000000000
     21782       188  OSM       C18F          -28.5502018585       35.7961138610        0.7549936673  MEMB      188             0.0000000000
     21783       188  OSM       H18F          -29.4414718913       35.9126090214        1.3600562391  MEMB      188             0.0000000000
     21784       188  OSM       H18G          -27.7724238693       36.6192595279        1.0648315433  MEMB      188             0.0000000000
     21785       188  OSM       H18H          -28.6415166536       35.2661443943        1.5658163349  MEMB      188             0.0000000000
     21786       189  OSM       N              27.6688614429      -33.0046689260      -21.2944086391  MEMB      189             0.0000000000
     21787       189  OSM       C15            27.2565223618      -32.8270428384      -19.8684755103  MEMB      189             0.0000000000
     21788       189  OSM       H15A           26.6538310874      -33.6547079411      -19.5036941508  MEMB      189             0.0000000000
     21789       189  OSM       H15B           26.6650100812      -31.9201750115      -19.7128741179  MEMB      189             0.0000000000
     21790       189  OSM       H15C           28.1443364690      -32.7009666591      -19.2469552785  MEMB      189             0.0000000000
     21791       189  OSM       C14            28.6107548533      -34.1496365881      -21.3998224664  MEMB      189             0.0000000000
     21792       189  OSM       H14A           28.1481487870      -35.0495838981      -21.0451988649  MEMB      189             0.0000000000
     21793       189  OSM       H14B           29.5075412440      -33.8872640397      -20.8322901955  MEMB      189             0.0000000000
     21794       189  OSM       H14C           28.9318234824      -34.2990393506      -22.4202736111  MEMB      189             0.0000000000
     21795       189  OSM       C13            26.5063148661      -33.2890999929      -22.1781693753  MEMB      189             0.0000000000
     21796       189  OSM       H13A           26.8109470036      -33.4635368738      -23.2074770582  MEMB      189             0.0000000000
     21797       189  OSM       H13B           25.7721595854      -32.4873054728      -22.1886940022  MEMB      189             0.0000000000
     21798       189  OSM       H13C           26.0094125216      -34.1906776524      -21.8307235490  MEMB      189             0.0000000000
     21799       189  OSM       C12            28.3923285873      -31.7914702675      -21.7669323892  MEMB      189             0.0000000000
     21800       189  OSM       H12A           27.6779141749      -30.9711568507      -21.7992825656  MEMB      189             0.0000000000
     21801       189  OSM       H12B           28.7385004093      -31.9873163146      -22.7649016087  MEMB      189             0.0000000000
     21802       189  OSM       C11            29.6331913550      -31.3888297164      -20.9329774279  MEMB      189             0.0000000000
     21803       189  OSM       H11A           29.3388914220      -31.1514062596      -19.8883369012  MEMB      189             0.0000000000
     21804       189  OSM       H11B           29.9449066443      -30.4466627090      -21.4050464278  MEMB      189             0.0000000000
     21805       189  OSM       P              32.2296575131      -31.9998206728      -20.7902950141  MEMB      189             0.0000000000
     21806       189  OSM       O13            33.0796920224      -33.0733117767      -21.3558570368  MEMB      189             0.0000000000
     21807       189  OSM       O14            32.4035865111      -30.6545941953      -21.3682258565  MEMB      189             0.0000000000
     21808       189  OSM       O11            32.4210726367      -31.8877074669      -19.2234623444  MEMB      189             0.0000000000
     21809       189  OSM       O12            30.6789589980      -32.3693237845      -20.9533714290  MEMB      189             0.0000000000
     21810       189  OSM       C1S            31.7697626413      -32.6114200789      -18.1972135055  MEMB      189             0.0000000000
     21811       189  OSM       H1S            32.2802109991      -33.5875215436      -18.0872156845  MEMB      189             0.0000000000
     21812       189  OSM       H1T            30.7114105334      -32.8246365609      -18.4405733637  MEMB      189             0.0000000000
     21813       189  OSM       NF             31.2740093501      -30.5640075318      -16.8253591302  MEMB      189             0.0000000000
     21814       189  OSM       HNF            31.8072246759      -29.7628091268      -17.0688346188  MEMB      189             0.0000000000
     21815       189  OSM       C2S            31.8828445545      -31.8422899767      -16.8305435832  MEMB      189             0.0000000000
     21816       189  OSM       H2S            31.3548400127      -32.4422790255      -16.0442686131  MEMB      189             0.0000000000
     21817       189  OSM       C3S            33.3283998139      -31.6639057042      -16.4733118788  MEMB      189             0.0000000000
     21818       189  OSM       H3S            33.8150395228      -30.9270096435      -17.1339652798  MEMB      189             0.0000000000
     21819       189  OSM       O3             34.0860016819      -32.8152820590      -16.6846859041  MEMB      189             0.0000000000
     21820       189  OSM       HO3            33.5248976853      -33.4521615489      -17.1091489845  MEMB      189             0.0000000000
     21821       189  OSM       C4S            33.4473270260      -31.2219735554      -15.0584312188  MEMB      189             0.0000000000
     21822       189  OSM       H4S            33.7984648263      -30.1992844528      -15.0445541718  MEMB      189             0.0000000000
     21823       189  OSM       C5S            33.1282845024      -31.8827185148      -13.9234011779  MEMB      189             0.0000000000
     21824       189  OSM       H5S            32.6171243053      -32.8404921328      -13.9856438787  MEMB      189             0.0000000000
     21825       189  OSM       C6S            33.2868820428      -31.3827076645      -12.5322062208  MEMB      189             0.0000000000
     21826       189  OSM       H6S            34.1810645196      -30.7171513500      -12.5418903867  MEMB      189             0.0000000000
     21827       189  OSM       H6T            33.5876214383      -32.1178515401      -11.7611306117  MEMB      189             0.0000000000
     21828       189  OSM       C7S            32.0066925881      -30.6946229364      -12.0506872924  MEMB      189             0.0000000000
     21829       189  OSM       H7S            31.8880355775      -29.7651360423      -12.6411374977  MEMB      189             0.0000000000
     21830       189  OSM       H7T            32.2008413277      -30.5279829963      -10.9849604417  MEMB      189             0.0000000000
     21831       189  OSM       C8S            30.6458917409      -31.2920812615      -11.9338257481  MEMB      189             0.0000000000
     21832       189  OSM       H8S            30.3430493658      -31.4445826601      -12.9830764361  MEMB      189             0.0000000000
     21833       189  OSM       H8T            29.9643935489      -30.5203067309      -11.4791031994  MEMB      189             0.0000000000
     21834       189  OSM       C9S            30.7285572142      -32.5543035232      -11.0925388228  MEMB      189             0.0000000000
     21835       189  OSM       H9S            31.5446914224      -33.1782890008      -11.5223674092  MEMB      189             0.0000000000
     21836       189  OSM       H9T            29.7803188769      -33.0990931446      -11.2429875622  MEMB      189             0.0000000000
     21837       189  OSM       C10S           31.1470615475      -32.3476270626       -9.6185781082  MEMB      189             0.0000000000
     21838       189  OSM       H10S           32.0878567633      -31.7728300373       -9.5323538794  MEMB      189             0.0000000000
     21839       189  OSM       H10T           31.4381756363      -33.3291364600       -9.1889861893  MEMB      189             0.0000000000
     21840       189  OSM       C11S           30.1122087756      -31.7207940169       -8.6912236305  MEMB      189             0.0000000000
     21841       189  OSM       H11S           29.1445343930      -31.4797742449       -9.1929238542  MEMB      189             0.0000000000
     21842       189  OSM       H11T           30.5032127533      -30.7706984726       -8.2747785454  MEMB      189             0.0000000000
     21843       189  OSM       C12S           29.8584455786      -32.6290935828       -7.4959905763  MEMB      189             0.0000000000
     21844       189  OSM       H12S           28.9752719912      -32.1510997669       -6.9819474115  MEMB      189             0.0000000000
     21845       189  OSM       H12T           30.6824359628      -32.7562090597       -6.7893978102  MEMB      189             0.0000000000
     21846       189  OSM       C13S           29.5723896922      -34.0782178728       -7.7952449251  MEMB      189             0.0000000000
     21847       189  OSM       H13S           29.9723249113      -34.9583483025       -8.3095733209  MEMB      189             0.0000000000
     21848       189  OSM       H13T           29.2519806522      -33.7902500102       -8.8098458038  MEMB      189             0.0000000000
     21849       189  OSM       C14S           28.6427322476      -34.4297244143       -6.6707369401  MEMB      189             0.0000000000
     21850       189  OSM       H14S           28.1228807427      -35.3524954715       -6.8695123238  MEMB      189             0.0000000000
     21851       189  OSM       H14T           27.9150523849      -33.5929773618       -6.4859762743  MEMB      189             0.0000000000
     21852       189  OSM       C15S           29.1301318122      -35.0946334122       -5.4922457538  MEMB      189             0.0000000000
     21853       189  OSM       H15S           29.9650144968      -34.4198116152       -5.2767784508  MEMB      189             0.0000000000
     21854       189  OSM       H15T           29.3722555102      -36.1618329061       -5.7115711955  MEMB      189             0.0000000000
     21855       189  OSM       C16S           28.1042080490      -35.0658723963       -4.4432932760  MEMB      189             0.0000000000
     21856       189  OSM       H16S           28.6974517046      -35.5842237605       -3.6415098072  MEMB      189             0.0000000000
     21857       189  OSM       H16T           27.1624657552      -35.6646572924       -4.5182879374  MEMB      189             0.0000000000
     21858       189  OSM       C17S           27.7720009851      -33.6308038343       -4.1340930091  MEMB      189             0.0000000000
     21859       189  OSM       H17S           26.7278294143      -33.2804312854       -4.3666477404  MEMB      189             0.0000000000
     21860       189  OSM       H17T           28.5072091688      -32.7927156812       -4.1403102453  MEMB      189             0.0000000000
     21861       189  OSM       C18S           27.8127929275      -33.8881371316       -2.7902530780  MEMB      189             0.0000000000
     21862       189  OSM       H18S           27.4674734646      -32.9179470944       -2.3272028826  MEMB      189             0.0000000000
     21863       189  OSM       H18T           28.7088755552      -34.2700141838       -2.2701838840  MEMB      189             0.0000000000
     21864       189  OSM       H18U           27.1308442584      -34.7699960403       -2.6099275870  MEMB      189             0.0000000000
     21865       189  OSM       C1F            30.0171735923      -30.5438630218      -16.9966075456  MEMB      189             0.0000000000
     21866       189  OSM       OF             29.3764533438      -31.5693498395      -17.1432235768  MEMB      189             0.0000000000
     21867       189  OSM       C2F            29.4971759573      -29.1681035028      -17.0640207870  MEMB      189             0.0000000000
     21868       189  OSM       H2F            28.7908543986      -29.0718233460      -17.9263483924  MEMB      189             0.0000000000
     21869       189  OSM       H2G            30.3844146390      -28.5235710749      -17.0725529138  MEMB      189             0.0000000000
     21870       189  OSM       C3F            28.8896410810      -28.5020264262      -15.8201639518  MEMB      189             0.0000000000
     21871       189  OSM       H3F            28.5369650040      -29.4686374199      -15.6479413053  MEMB      189             0.0000000000
     21872       189  OSM       H3G            28.0321867059      -27.8593340920      -16.1474737609  MEMB      189             0.0000000000
     21873       189  OSM       C4F            29.0653509673      -28.7104755017      -14.2982543433  MEMB      189             0.0000000000
     21874       189  OSM       H4F            29.8092192503      -29.4841655652      -14.0792243810  MEMB      189             0.0000000000
     21875       189  OSM       H4G            28.1382398675      -29.0277945522      -13.7619559977  MEMB      189             0.0000000000
     21876       189  OSM       C5F            29.2841235565      -27.3453832811      -13.8355728463  MEMB      189             0.0000000000
     21877       189  OSM       H5F            28.3363083584      -26.7884440421      -14.0628738309  MEMB      189             0.0000000000
     21878       189  OSM       H5G            30.1436493528      -27.0711809731      -14.5006977721  MEMB      189             0.0000000000
     21879       189  OSM       C6F            29.7532458822      -27.0923888753      -12.4596955645  MEMB      189             0.0000000000
     21880       189  OSM       H6F            29.9866939437      -26.0052043680      -12.3988125072  MEMB      189             0.0000000000
     21881       189  OSM       H6G            30.6824004449      -27.6672483109      -12.3843364279  MEMB      189             0.0000000000
     21882       189  OSM       C7F            28.7330376042      -27.3686402062      -11.3894891935  MEMB      189             0.0000000000
     21883       189  OSM       H7F            28.4334970558      -28.4277298493      -11.2843101607  MEMB      189             0.0000000000
     21884       189  OSM       H7G            27.8966960323      -26.7842309064      -11.7242601634  MEMB      189             0.0000000000
     21885       189  OSM       C8F            29.0400912229      -26.7438985218      -10.0632420952  MEMB      189             0.0000000000
     21886       189  OSM       H8F            28.1544425573      -26.7106252667       -9.3927396968  MEMB      189             0.0000000000
     21887       189  OSM       H8G            29.3623299183      -25.7446937506      -10.1732587867  MEMB      189             0.0000000000
     21888       189  OSM       C9F            30.2564703399      -27.4552216031       -9.6555040078  MEMB      189             0.0000000000
     21889       189  OSM       H9F            31.0596603573      -27.4461710884      -10.3706609911  MEMB      189             0.0000000000
     21890       189  OSM       C10F           30.4466270213      -28.0665248641       -8.5093951288  MEMB      189             0.0000000000
     21891       189  OSM       H10F           31.4472494698      -28.3104146667       -8.1129724655  MEMB      189             0.0000000000
     21892       189  OSM       C11F           29.4658915711      -28.0945208134       -7.4810361635  MEMB      189             0.0000000000
     21893       189  OSM       H11F           28.5472333075      -27.4775848865       -7.5231540184  MEMB      189             0.0000000000
     21894       189  OSM       H11G           30.1589437691      -27.3040907910       -7.2989728162  MEMB      189             0.0000000000
     21895       189  OSM       C12F           29.4321153414      -29.1063195243       -6.3352672793  MEMB      189             0.0000000000
     21896       189  OSM       H12F           29.2011726305      -30.0165477749       -6.8830042522  MEMB      189             0.0000000000
     21897       189  OSM       H12G           28.5945668277      -28.8525075914       -5.6490184658  MEMB      189             0.0000000000
     21898       189  OSM       C13F           30.6329318429      -29.4442459731       -5.4632161476  MEMB      189             0.0000000000
     21899       189  OSM       H13F           30.9653970821      -28.5859508393       -4.8736295634  MEMB      189             0.0000000000
     21900       189  OSM       H13G           31.5364126073      -29.6701768658       -6.0562866828  MEMB      189             0.0000000000
     21901       189  OSM       C14F           30.2722696357      -30.5357553764       -4.3897136702  MEMB      189             0.0000000000
     21902       189  OSM       H14F           30.5486181677      -31.4884133114       -4.8603883722  MEMB      189             0.0000000000
     21903       189  OSM       H14G           29.1770299683      -30.4607635482       -4.2968653039  MEMB      189             0.0000000000
     21904       189  OSM       C15F           30.7820890360      -30.5652835463       -2.8976014644  MEMB      189             0.0000000000
     21905       189  OSM       H15F           30.3517553727      -31.3326551750       -2.2762485710  MEMB      189             0.0000000000
     21906       189  OSM       H15G           30.5504823227      -29.6007811698       -2.3809517426  MEMB      189             0.0000000000
     21907       189  OSM       C16F           32.2090367554      -30.9519358653       -2.7542850844  MEMB      189             0.0000000000
     21908       189  OSM       H16F           32.5442020224      -31.7063351093       -3.5546284700  MEMB      189             0.0000000000
     21909       189  OSM       H16G           32.8331307745      -31.0389543614       -1.8384998391  MEMB      189             0.0000000000
     21910       189  OSM       C17F           32.4497542909      -29.5940944907       -3.1040738384  MEMB      189             0.0000000000
     21911       189  OSM       H17F           32.2988503700      -29.3742815777       -4.0632688928  MEMB      189             0.0000000000
     21912       189  OSM       H17G           33.2323183066      -30.1169504184       -3.5803916665  MEMB      189             0.0000000000
     21913       189  OSM       C18F           32.6251671966      -28.3907218973       -2.1644960375  MEMB      189             0.0000000000
     21914       189  OSM       H18F           33.1952877362      -27.5348677396       -2.6367172709  MEMB      189             0.0000000000
     21915       189  OSM       H18G           33.1248856120      -28.7097259934       -1.2507391844  MEMB      189             0.0000000000
     21916       189  OSM       H18H           31.9841240721      -27.7961124008       -1.7881353329  MEMB      189             0.0000000000
     21917       190  SAPE      N             -35.3640963938      -26.3649356981      -21.4132124133  MEMB      190             0.0000000000
     21918       190  SAPE      HN1           -36.2385800314      -26.8619444712      -21.1066216895  MEMB      190             0.0000000000
     21919       190  SAPE      HN2           -35.1745472030      -25.5377340518      -20.8048206364  MEMB      190             0.0000000000
     21920       190  SAPE      HN3           -35.4039510177      -26.0773185405      -22.4131651792  MEMB      190             0.0000000000
     21921       190  SAPE      C12           -34.2669857230      -27.3845738748      -21.2991607777  MEMB      190             0.0000000000
     21922       190  SAPE      H12A          -33.3254116464      -26.9245653852      -21.6523580624  MEMB      190             0.0000000000
     21923       190  SAPE      H12B          -34.5441426693      -28.2162880445      -21.9852349593  MEMB      190             0.0000000000
     21924       190  SAPE      C11           -34.1912710891      -27.9805606937      -19.8928333808  MEMB      190             0.0000000000
     21925       190  SAPE      H11A          -33.8597007395      -27.2522246954      -19.1243891577  MEMB      190             0.0000000000
     21926       190  SAPE      H11B          -33.4252932120      -28.8010628616      -19.9485054596  MEMB      190             0.0000000000
     21927       190  SAPE      P             -35.8178438258      -29.9837032729      -19.5395829379  MEMB      190             0.0000000000
     21928       190  SAPE      O13           -37.0896985611      -30.1859268687      -18.8350635563  MEMB      190             0.0000000000
     21929       190  SAPE      O14           -35.6848226922      -30.4021170533      -20.9440143684  MEMB      190             0.0000000000
     21930       190  SAPE      O12           -35.4828899503      -28.4344138819      -19.5083708001  MEMB      190             0.0000000000
     21931       190  SAPE      O11           -34.6154732557      -30.5987667511      -18.7248565364  MEMB      190             0.0000000000
     21932       190  SAPE      C1            -34.9196774840      -31.4645012143      -17.6355245479  MEMB      190             0.0000000000
     21933       190  SAPE      HA            -35.7940787188      -32.1304546907      -17.8500308942  MEMB      190             0.0000000000
     21934       190  SAPE      HB            -34.0600805119      -32.1471836954      -17.4680124516  MEMB      190             0.0000000000
     21935       190  SAPE      C2            -35.2057122840      -30.6112812613      -16.3819148750  MEMB      190             0.0000000000
     21936       190  SAPE      HS            -36.2109272466      -30.1486702569      -16.5448994269  MEMB      190             0.0000000000
     21937       190  SAPE      O21           -34.1961546074      -29.6051601139      -16.1995488451  MEMB      190             0.0000000000
     21938       190  SAPE      C21           -34.5924069538      -28.6620251815      -15.3853541633  MEMB      190             0.0000000000
     21939       190  SAPE      O22           -35.7246486422      -28.4922005608      -14.9637833515  MEMB      190             0.0000000000
     21940       190  SAPE      C22           -33.3948094722      -27.8194357126      -15.0064203347  MEMB      190             0.0000000000
     21941       190  SAPE      H2R           -32.6332499102      -28.4593463102      -14.5193034818  MEMB      190             0.0000000000
     21942       190  SAPE      H2S           -32.9974529063      -27.4288065166      -15.9674472345  MEMB      190             0.0000000000
     21943       190  SAPE      C3            -35.2705897324      -31.4592432650      -15.1192661275  MEMB      190             0.0000000000
     21944       190  SAPE      HX            -35.9046180899      -32.3259646250      -15.3705940735  MEMB      190             0.0000000000
     21945       190  SAPE      HY            -35.8093577234      -30.8460207892      -14.3452290822  MEMB      190             0.0000000000
     21946       190  SAPE      O31           -33.9306504220      -31.9047788371      -14.7548857116  MEMB      190             0.0000000000
     21947       190  SAPE      C31           -33.9434903017      -32.2707234037      -13.4794599863  MEMB      190             0.0000000000
     21948       190  SAPE      O32           -34.8864376961      -32.0434011723      -12.7483117055  MEMB      190             0.0000000000
     21949       190  SAPE      C32           -32.5818492879      -32.9860840761      -13.1275299381  MEMB      190             0.0000000000
     21950       190  SAPE      H2X           -31.8412521687      -32.3536742472      -13.6092663608  MEMB      190             0.0000000000
     21951       190  SAPE      H2Y           -32.4670946870      -34.0032170423      -13.5458401694  MEMB      190             0.0000000000
     21952       190  SAPE      C23           -33.8289242871      -26.6785414313      -14.0669698249  MEMB      190             0.0000000000
     21953       190  SAPE      H3R           -34.5284569794      -27.0239647201      -13.2788715711  MEMB      190             0.0000000000
     21954       190  SAPE      H3S           -34.3427311571      -25.9265669444      -14.7117925374  MEMB      190             0.0000000000
     21955       190  SAPE      C24           -32.6785384415      -25.9828308592      -13.3610293582  MEMB      190             0.0000000000
     21956       190  SAPE      H4R           -33.0630096529      -25.0842606098      -12.8161636423  MEMB      190             0.0000000000
     21957       190  SAPE      H4S           -32.1084275115      -25.6351002525      -14.2494254361  MEMB      190             0.0000000000
     21958       190  SAPE      C25           -31.8344245354      -26.8304009750      -12.4357628630  MEMB      190             0.0000000000
     21959       190  SAPE      H5R           -31.1312592464      -27.5247929053      -12.9218029714  MEMB      190             0.0000000000
     21960       190  SAPE      C26           -31.8752309504      -26.7856229057      -11.0946865709  MEMB      190             0.0000000000
     21961       190  SAPE      H6R           -31.2549971408      -27.4982502237      -10.5267086567  MEMB      190             0.0000000000
     21962       190  SAPE      C27           -32.7793693699      -25.8812335228      -10.2878574763  MEMB      190             0.0000000000
     21963       190  SAPE      H7R           -33.7656369382      -25.8111085442      -10.7811539743  MEMB      190             0.0000000000
     21964       190  SAPE      H7S           -32.5011125400      -24.8224395981      -10.2909435726  MEMB      190             0.0000000000
     21965       190  SAPE      C28           -32.7908906134      -26.2502075566       -8.8330200571  MEMB      190             0.0000000000
     21966       190  SAPE      H8R           -31.9622871343      -25.8269707754       -8.2662581681  MEMB      190             0.0000000000
     21967       190  SAPE      C29           -33.6088341912      -27.1001991046       -8.2006085798  MEMB      190             0.0000000000
     21968       190  SAPE      H9R           -33.4621997986      -27.2635716336       -7.1221355553  MEMB      190             0.0000000000
     21969       190  SAPE      C210          -34.7199529069      -27.8878123459       -8.8303419174  MEMB      190             0.0000000000
     21970       190  SAPE      H10R          -35.2487098282      -28.4168329901       -8.0044495779  MEMB      190             0.0000000000
     21971       190  SAPE      H10S          -34.2913606263      -28.7152914363       -9.4250368751  MEMB      190             0.0000000000
     21972       190  SAPE      C211          -35.5867883643      -27.0441650028       -9.7613721189  MEMB      190             0.0000000000
     21973       190  SAPE      H11R          -35.2718362209      -26.9527811242      -10.7819908864  MEMB      190             0.0000000000
     21974       190  SAPE      C212          -36.7993077101      -26.5524648960       -9.5727161902  MEMB      190             0.0000000000
     21975       190  SAPE      H12R          -37.4976261977      -26.3127149270      -10.3678885825  MEMB      190             0.0000000000
     21976       190  SAPE      C213          -37.5320375342      -26.7784393603       -8.3997725818  MEMB      190             0.0000000000
     21977       190  SAPE      H13R          -37.2562093627      -27.8572733582       -8.4825185162  MEMB      190             0.0000000000
     21978       190  SAPE      H13S          -38.5079942859      -27.1058325551       -8.8697371884  MEMB      190             0.0000000000
     21979       190  SAPE      C214          -37.3734531784      -26.1874011986       -6.9005165279  MEMB      190             0.0000000000
     21980       190  SAPE      H14R          -38.2856241627      -25.4453135737       -6.7824004642  MEMB      190             0.0000000000
     21981       190  SAPE      C215          -36.7521106892      -26.9474646071       -5.7556946682  MEMB      190             0.0000000000
     21982       190  SAPE      H15R          -37.2415059540      -26.5690034078       -4.7470453412  MEMB      190             0.0000000000
     21983       190  SAPE      C216          -36.0619855720      -28.6217225360       -5.6427141773  MEMB      190             0.0000000000
     21984       190  SAPE      H16R          -34.9887581255      -28.7753640120       -5.6261010793  MEMB      190             0.0000000000
     21985       190  SAPE      H16S          -36.5495022251      -29.4966890043       -6.2204671938  MEMB      190             0.0000000000
     21986       190  SAPE      C217          -35.9172537720      -29.8278275366       -4.3748155748  MEMB      190             0.0000000000
     21987       190  SAPE      H17R          -36.2433593727      -30.8229483328       -3.9955973107  MEMB      190             0.0000000000
     21988       190  SAPE      H17S          -36.8219313651      -30.4943801775       -4.5635567583  MEMB      190             0.0000000000
     21989       190  SAPE      C218          -35.6010865611      -29.0766803158       -3.0221691010  MEMB      190             0.0000000000
     21990       190  SAPE      H18R          -36.0628051904      -28.2195749717       -3.5139216302  MEMB      190             0.0000000000
     21991       190  SAPE      H18S          -35.1920694163      -28.0572901501       -3.1032848263  MEMB      190             0.0000000000
     21992       190  SAPE      C219          -36.1578534945      -29.5930782145       -1.4232187345  MEMB      190             0.0000000000
     21993       190  SAPE      H19R          -36.0506893645      -28.7446307378       -0.7756866511  MEMB      190             0.0000000000
     21994       190  SAPE      H19S          -35.2051446623      -29.9437125228       -1.2180955007  MEMB      190             0.0000000000
     21995       190  SAPE      C220          -37.4227860376      -30.6131861739       -0.8073101074  MEMB      190             0.0000000000
     21996       190  SAPE      H20R          -37.5175360054      -31.0459774032        0.1844184613  MEMB      190             0.0000000000
     21997       190  SAPE      H20S          -37.6786513108      -31.4672409514       -1.4424557806  MEMB      190             0.0000000000
     21998       190  SAPE      H20T          -38.4429096700      -30.1420169970       -0.6771253019  MEMB      190             0.0000000000
     21999       190  SAPE      C33           -32.0948285315      -33.0865727717      -11.6709197696  MEMB      190             0.0000000000
     22000       190  SAPE      H3X           -31.0390543371      -33.2655349713      -11.4751807646  MEMB      190             0.0000000000
     22001       190  SAPE      H3Y           -32.2064037819      -34.1764201306      -11.4327170221  MEMB      190             0.0000000000
     22002       190  SAPE      C34           -32.7017695466      -31.9492325118      -10.7963986645  MEMB      190             0.0000000000
     22003       190  SAPE      H4X           -33.8025057249      -31.7260623001      -10.8261759424  MEMB      190             0.0000000000
     22004       190  SAPE      H4Y           -32.3832228152      -30.9571428455      -11.0887172534  MEMB      190             0.0000000000
     22005       190  SAPE      C35           -32.4448625478      -32.1752747507       -9.3429875867  MEMB      190             0.0000000000
     22006       190  SAPE      H5X           -31.4160244065      -32.4613691266       -9.0990933445  MEMB      190             0.0000000000
     22007       190  SAPE      H5Y           -32.9802316086      -32.9939560197       -8.9516139928  MEMB      190             0.0000000000
     22008       190  SAPE      C36           -33.1043452473      -31.1466250729       -8.5234263537  MEMB      190             0.0000000000
     22009       190  SAPE      H6X           -34.2194823218      -31.2134914227       -8.4622386405  MEMB      190             0.0000000000
     22010       190  SAPE      H6Y           -32.8285747602      -30.1515049749       -8.8744261324  MEMB      190             0.0000000000
     22011       190  SAPE      C37           -32.5489561262      -31.3760398960       -7.2070291960  MEMB      190             0.0000000000
     22012       190  SAPE      H7X           -31.4584671441      -31.3074729451       -7.0753766101  MEMB      190             0.0000000000
     22013       190  SAPE      H7Y           -32.7493747153      -32.4221049766       -6.8926516540  MEMB      190             0.0000000000
     22014       190  SAPE      C38           -33.1772565332      -30.3732345910       -6.3786042131  MEMB      190             0.0000000000
     22015       190  SAPE      H8X           -34.3269301138      -30.6147194353       -6.4773644798  MEMB      190             0.0000000000
     22016       190  SAPE      H8Y           -33.0153243374      -29.2883305356       -6.4178915513  MEMB      190             0.0000000000
     22017       190  SAPE      C39           -32.5100979742      -30.8703112286       -5.1361793559  MEMB      190             0.0000000000
     22018       190  SAPE      H9X           -32.7943689232      -31.8793847753       -5.0541384964  MEMB      190             0.0000000000
     22019       190  SAPE      H9Y           -33.5099813178      -30.4178332449       -4.9305589800  MEMB      190             0.0000000000
     22020       190  SAPE      C310          -31.2584896779      -30.6567644967       -3.9872943461  MEMB      190             0.0000000000
     22021       190  SAPE      H10X          -31.0472415096      -29.5739849361       -3.9554863863  MEMB      190             0.0000000000
     22022       190  SAPE      H10Y          -30.4224846612      -31.2232320260       -4.3974442237  MEMB      190             0.0000000000
     22023       190  SAPE      C311          -31.1929596742      -31.2366361686       -2.3524228802  MEMB      190             0.0000000000
     22024       190  SAPE      H11X          -31.6983355663      -32.1913687791       -1.9254137899  MEMB      190             0.0000000000
     22025       190  SAPE      H11Y          -31.7489114114      -30.5774891821       -1.6280706541  MEMB      190             0.0000000000
     22026       190  SAPE      C312          -29.9300034484      -30.9528380140       -1.8165201575  MEMB      190             0.0000000000
     22027       190  SAPE      H12X          -29.8136952989      -29.9399605419       -2.2461343959  MEMB      190             0.0000000000
     22028       190  SAPE      H12Y          -29.3864743711      -31.7580910530       -2.3276947045  MEMB      190             0.0000000000
     22029       190  SAPE      C313          -30.0275671894      -30.8112855815       -0.3253547911  MEMB      190             0.0000000000
     22030       190  SAPE      H13X          -30.4494211636      -29.8268300267        0.0043265881  MEMB      190             0.0000000000
     22031       190  SAPE      H13Y          -28.9983353545      -30.9896118306        0.0675986968  MEMB      190             0.0000000000
     22032       190  SAPE      C314          -30.8703737653      -31.7777590486        0.2528290674  MEMB      190             0.0000000000
     22033       190  SAPE      H14X          -30.2940033681      -32.6446574473       -0.1909800718  MEMB      190             0.0000000000
     22034       190  SAPE      H14Y          -31.9406487433      -31.5404270777        0.1000105603  MEMB      190             0.0000000000
     22035       190  SAPE      C315          -30.7464166256      -31.6673626708        1.6489826252  MEMB      190             0.0000000000
     22036       190  SAPE      H15X          -30.0278008030      -30.9028041664        1.9719498307  MEMB      190             0.0000000000
     22037       190  SAPE      H15Y          -30.2454465948      -32.6227205278        1.7085060887  MEMB      190             0.0000000000
     22038       190  SAPE      C316          -31.9615659260      -31.6447347360        2.5029304069  MEMB      190             0.0000000000
     22039       190  SAPE      H16X          -32.7513779543      -31.0338013449        2.0518300648  MEMB      190             0.0000000000
     22040       190  SAPE      H16Y          -31.7663465331      -31.2252755442        3.5072532544  MEMB      190             0.0000000000
     22041       190  SAPE      C317          -32.4210313821      -33.0085819259        2.7902289688  MEMB      190             0.0000000000
     22042       190  SAPE      H17X          -33.4609833169      -32.7040613171        3.0806018074  MEMB      190             0.0000000000
     22043       190  SAPE      H17Y          -31.9432112772      -33.5383651464        3.6401784360  MEMB      190             0.0000000000
     22044       190  SAPE      C318          -32.4434508523      -33.9957557799        1.6762001966  MEMB      190             0.0000000000
     22045       190  SAPE      H18X          -32.5173237795      -35.0124389709        2.1639666371  MEMB      190             0.0000000000
     22046       190  SAPE      H18Y          -31.7751403112      -34.4176796957        1.0896999419  MEMB      190             0.0000000000
     22047       190  SAPE      H18Z          -33.2284158598      -33.7063466410        0.9593814724  MEMB      190             0.0000000000
     22048       191  SAPE      N              37.7070743032       26.3853187192      -21.9053337955  MEMB      191             0.0000000000
     22049       191  SAPE      HN1            38.0676785451       26.1224735785      -22.8406523423  MEMB      191             0.0000000000
     22050       191  SAPE      HN2            38.1929353289       27.2237010786      -21.4913207811  MEMB      191             0.0000000000
     22051       191  SAPE      HN3            37.7084711623       25.5983877629      -21.2367730277  MEMB      191             0.0000000000
     22052       191  SAPE      C12            36.2892985270       26.7821277175      -22.0819259780  MEMB      191             0.0000000000
     22053       191  SAPE      H12A           35.6626184929       25.9271768753      -22.2505130124  MEMB      191             0.0000000000
     22054       191  SAPE      H12B           36.2043090676       27.4909572232      -22.9254881693  MEMB      191             0.0000000000
     22055       191  SAPE      C11            35.6352078694       27.0976934051      -20.7777811120  MEMB      191             0.0000000000
     22056       191  SAPE      H11A           35.7234752423       26.2495840258      -20.0546097675  MEMB      191             0.0000000000
     22057       191  SAPE      H11B           34.5354552540       27.1643400936      -21.0293360188  MEMB      191             0.0000000000
     22058       191  SAPE      P              36.9208577442       28.5702029633      -18.9407939645  MEMB      191             0.0000000000
     22059       191  SAPE      O13            38.3375484493       28.3148459816      -19.2506781921  MEMB      191             0.0000000000
     22060       191  SAPE      O14            36.6030166663       29.9613423084      -18.5682925719  MEMB      191             0.0000000000
     22061       191  SAPE      O12            36.2225404613       28.3084170663      -20.3333402867  MEMB      191             0.0000000000
     22062       191  SAPE      O11            36.2275317101       27.3859724834      -18.0645538432  MEMB      191             0.0000000000
     22063       191  SAPE      C1             34.9165478500       27.0638784579      -17.5241618180  MEMB      191             0.0000000000
     22064       191  SAPE      HA             34.0750727670       27.0775851345      -18.2697276149  MEMB      191             0.0000000000
     22065       191  SAPE      HB             34.7403532101       26.0459362344      -17.1821668097  MEMB      191             0.0000000000
     22066       191  SAPE      C2             34.6232385820       28.1470010489      -16.5096825192  MEMB      191             0.0000000000
     22067       191  SAPE      HS             34.6399056850       28.8804116652      -17.2466056465  MEMB      191             0.0000000000
     22068       191  SAPE      O21            35.6390134992       28.2974450963      -15.5128290407  MEMB      191             0.0000000000
     22069       191  SAPE      C21            35.7348029538       29.4141431291      -14.7959720696  MEMB      191             0.0000000000
     22070       191  SAPE      O22            34.9436021783       30.2693745340      -14.5992741491  MEMB      191             0.0000000000
     22071       191  SAPE      C22            36.9894951259       29.5747160078      -14.0483127162  MEMB      191             0.0000000000
     22072       191  SAPE      H2R            37.5581163081       28.6590459508      -14.2409043656  MEMB      191             0.0000000000
     22073       191  SAPE      H2S            37.4962668871       30.5026280536      -14.4136510365  MEMB      191             0.0000000000
     22074       191  SAPE      C3             33.3060555886       28.0395773612      -15.8222360449  MEMB      191             0.0000000000
     22075       191  SAPE      HX             32.5531387861       27.9454680863      -16.5760020958  MEMB      191             0.0000000000
     22076       191  SAPE      HY             32.8745944864       28.9200158110      -15.2583810990  MEMB      191             0.0000000000
     22077       191  SAPE      O31            33.4069769043       26.8189478864      -15.1792187091  MEMB      191             0.0000000000
     22078       191  SAPE      C31            33.4354139561       27.0159324836      -13.9180673297  MEMB      191             0.0000000000
     22079       191  SAPE      O32            33.0119641688       27.9781595890      -13.2976800674  MEMB      191             0.0000000000
     22080       191  SAPE      C32            33.9698967415       25.7513126297      -13.3667714036  MEMB      191             0.0000000000
     22081       191  SAPE      H2X            35.0251995679       25.6002711860      -13.4749984641  MEMB      191             0.0000000000
     22082       191  SAPE      H2Y            33.7565687010       24.9457112349      -14.0537824743  MEMB      191             0.0000000000
     22083       191  SAPE      C23            36.5976247544       29.7825213616      -12.5709887263  MEMB      191             0.0000000000
     22084       191  SAPE      H3R            35.7441451115       30.4859099643      -12.3728217250  MEMB      191             0.0000000000
     22085       191  SAPE      H3S            37.4797477201       30.2799823133      -12.1199891989  MEMB      191             0.0000000000
     22086       191  SAPE      C24            36.3494063404       28.4325944515      -11.8925551008  MEMB      191             0.0000000000
     22087       191  SAPE      H4R            37.3247078834       27.8998345338      -11.8748353472  MEMB      191             0.0000000000
     22088       191  SAPE      H4S            35.6439525432       27.8089477248      -12.4871573551  MEMB      191             0.0000000000
     22089       191  SAPE      C25            35.8060766197       28.7207247063      -10.5221600174  MEMB      191             0.0000000000
     22090       191  SAPE      H5R            34.7084250892       28.6846249326      -10.4425961437  MEMB      191             0.0000000000
     22091       191  SAPE      C26            36.5562538732       29.0575670370       -9.4566689828  MEMB      191             0.0000000000
     22092       191  SAPE      H6R            36.0603927433       29.3041399556       -8.5089826577  MEMB      191             0.0000000000
     22093       191  SAPE      C27            38.0616866602       29.1993177593       -9.4275482546  MEMB      191             0.0000000000
     22094       191  SAPE      H7R            38.3910112572       29.9656441070       -8.6870009539  MEMB      191             0.0000000000
     22095       191  SAPE      H7S            38.4688655474       29.5466878893      -10.3977996778  MEMB      191             0.0000000000
     22096       191  SAPE      C28            38.6194880600       27.8412769370       -9.1071424767  MEMB      191             0.0000000000
     22097       191  SAPE      H8R            39.0340973598       27.2836620172       -9.9618236643  MEMB      191             0.0000000000
     22098       191  SAPE      C29            38.6538487481       27.2901586939       -7.8852191229  MEMB      191             0.0000000000
     22099       191  SAPE      H9R            38.9828321570       26.2535915005       -7.8091483581  MEMB      191             0.0000000000
     22100       191  SAPE      C210           38.1557306958       27.9050943121       -6.5984840804  MEMB      191             0.0000000000
     22101       191  SAPE      H10R           37.4820835065       27.2106147540       -6.0486228106  MEMB      191             0.0000000000
     22102       191  SAPE      H10S           37.5625245143       28.8240153831       -6.7794032282  MEMB      191             0.0000000000
     22103       191  SAPE      C211           39.3433664620       28.2728548028       -5.7628620103  MEMB      191             0.0000000000
     22104       191  SAPE      H11R           39.5391824025       29.3499272718       -5.7367371268  MEMB      191             0.0000000000
     22105       191  SAPE      C212           40.0282432068       27.4411488885       -4.9659893349  MEMB      191             0.0000000000
     22106       191  SAPE      H12R           40.9440356694       27.7989356276       -4.4600816157  MEMB      191             0.0000000000
     22107       191  SAPE      C213           39.6654580061       25.9891417511       -4.8094656468  MEMB      191             0.0000000000
     22108       191  SAPE      H13R           40.3943758024       25.3653031081       -5.2995410205  MEMB      191             0.0000000000
     22109       191  SAPE      H13S           38.7702802977       25.6620019901       -5.3569409509  MEMB      191             0.0000000000
     22110       191  SAPE      C214           39.6337307337       25.5638640878       -3.3882200591  MEMB      191             0.0000000000
     22111       191  SAPE      H14R           40.5069185399       25.8138452494       -2.8421412504  MEMB      191             0.0000000000
     22112       191  SAPE      C215           38.6685227229       25.2260911481       -2.5980065256  MEMB      191             0.0000000000
     22113       191  SAPE      H15R           38.9121178131       24.8827346817       -1.5802429393  MEMB      191             0.0000000000
     22114       191  SAPE      C216           37.2918245660       25.2397988355       -3.0913067723  MEMB      191             0.0000000000
     22115       191  SAPE      H16R           36.7617029142       24.3575416161       -2.7006612862  MEMB      191             0.0000000000
     22116       191  SAPE      H16S           37.1880801808       25.2294962917       -4.1902211299  MEMB      191             0.0000000000
     22117       191  SAPE      C217           36.6803901248       26.5095795533       -2.5534716576  MEMB      191             0.0000000000
     22118       191  SAPE      H17R           35.8367737558       26.6398849849       -3.1548538272  MEMB      191             0.0000000000
     22119       191  SAPE      H17S           37.2821611904       27.4548697989       -2.5251839276  MEMB      191             0.0000000000
     22120       191  SAPE      C218           36.0898255809       26.1069381194       -1.2492219514  MEMB      191             0.0000000000
     22121       191  SAPE      H18R           37.0908423692       26.1749718444       -0.8714010008  MEMB      191             0.0000000000
     22122       191  SAPE      H18S           35.6530463238       25.1006583158       -1.1591780222  MEMB      191             0.0000000000
     22123       191  SAPE      C219           35.2322208713       26.9907171874       -0.4399748142  MEMB      191             0.0000000000
     22124       191  SAPE      H19R           34.7476087467       27.1651616526       -1.3749014146  MEMB      191             0.0000000000
     22125       191  SAPE      H19S           35.6610626707       27.9307838120       -0.0856430216  MEMB      191             0.0000000000
     22126       191  SAPE      C220           34.1725685946       26.5616353265        0.5749869060  MEMB      191             0.0000000000
     22127       191  SAPE      H20R           33.5608111726       27.3989775407        1.0107950991  MEMB      191             0.0000000000
     22128       191  SAPE      H20S           34.6678598746       26.1171723602        1.4343626825  MEMB      191             0.0000000000
     22129       191  SAPE      H20T           33.5700773386       25.7842578475        0.0945910364  MEMB      191             0.0000000000
     22130       191  SAPE      C33            33.3468489410       25.6245499896      -12.0238592511  MEMB      191             0.0000000000
     22131       191  SAPE      H3X            32.2607223447       25.7633106870      -12.2226574511  MEMB      191             0.0000000000
     22132       191  SAPE      H3Y            33.5321775336       26.4556467751      -11.3211912720  MEMB      191             0.0000000000
     22133       191  SAPE      C34            33.6703140869       24.3095995306      -11.3472996488  MEMB      191             0.0000000000
     22134       191  SAPE      H4X            33.4192682571       23.3733624455      -11.8856519637  MEMB      191             0.0000000000
     22135       191  SAPE      H4Y            33.2294277492       24.3041712197      -10.3602299014  MEMB      191             0.0000000000
     22136       191  SAPE      C35            35.0387889190       23.9076451801      -11.1498416531  MEMB      191             0.0000000000
     22137       191  SAPE      H5X            35.4763863856       23.8939964290      -12.1592515334  MEMB      191             0.0000000000
     22138       191  SAPE      H5Y            34.9199534294       22.8838373618      -10.7946195418  MEMB      191             0.0000000000
     22139       191  SAPE      C36            35.6771948197       24.7359796908      -10.0922277661  MEMB      191             0.0000000000
     22140       191  SAPE      H6X            35.5045860176       25.7944621640      -10.3849323012  MEMB      191             0.0000000000
     22141       191  SAPE      H6Y            36.7327899069       24.4526583340      -10.2091818692  MEMB      191             0.0000000000
     22142       191  SAPE      C37            35.1611207764       24.4837284194       -8.6707891669  MEMB      191             0.0000000000
     22143       191  SAPE      H7X            35.2849279453       23.4475920130       -8.3122821244  MEMB      191             0.0000000000
     22144       191  SAPE      H7Y            34.0670088001       24.6599779322       -8.6493619113  MEMB      191             0.0000000000
     22145       191  SAPE      C38            35.8328323234       25.3503060436       -7.6270318086  MEMB      191             0.0000000000
     22146       191  SAPE      H8X            36.1200917420       26.3408241393       -8.0675442323  MEMB      191             0.0000000000
     22147       191  SAPE      H8Y            36.7833418601       24.9195192007       -7.2538446503  MEMB      191             0.0000000000
     22148       191  SAPE      C39            34.8626392896       25.4482595608       -6.4356590187  MEMB      191             0.0000000000
     22149       191  SAPE      H9X            35.5133252855       25.9515620327       -5.6880857821  MEMB      191             0.0000000000
     22150       191  SAPE      H9Y            34.5123132055       24.5380564336       -5.9706466836  MEMB      191             0.0000000000
     22151       191  SAPE      C310           33.4227588862       25.9662536877       -6.8127439084  MEMB      191             0.0000000000
     22152       191  SAPE      H10X           33.0431680027       26.0794358454       -7.8078384373  MEMB      191             0.0000000000
     22153       191  SAPE      H10Y           34.0790985912       26.6105778306       -7.4726096852  MEMB      191             0.0000000000
     22154       191  SAPE      C311           32.3040148772       26.5484342495       -5.6173344385  MEMB      191             0.0000000000
     22155       191  SAPE      H11X           32.7368791181       25.8959843195       -4.8059274324  MEMB      191             0.0000000000
     22156       191  SAPE      H11Y           31.3350595647       26.1391574918       -5.8058536174  MEMB      191             0.0000000000
     22157       191  SAPE      C312           31.9801376004       28.1878637550       -4.8300585034  MEMB      191             0.0000000000
     22158       191  SAPE      H12X           31.3942399072       27.5647385155       -4.1589693976  MEMB      191             0.0000000000
     22159       191  SAPE      H12Y           31.4464295026       29.0508003602       -4.8317200912  MEMB      191             0.0000000000
     22160       191  SAPE      C313           33.3726256431       29.7643673910       -4.3719284985  MEMB      191             0.0000000000
     22161       191  SAPE      H13X           34.5040597751       29.7554227979       -4.7863526654  MEMB      191             0.0000000000
     22162       191  SAPE      H13Y           34.2284185700       29.5551214816       -3.6791081168  MEMB      191             0.0000000000
     22163       191  SAPE      C314           33.7181805992       31.0935981937       -4.5727632883  MEMB      191             0.0000000000
     22164       191  SAPE      H14X           32.8609463937       31.1105881204       -3.8902510717  MEMB      191             0.0000000000
     22165       191  SAPE      H14Y           33.5179931335       31.2377984177       -5.6186539323  MEMB      191             0.0000000000
     22166       191  SAPE      C315           35.2575200845       31.4375247773       -4.1532770676  MEMB      191             0.0000000000
     22167       191  SAPE      H15X           35.1198785249       32.4844122949       -3.8545123717  MEMB      191             0.0000000000
     22168       191  SAPE      H15Y           35.9601042909       31.2058344899       -4.9707756754  MEMB      191             0.0000000000
     22169       191  SAPE      C316           36.0949575336       30.6977621745       -3.0702362702  MEMB      191             0.0000000000
     22170       191  SAPE      H16X           36.3490137378       29.6179419181       -2.9362362347  MEMB      191             0.0000000000
     22171       191  SAPE      H16Y           35.2287663144       30.8207703690       -2.5319718436  MEMB      191             0.0000000000
     22172       191  SAPE      C317           37.1804421127       31.4734079053       -2.4341961729  MEMB      191             0.0000000000
     22173       191  SAPE      H17X           37.0581730101       32.5529268784       -2.5182480744  MEMB      191             0.0000000000
     22174       191  SAPE      H17Y           37.8120829235       31.0523406990       -3.2483537035  MEMB      191             0.0000000000
     22175       191  SAPE      C318           37.5364714129       31.0825402355       -0.9870971145  MEMB      191             0.0000000000
     22176       191  SAPE      H18X           37.5713557412       29.9591504828       -0.9748827342  MEMB      191             0.0000000000
     22177       191  SAPE      H18Y           37.1070604768       31.2661413516       -0.0045263852  MEMB      191             0.0000000000
     22178       191  SAPE      H18Z           38.3994071259       31.6629124868       -0.6586983133  MEMB      191             0.0000000000
     22179       192  CHL1      C3            -36.3033794201      -36.7121580057      -17.3241265185  MEMB      192             0.0000000000
     22180       192  CHL1      H3            -37.2833988996      -37.2044508523      -17.1211209117  MEMB      192             0.0000000000
     22181       192  CHL1      O3            -36.0416679585      -36.7968606235      -18.7072771067  MEMB      192             0.0000000000
     22182       192  CHL1      H3'           -36.2509582116      -37.7071674116      -18.9509895794  MEMB      192             0.0000000000
     22183       192  CHL1      C4            -36.3515176602      -35.2315627456      -16.8973684351  MEMB      192             0.0000000000
     22184       192  CHL1      H4A           -35.4630161415      -34.7089506570      -17.3106208495  MEMB      192             0.0000000000
     22185       192  CHL1      H4B           -37.2159237239      -34.7147056173      -17.3735314829  MEMB      192             0.0000000000
     22186       192  CHL1      C5            -36.3664254589      -35.1043986963      -15.3894916454  MEMB      192             0.0000000000
     22187       192  CHL1      C6            -37.2651734845      -34.3864635544      -14.7299250437  MEMB      192             0.0000000000
     22188       192  CHL1      H6            -38.0017994168      -33.8754473001      -15.2596438973  MEMB      192             0.0000000000
     22189       192  CHL1      C7            -37.3817861138      -34.0546900255      -13.2996565061  MEMB      192             0.0000000000
     22190       192  CHL1      H7A           -37.4373058206      -32.9432725036      -13.1830510102  MEMB      192             0.0000000000
     22191       192  CHL1      H7B           -38.2946546758      -34.5165335729      -12.8857995957  MEMB      192             0.0000000000
     22192       192  CHL1      C8            -36.2085479684      -34.6259152294      -12.5534633934  MEMB      192             0.0000000000
     22193       192  CHL1      H8            -35.3245877305      -34.0949827768      -12.7976411247  MEMB      192             0.0000000000
     22194       192  CHL1      C14           -36.4361770192      -34.5435428395      -11.0496416180  MEMB      192             0.0000000000
     22195       192  CHL1      H14           -37.2505469441      -35.2379876849      -10.7956885163  MEMB      192             0.0000000000
     22196       192  CHL1      C15           -36.8238377355      -33.1483671264      -10.5154558420  MEMB      192             0.0000000000
     22197       192  CHL1      H15A          -36.3165535025      -32.3050370949      -11.0408984272  MEMB      192             0.0000000000
     22198       192  CHL1      H15B          -37.8972777171      -32.9960949084      -10.6447406707  MEMB      192             0.0000000000
     22199       192  CHL1      C16           -36.3736737008      -33.1847828501       -9.0482979461  MEMB      192             0.0000000000
     22200       192  CHL1      H16A          -35.6087853853      -32.3880660954       -8.9587949035  MEMB      192             0.0000000000
     22201       192  CHL1      H16B          -37.1801000900      -32.9609263796       -8.3516341441  MEMB      192             0.0000000000
     22202       192  CHL1      C17           -35.6526472578      -34.5517693929       -8.7386057968  MEMB      192             0.0000000000
     22203       192  CHL1      H17           -36.4001073805      -35.2766001780       -8.4019507635  MEMB      192             0.0000000000
     22204       192  CHL1      C13           -35.3363351268      -35.0639833443      -10.1826818086  MEMB      192             0.0000000000
     22205       192  CHL1      C18           -34.2456982177      -34.2769501273      -10.4125407129  MEMB      192             0.0000000000
     22206       192  CHL1      H18A          -33.3064487423      -34.5350243708       -9.8646512023  MEMB      192             0.0000000000
     22207       192  CHL1      H18B          -34.0407602630      -34.2209734453      -11.4569649245  MEMB      192             0.0000000000
     22208       192  CHL1      H18C          -34.5164314376      -33.2638551393      -10.3659998522  MEMB      192             0.0000000000
     22209       192  CHL1      C12           -34.7736638133      -36.3256682893      -10.7992154736  MEMB      192             0.0000000000
     22210       192  CHL1      H12A          -33.7838557449      -36.4049185386      -10.4055044261  MEMB      192             0.0000000000
     22211       192  CHL1      H12B          -35.3255653323      -37.2154221849      -10.5440332540  MEMB      192             0.0000000000
     22212       192  CHL1      C11           -34.4645614993      -36.2474793006      -12.3337155090  MEMB      192             0.0000000000
     22213       192  CHL1      H11A          -33.5373822993      -35.6551783793      -12.5681859008  MEMB      192             0.0000000000
     22214       192  CHL1      H11B          -34.2629676896      -37.2331474554      -12.7347536316  MEMB      192             0.0000000000
     22215       192  CHL1      C9            -35.6470748336      -35.8864800476      -13.1328136376  MEMB      192             0.0000000000
     22216       192  CHL1      H9            -36.3797676177      -36.6780722065      -12.9116610990  MEMB      192             0.0000000000
     22217       192  CHL1      C10           -35.3162824309      -35.8920833499      -14.6537971993  MEMB      192             0.0000000000
     22218       192  CHL1      C19           -33.9500921432      -35.2793966550      -15.0502965615  MEMB      192             0.0000000000
     22219       192  CHL1      H19A          -33.7977943188      -35.1440209871      -16.1382382389  MEMB      192             0.0000000000
     22220       192  CHL1      H19B          -33.9833266488      -34.2705587805      -14.6756753776  MEMB      192             0.0000000000
     22221       192  CHL1      H19C          -33.0473360437      -35.7707185442      -14.6338984718  MEMB      192             0.0000000000
     22222       192  CHL1      C1            -35.3329687394      -37.3474476877      -15.1041487208  MEMB      192             0.0000000000
     22223       192  CHL1      H1A           -34.5115562999      -37.8877409153      -14.6050986454  MEMB      192             0.0000000000
     22224       192  CHL1      H1B           -36.2813766176      -37.7997390502      -14.7552731363  MEMB      192             0.0000000000
     22225       192  CHL1      C2            -35.2000649853      -37.4974922709      -16.6116153019  MEMB      192             0.0000000000
     22226       192  CHL1      H2A           -35.2681486634      -38.5734316414      -16.8661655764  MEMB      192             0.0000000000
     22227       192  CHL1      H2B           -34.1962284107      -37.1392851258      -16.9327194258  MEMB      192             0.0000000000
     22228       192  CHL1      C20           -34.6760931482      -34.2555159005       -7.5363913534  MEMB      192             0.0000000000
     22229       192  CHL1      H20           -33.7045561303      -33.8348846559       -7.6964162360  MEMB      192             0.0000000000
     22230       192  CHL1      C21           -34.0660867261      -35.3925989114       -6.9113376532  MEMB      192             0.0000000000
     22231       192  CHL1      H21A          -33.5823345351      -35.8154440296       -7.8078354200  MEMB      192             0.0000000000
     22232       192  CHL1      H21B          -34.9208790807      -35.9343852684       -6.4284212346  MEMB      192             0.0000000000
     22233       192  CHL1      H21C          -33.1952168597      -35.4250590441       -6.2336485800  MEMB      192             0.0000000000
     22234       192  CHL1      C22           -35.3084131933      -33.5574503527       -6.3805451475  MEMB      192             0.0000000000
     22235       192  CHL1      H22A          -35.4407634310      -32.5011482728       -6.7073925492  MEMB      192             0.0000000000
     22236       192  CHL1      H22B          -36.2903198732      -34.0396159253       -6.1991550900  MEMB      192             0.0000000000
     22237       192  CHL1      C23           -34.3860878772      -33.6808894684       -5.1408608545  MEMB      192             0.0000000000
     22238       192  CHL1      H23A          -34.1979144410      -34.6410285496       -4.6506357383  MEMB      192             0.0000000000
     22239       192  CHL1      H23B          -33.3611711638      -33.4930002627       -5.4753344528  MEMB      192             0.0000000000
     22240       192  CHL1      C24           -34.9527652258      -32.8019754581       -4.0776953968  MEMB      192             0.0000000000
     22241       192  CHL1      H24A          -35.0723959028      -31.9439921276       -4.7415647819  MEMB      192             0.0000000000
     22242       192  CHL1      H24B          -35.9129310153      -33.2489796666       -3.7591380688  MEMB      192             0.0000000000
     22243       192  CHL1      C25           -34.1103613946      -32.4049169686       -2.8654892275  MEMB      192             0.0000000000
     22244       192  CHL1      H25           -33.3999733919      -33.2635738719       -2.7127296728  MEMB      192             0.0000000000
     22245       192  CHL1      C26           -33.7258385281      -30.9036433400       -2.8108138380  MEMB      192             0.0000000000
     22246       192  CHL1      H26A          -33.0196418470      -31.6320499718       -3.2201000515  MEMB      192             0.0000000000
     22247       192  CHL1      H26B          -33.3720906650      -30.1306255435       -2.1350005570  MEMB      192             0.0000000000
     22248       192  CHL1      H26C          -33.3562507400      -29.9965397496       -3.3371258193  MEMB      192             0.0000000000
     22249       192  CHL1      C27           -34.8420017615      -32.2357782748       -1.6549200791  MEMB      192             0.0000000000
     22250       192  CHL1      H27A          -35.6938308693      -32.8423140448       -1.4883333673  MEMB      192             0.0000000000
     22251       192  CHL1      H27B          -34.2493508006      -31.8496908617       -0.7759459536  MEMB      192             0.0000000000
     22252       192  CHL1      H27C          -35.4429463878      -31.4748673136       -2.1449045674  MEMB      192             0.0000000000
     22253       193  TIP3      OH2             2.1342484858       -0.5555527951       21.7165023279  TIP3      1             -21.1700000000
     22254       193  TIP3      H1              1.6429058999       -0.1765741326       20.9632296048  TIP3      1               0.0000000000
     22255       193  TIP3      H2              1.5955064629       -1.3029987468       21.9739563053  TIP3      1               0.0000000000
     22256       194  TIP3      OH2             0.6528676369        0.7112975753       19.5701135607  TIP3      2               0.0000000000
     22257       194  TIP3      H1             -0.1509927300        0.1813895635       19.6533734512  TIP3      2               0.0000000000
     22258       194  TIP3      H2              1.2303348968        0.1788600898       18.9969598740  TIP3      2               0.0000000000
     22259       195  TIP3      OH2            13.1129918996       -5.4202340058       19.5195079797  TIP3      3               0.0000000000
     22260       195  TIP3      H1             13.4619664186       -5.0378672905       18.6829655941  TIP3      3               0.0000000000
     22261       195  TIP3      H2             12.3242031118       -4.8885953819       19.5715328034  TIP3      3               0.0000000000
     22262       196  TIP3      OH2            23.0394860024        7.2324132850       16.5336660508  TIP3      4               0.0000000000
     22263       196  TIP3      H1             22.7954584433        6.9422973437       17.4167495229  TIP3      4               0.0000000000
     22264       196  TIP3      H2             22.2106978946        7.5489409686       16.1658384396  TIP3      4               0.0000000000
     22265       197  TIP3      OH2            20.0638027844        2.2437599480       20.7954773830  TIP3      5               0.0000000000
     22266       197  TIP3      H1             19.3524796320        2.5670032429       20.2197019810  TIP3      5               0.0000000000
     22267       197  TIP3      H2             20.1872818261        1.3192485266       20.6005655596  TIP3      5               0.0000000000
     22268       198  TIP3      OH2            16.2212947813        4.3542568633       20.3977104706  TIP3      6               0.0000000000
     22269       198  TIP3      H1             16.1663723688        5.2381137970       20.0265405251  TIP3      6               0.0000000000
     22270       198  TIP3      H2             16.6898258974        3.8728344973       19.7079333160  TIP3      6               0.0000000000
     22271       199  TIP3      OH2            15.5227362218      -11.7096955879       20.7527155385  TIP3      7               0.0000000000
     22272       199  TIP3      H1             15.5691444280      -10.7628900245       20.5989970156  TIP3      7               0.0000000000
     22273       199  TIP3      H2             14.9929700961      -12.0418505545       20.0124401224  TIP3      7               0.0000000000
     22274       200  TIP3      OH2            12.9907837875      -10.1830671232       19.5839060855  TIP3      8               0.0000000000
     22275       200  TIP3      H1             12.6842590091      -10.4927844340       20.4311252412  TIP3      8               0.0000000000
     22276       200  TIP3      H2             13.3254727135      -10.9740663123       19.1443173872  TIP3      8               0.0000000000
     22277       201  TIP3      OH2            11.8267950387      -14.7839148644       19.7213910016  TIP3      9               0.0000000000
     22278       201  TIP3      H1             11.0506786451      -14.7228145490       20.2988033646  TIP3      9               0.0000000000
     22279       201  TIP3      H2             11.6960897141      -15.6047368338       19.2459903153  TIP3      9               0.0000000000
     22280       202  TIP3      OH2            -5.9763163528       16.9967252811       19.2506546416  TIP3      10              0.0000000000
     22281       202  TIP3      H1             -5.1084986948       16.7142438614       19.5764054768  TIP3      10              0.0000000000
     22282       202  TIP3      H2             -6.5783306418       16.4962800676       19.8237609812  TIP3      10              0.0000000000
     22283       203  TIP3      OH2            13.1132411176      -20.0562983015       20.1563277163  TIP3      11              0.0000000000
     22284       203  TIP3      H1             13.3050419748      -19.6587588069       21.0031618687  TIP3      11              0.0000000000
     22285       203  TIP3      H2             13.9525039244      -20.0761228240       19.6809530357  TIP3      11              0.0000000000
     22286       204  TIP3      OH2             9.7544553081      -22.4815792225       20.7509614732  TIP3      12              0.0000000000
     22287       204  TIP3      H1              9.0112495369      -22.6048957005       20.1574582215  TIP3      12              0.0000000000
     22288       204  TIP3      H2             10.0602480540      -21.6621179196       20.3036767346  TIP3      12              0.0000000000
     22289       205  TIP3      OH2             8.6798435296      -20.4606538760       19.4578028098  TIP3      13              0.0000000000
     22290       205  TIP3      H1              7.7617684247      -20.4622226556       19.1857950679  TIP3      13              0.0000000000
     22291       205  TIP3      H2              9.0344108316      -19.8227288643       18.7965900041  TIP3      13              0.0000000000
     22292       206  TIP3      OH2            27.8637906998        2.6827429172       20.0014185934  TIP3      14              0.0000000000
     22293       206  TIP3      H1             28.2364688055        3.4209003252       20.4830593854  TIP3      14              0.0000000000
     22294       206  TIP3      H2             27.9319366688        1.9288851290       20.5935325398  TIP3      14              0.0000000000
     22295       207  TIP3      OH2            -6.1752590226       29.9444666965       18.7889924060  TIP3      15              0.0000000000
     22296       207  TIP3      H1             -5.6772419189       29.1420067957       18.6728209367  TIP3      15              0.0000000000
     22297       207  TIP3      H2             -7.1033276722       29.7170387248       18.8710656444  TIP3      15              0.0000000000
     22298       208  TIP3      OH2            -1.6565525321       28.9955836214       19.3113235793  TIP3      16              0.0000000000
     22299       208  TIP3      H1             -2.2914558871       28.3105941495       19.1111074578  TIP3      16              0.0000000000
     22300       208  TIP3      H2             -0.9227532776       28.4921866704       19.6871250520  TIP3      16              0.0000000000
     22301       209  TIP3      OH2            -3.2141020260       27.6773887108       21.8422486154  TIP3      17              0.0000000000
     22302       209  TIP3      H1             -3.4885834967       27.1569580141       21.0924135031  TIP3      17              0.0000000000
     22303       209  TIP3      H2             -3.8527532380       27.5065557636       22.5321944743  TIP3      17              0.0000000000
     22304       210  TIP3      OH2           -25.1156871730       13.9357250956       19.2295308497  TIP3      18              0.0000000000
     22305       210  TIP3      H1            -24.1667282213       14.0786458842       19.2262051129  TIP3      18              0.0000000000
     22306       210  TIP3      H2            -25.4905153877       14.6426982005       19.7417378044  TIP3      18              0.0000000000
     22307       211  TIP3      OH2           -31.0125918845       -6.0225816164       19.3832801863  TIP3      19              0.0000000000
     22308       211  TIP3      H1            -30.7983880783       -5.5392146918       20.1930671420  TIP3      19              0.0000000000
     22309       211  TIP3      H2            -30.1700145005       -6.2471953999       18.9784830833  TIP3      19              0.0000000000
     22310       212  TIP3      OH2           -30.7524730702       -9.5908005322       18.9675644267  TIP3      20              0.0000000000
     22311       212  TIP3      H1            -31.2262248088       -9.3137641445       19.7640928268  TIP3      20              0.0000000000
     22312       212  TIP3      H2            -30.8825381835      -10.5365612040       18.8912465527  TIP3      20              0.0000000000
     22313       213  TIP3      OH2            30.0364299456       12.1452199219       20.9381413863  TIP3      21              0.0000000000
     22314       213  TIP3      H1             30.5650841348       12.5236686964       20.2438701989  TIP3      21              0.0000000000
     22315       213  TIP3      H2             29.5867538668       12.9102290877       21.3326698046  TIP3      21              0.0000000000
     22316       214  TIP3      OH2            28.1659467649       14.2482692377       19.6666985945  TIP3      22              0.0000000000
     22317       214  TIP3      H1             28.5263707170       14.8969478700       20.2781371071  TIP3      22              0.0000000000
     22318       214  TIP3      H2             27.4235333747       14.7554717139       19.3172373769  TIP3      22              0.0000000000
     22319       215  TIP3      OH2            26.4801297113        8.8758935290       18.2153629372  TIP3      23              0.0000000000
     22320       215  TIP3      H1             25.7969270248        9.4363652699       18.6016003898  TIP3      23              0.0000000000
     22321       215  TIP3      H2             27.2036608863        9.5066658102       18.0817909628  TIP3      23              0.0000000000
     22322       216  TIP3      OH2             8.9691894612      -30.0395651298       21.5035838398  TIP3      24              0.0000000000
     22323       216  TIP3      H1              9.0967953466      -30.2483832096       20.5560464020  TIP3      24              0.0000000000
     22324       216  TIP3      H2              8.8952081381      -30.9223586499       21.8729377011  TIP3      24              0.0000000000
     22325       217  TIP3      OH2             7.8345021404      -26.2353626023       20.0150550697  TIP3      25              0.0000000000
     22326       217  TIP3      H1              8.3751073888      -25.5188161108       19.6588272297  TIP3      25              0.0000000000
     22327       217  TIP3      H2              8.3581574560      -26.5721718105       20.7472471158  TIP3      25              0.0000000000
     22328       218  TIP3      OH2             3.5486343724      -29.5597039205       20.0716469533  TIP3      26              0.0000000000
     22329       218  TIP3      H1              2.8058405195      -29.9659274425       19.5907866813  TIP3      26              0.0000000000
     22330       218  TIP3      H2              3.7081258738      -28.7958883083       19.5140578075  TIP3      26              0.0000000000
     22331       219  TIP3      OH2             0.0347188352      -31.6804573796       20.7349057194  TIP3      27              0.0000000000
     22332       219  TIP3      H1             -0.8217105336      -31.9385929892       21.0425669521  TIP3      27              0.0000000000
     22333       219  TIP3      H2              0.5661451012      -32.4789120839       20.8177655264  TIP3      27              0.0000000000
     22334       220  TIP3      OH2            16.9846838237      -24.6050225913       20.2520269842  TIP3      28            -18.0000000000
     22335       220  TIP3      H1             16.8905645183      -25.5340411799       20.0027738931  TIP3      28              0.0000000000
     22336       220  TIP3      H2             17.8325131109      -24.3952931514       19.8644867552  TIP3      28              0.0000000000
     22337       221  TIP3      OH2            18.8217333875      -28.2015320272       19.8660882563  TIP3      29              0.0000000000
     22338       221  TIP3      H1             18.4975241090      -29.0694440740       20.0924421586  TIP3      29              0.0000000000
     22339       221  TIP3      H2             18.1252660098      -27.7919264618       19.3249139222  TIP3      29              0.0000000000
     22340       222  TIP3      OH2           -20.8899381993       26.0333118842       21.4091371497  TIP3      30              0.0000000000
     22341       222  TIP3      H1            -20.2686014727       25.8006723122       20.6902814336  TIP3      30              0.0000000000
     22342       222  TIP3      H2            -20.6815103346       25.3440655553       22.0605950531  TIP3      30              0.0000000000
     22343       223  TIP3      OH2           -20.4159190255       23.5074884206       20.7730717233  TIP3      31            -31.1800000000
     22344       223  TIP3      H1            -20.9848692054       23.5054164440       19.9857498950  TIP3      31            -31.1200000000
     22345       223  TIP3      H2            -21.0858613114       23.4009257195       21.4523960143  TIP3      31            -31.9100000000
     22346       224  TIP3      OH2           -30.0519006440        6.9576911730       21.0625318981  TIP3      32            -30.8000000000
     22347       224  TIP3      H1            -30.5551293968        6.7349013380       20.2569671994  TIP3      32            -31.1800000000
     22348       224  TIP3      H2            -29.4988017044        7.6747705541       20.7327511831  TIP3      32            -29.8700000000
     22349       225  TIP3      OH2           -33.7961971080        8.3131625931       18.5607510822  TIP3      33              0.0000000000
     22350       225  TIP3      H1            -32.9021723989        7.9763880280       18.6676546896  TIP3      33              0.0000000000
     22351       225  TIP3      H2            -34.3394362781        7.5338300978       18.6494160521  TIP3      33              0.0000000000
     22352       226  TIP3      OH2           -32.5530496461        5.4847441421       21.7535125006  TIP3      34              0.0000000000
     22353       226  TIP3      H1            -32.3850788341        4.8797106725       21.0332200668  TIP3      34              0.0000000000
     22354       226  TIP3      H2            -31.7462583632        6.0232237852       21.7823619872  TIP3      34              0.0000000000
     22355       227  TIP3      OH2             9.9833858484       28.4919083992       20.3430734249  TIP3      35              0.0000000000
     22356       227  TIP3      H1             10.2324642749       28.4807267312       21.2685823825  TIP3      35              0.0000000000
     22357       227  TIP3      H2             10.6758253071       29.0633145419       19.9494325558  TIP3      35              0.0000000000
     22358       228  TIP3      OH2            13.9613001652       31.3329512997       20.1521990152  TIP3      36              0.0000000000
     22359       228  TIP3      H1             14.7994503770       31.0805301118       19.7009155593  TIP3      36              0.0000000000
     22360       228  TIP3      H2             14.2182372159       32.1141859308       20.6337636530  TIP3      36              0.0000000000
     22361       229  TIP3      OH2            11.2376601778       31.4635581813       21.5013431394  TIP3      37              0.0000000000
     22362       229  TIP3      H1             11.7370884948       32.2707555285       21.6262471859  TIP3      37              0.0000000000
     22363       229  TIP3      H2             11.9431153731       30.7842349845       21.4081474970  TIP3      37              0.0000000000
     22364       230  TIP3      OH2            12.8617993369       29.3104758725       21.7210887377  TIP3      38              0.0000000000
     22365       230  TIP3      H1             13.3208093685       29.4672040556       20.8756659031  TIP3      38              0.0000000000
     22366       230  TIP3      H2             13.5905530423       28.9688313053       22.2436091015  TIP3      38              0.0000000000
     22367       231  TIP3      OH2           -26.6123891255      -22.7780080920       21.4711647990  TIP3      39              0.0000000000
     22368       231  TIP3      H1            -26.3442645625      -23.6187826184       21.0605987397  TIP3      39              0.0000000000
     22369       231  TIP3      H2            -27.5441627007      -22.7163736754       21.2680545892  TIP3      39              0.0000000000
     22370       232  TIP3      OH2           -26.4475229183      -24.6453389262       19.8081581841  TIP3      40              0.0000000000
     22371       232  TIP3      H1            -26.2408241711      -24.0462243700       19.0972280132  TIP3      40              0.0000000000
     22372       232  TIP3      H2            -25.8375833122      -25.4207402822       19.7507678444  TIP3      40              0.0000000000
     22373       233  TIP3      OH2           -34.9748572592       -0.0221606281       20.6056956934  TIP3      41              0.0000000000
     22374       233  TIP3      H1            -35.6770686764       -0.6850740708       20.7068028898  TIP3      41              0.0000000000
     22375       233  TIP3      H2            -35.4278934487        0.6950704271       20.1600110675  TIP3      41              0.0000000000
     22376       234  TIP3      OH2           -33.3499841634       -3.8091292719       19.7908297989  TIP3      42              0.0000000000
     22377       234  TIP3      H1            -34.0362190867       -4.4211959861       19.5413441472  TIP3      42              0.0000000000
     22378       234  TIP3      H2            -33.4967276893       -3.0448446928       19.2069423720  TIP3      42              0.0000000000
     22379       235  TIP3      OH2            33.7220217560        6.8752414441       20.8225246572  TIP3      43              0.0000000000
     22380       235  TIP3      H1             34.4337132145        6.7821437695       21.4610051737  TIP3      43              0.0000000000
     22381       235  TIP3      H2             32.9231612219        7.0333787823       21.3384579167  TIP3      43              0.0000000000
     22382       236  TIP3      OH2            -4.2090522223       35.5216484174       19.4077230133  TIP3      44              0.0000000000
     22383       236  TIP3      H1             -3.2645678870       35.3328545632       19.2079655296  TIP3      44              0.0000000000
     22384       236  TIP3      H2             -4.1615752470       36.2330139060       20.0247526620  TIP3      44              0.0000000000
     22385       237  TIP3      OH2             8.0163591732      -35.5943184700       20.7234072935  TIP3      45              0.0000000000
     22386       237  TIP3      H1              7.4456514497      -34.8516234361       20.9204491148  TIP3      45              0.0000000000
     22387       237  TIP3      H2              7.5476150005      -36.0141829102       19.9770878912  TIP3      45              0.0000000000
     22388       238  TIP3      OH2             3.7354301303       35.3513466588       19.4754311564  TIP3      46              0.0000000000
     22389       238  TIP3      H1              3.7225459579       34.8121558451       20.2819530437  TIP3      46              0.0000000000
     22390       238  TIP3      H2              2.9812141895       35.0169827606       18.9865199447  TIP3      46              0.0000000000
     22391       239  TIP3      OH2             5.0438991594      -35.8910649214       21.2709548265  TIP3      47              0.0000000000
     22392       239  TIP3      H1              4.6710057675      -35.6593990214       22.1314595523  TIP3      47              0.0000000000
     22393       239  TIP3      H2              4.2567921886      -36.0502913577       20.7265616570  TIP3      47              0.0000000000
     22394       240  TIP3      OH2            35.9275508761       11.0238925067       20.7166595257  TIP3      48              0.0000000000
     22395       240  TIP3      H1             35.7570798944       11.5316974858       21.5151690354  TIP3      48              0.0000000000
     22396       240  TIP3      H2             35.9671484902       10.0923005863       20.9536713476  TIP3      48              0.0000000000
     22397       241  TIP3      OH2           -31.5790226855      -24.2783446269       20.1294734147  TIP3      49              0.0000000000
     22398       241  TIP3      H1            -32.3497088169      -24.3974006454       19.5882583888  TIP3      49              0.0000000000
     22399       241  TIP3      H2            -31.3926651288      -23.3183737964       20.0795022688  TIP3      49              0.0000000000
     22400       242  TIP3      OH2           -31.5402286347      -21.4636298311       20.5961242776  TIP3      50              0.0000000000
     22401       242  TIP3      H1            -31.0153726647      -20.6743140041       20.7696682220  TIP3      50              0.0000000000
     22402       242  TIP3      H2            -32.3019815586      -21.1791594778       20.0711930802  TIP3      50              0.0000000000
     22403       243  TIP3      OH2           -33.6283342194      -23.4281067496       21.8859126047  TIP3      51              0.0000000000
     22404       243  TIP3      H1            -32.6640312584      -23.4858927799       21.7295918146  TIP3      51              0.0000000000
     22405       243  TIP3      H2            -33.9461056933      -23.7865609213       21.0631975188  TIP3      51              0.0000000000
     22406       244  TIP3      OH2           -35.9272909800      -23.1767665185       19.0582666700  TIP3      52              0.0000000000
     22407       244  TIP3      H1            -36.6079437056      -22.6854538133       18.6156307163  TIP3      52              0.0000000000
     22408       244  TIP3      H2            -36.1278417683      -23.0507704187       19.9936823548  TIP3      52              0.0000000000
     22409       245  TIP3      OH2            26.8929975648       35.2820679168       20.3326362333  TIP3      53              0.0000000000
     22410       245  TIP3      H1             26.1624495121       35.9115796168       20.2560365067  TIP3      53              0.0000000000
     22411       245  TIP3      H2             26.8165195749       35.0068255853       21.2550617162  TIP3      53              0.0000000000
     22412       246  TIP3      OH2           -11.8131173591       12.6518902031      -20.4192843710  TIP3      54              0.0000000000
     22413       246  TIP3      H1            -11.0299127226       12.4945420468      -19.8699528017  TIP3      54              0.0000000000
     22414       246  TIP3      H2            -11.4904014720       13.0882909172      -21.2077172798  TIP3      54              0.0000000000
     22415       247  TIP3      OH2            -9.1872172878       11.0868846357      -21.0937338274  TIP3      55              0.0000000000
     22416       247  TIP3      H1             -9.6231784603       10.2936081304      -20.7856112722  TIP3      55              0.0000000000
     22417       247  TIP3      H2             -8.4755132143       11.2432005468      -20.4865661773  TIP3      55              0.0000000000
     22418       248  TIP3      OH2           -10.0917720186       15.5993003845      -19.9235939255  TIP3      56              0.0000000000
     22419       248  TIP3      H1            -11.0133758513       15.3529556914      -20.0472219743  TIP3      56              0.0000000000
     22420       248  TIP3      H2             -9.7741627023       14.8970125022      -19.3468468739  TIP3      56              0.0000000000
     22421       249  TIP3      OH2           -17.5959810712       -1.9541372610      -19.0241195432  TIP3      57              0.0000000000
     22422       249  TIP3      H1            -17.4891952463       -1.8356672385      -19.9675216328  TIP3      57              0.0000000000
     22423       249  TIP3      H2            -17.2189681948       -1.1449711770      -18.6363004276  TIP3      57              0.0000000000
     22424       250  TIP3      OH2           -16.3678785366       -0.5424711577      -21.3972342012  TIP3      58              0.0000000000
     22425       250  TIP3      H1            -16.5656291465        0.3811312307      -21.6181892868  TIP3      58              0.0000000000
     22426       250  TIP3      H2            -15.5579995867       -0.4781301197      -20.8819917913  TIP3      58              0.0000000000
     22427       251  TIP3      OH2           -16.2335288168        3.3872497954      -19.9770536900  TIP3      59              0.0000000000
     22428       251  TIP3      H1            -16.6582554626        2.9100267645      -19.2501484399  TIP3      59              0.0000000000
     22429       251  TIP3      H2            -16.6707968060        3.0038097031      -20.7431058157  TIP3      59              0.0000000000
     22430       252  TIP3      OH2            18.7654512485       -3.0765670301      -19.0938536268  TIP3      60            -22.7400000000
     22431       252  TIP3      H1             18.9653513161       -2.7073906104      -19.9631025692  TIP3      60            -22.7000000000
     22432       252  TIP3      H2             17.8752968022       -2.7032714811      -18.9316101910  TIP3      60            -23.6300000000
     22433       253  TIP3      OH2            17.5419484609        0.5481946325      -20.1748744897  TIP3      61              0.0000000000
     22434       253  TIP3      H1             18.1027653618        1.3029275088      -19.9407354299  TIP3      61              0.0000000000
     22435       253  TIP3      H2             17.1412849316        0.8419593384      -20.9995493260  TIP3      61              0.0000000000
     22436       254  TIP3      OH2            14.0507346269       -1.7074492996      -19.7009960558  TIP3      62              0.0000000000
     22437       254  TIP3      H1             14.9467323057       -1.7021245389      -19.3179665957  TIP3      62              0.0000000000
     22438       254  TIP3      H2             14.1211014440       -1.0851620063      -20.4110320126  TIP3      62              0.0000000000
     22439       255  TIP3      OH2             8.6242949479      -15.3940395204      -21.4266448694  TIP3      63              0.0000000000
     22440       255  TIP3      H1              8.7118801066      -15.2607762515      -20.4677936526  TIP3      63              0.0000000000
     22441       255  TIP3      H2              8.2993659102      -14.5534384155      -21.7539576533  TIP3      63              0.0000000000
     22442       256  TIP3      OH2           -19.0294890751        8.7790067501      -20.1866040028  TIP3      64              0.0000000000
     22443       256  TIP3      H1            -18.3485876995        8.7240913469      -19.4982376409  TIP3      64              0.0000000000
     22444       256  TIP3      H2            -18.7144991408        8.1761157952      -20.8563820823  TIP3      64              0.0000000000
     22445       257  TIP3      OH2           -18.7356829969      -17.2221850915      -19.4876708612  TIP3      65              0.0000000000
     22446       257  TIP3      H1            -18.1811561424      -16.4327602725      -19.6146319932  TIP3      65              0.0000000000
     22447       257  TIP3      H2            -18.0757781598      -17.9209948557      -19.4820510046  TIP3      65              0.0000000000
     22448       258  TIP3      OH2           -12.2132108585       20.6426856543      -19.6414005868  TIP3      66              0.0000000000
     22449       258  TIP3      H1            -11.9108251468       19.9959455211      -20.3143937304  TIP3      66              0.0000000000
     22450       258  TIP3      H2            -12.6935466798       21.2776426126      -20.1740139742  TIP3      66              0.0000000000
     22451       259  TIP3      OH2            -8.4124058550       19.3670640229      -20.5089229311  TIP3      67              0.0000000000
     22452       259  TIP3      H1             -8.7126794839       20.0012507153      -19.8431884169  TIP3      67              0.0000000000
     22453       259  TIP3      H2             -9.0534005015       19.5228543125      -21.2132769572  TIP3      67              0.0000000000
     22454       260  TIP3      OH2           -10.6581068692       20.3283378699      -21.8870397241  TIP3      68              0.0000000000
     22455       260  TIP3      H1            -10.6087082644       19.5894963970      -22.5138267237  TIP3      68              0.0000000000
     22456       260  TIP3      H2            -10.3128454522       21.0453310517      -22.4132404001  TIP3      68              0.0000000000
     22457       261  TIP3      OH2            -8.9657103353       23.1965844704      -20.8323629030  TIP3      69              0.0000000000
     22458       261  TIP3      H1             -9.8683513114       23.2358794068      -21.1491666723  TIP3      69              0.0000000000
     22459       261  TIP3      H2             -9.0040550715       22.6826803420      -20.0070305157  TIP3      69              0.0000000000
     22460       262  TIP3      OH2           -16.8751165911       14.6760174161      -20.1978845081  TIP3      70              0.0000000000
     22461       262  TIP3      H1            -17.3378374549       14.6470843552      -21.0361325650  TIP3      70              0.0000000000
     22462       262  TIP3      H2            -16.0248638907       14.2644910589      -20.4137099623  TIP3      70              0.0000000000
     22463       263  TIP3      OH2           -15.2899090306       18.3726505659      -20.6804720157  TIP3      71              0.0000000000
     22464       263  TIP3      H1            -15.6919713338       18.0933434737      -19.8249091585  TIP3      71              0.0000000000
     22465       263  TIP3      H2            -15.7351006962       17.7549282920      -21.2540937297  TIP3      71              0.0000000000
     22466       264  TIP3      OH2            23.9497330974       -2.3867935875      -19.4996673558  TIP3      72              0.0000000000
     22467       264  TIP3      H1             23.5446963934       -3.1312151708      -19.0024349060  TIP3      72              0.0000000000
     22468       264  TIP3      H2             24.8891482466       -2.5313553796      -19.3034836448  TIP3      72              0.0000000000
     22469       265  TIP3      OH2            24.8091192494       -6.2762389034      -20.3125110518  TIP3      73              0.0000000000
     22470       265  TIP3      H1             25.6716609293       -6.0318818919      -20.6489408080  TIP3      73              0.0000000000
     22471       265  TIP3      H2             24.9810486791       -6.1542036184      -19.3649561819  TIP3      73              0.0000000000
     22472       266  TIP3      OH2            24.7677830710       -4.2368956550      -21.7956588026  TIP3      74              0.0000000000
     22473       266  TIP3      H1             25.5422418860       -4.7308691679      -22.1109657167  TIP3      74              0.0000000000
     22474       266  TIP3      H2             25.0229836191       -4.0598619738      -20.8781637472  TIP3      74              0.0000000000
     22475       267  TIP3      OH2            20.0863649102      -11.8757227871      -20.4468773650  TIP3      75              0.0000000000
     22476       267  TIP3      H1             20.9670994839      -12.0718850843      -20.7714872207  TIP3      75              0.0000000000
     22477       267  TIP3      H2             19.5259752167      -11.9610881406      -21.2380371232  TIP3      75              0.0000000000
     22478       268  TIP3      OH2            23.3747512524      -10.0160638553      -19.8349772173  TIP3      76              0.0000000000
     22479       268  TIP3      H1             23.0752730364      -10.7286170034      -20.4338926164  TIP3      76              0.0000000000
     22480       268  TIP3      H2             22.7034631797       -9.3558088291      -20.0133494616  TIP3      76              0.0000000000
     22481       269  TIP3      OH2            22.8475850867      -12.3217905158      -21.2823341117  TIP3      77              0.0000000000
     22482       269  TIP3      H1             22.8312398796      -12.6164209922      -20.3470737891  TIP3      77              0.0000000000
     22483       269  TIP3      H2             23.0173789212      -13.1279391868      -21.7895270347  TIP3      77              0.0000000000
     22484       270  TIP3      OH2            25.5686042609      -13.8315069518      -19.8607042997  TIP3      78              0.0000000000
     22485       270  TIP3      H1             24.9192502109      -14.0520726083      -20.5176377840  TIP3      78              0.0000000000
     22486       270  TIP3      H2             25.7362181025      -14.6443114535      -19.3886852427  TIP3      78              0.0000000000
     22487       271  TIP3      OH2            14.9688821137       20.5030919134      -19.2105876764  TIP3      79              0.0000000000
     22488       271  TIP3      H1             15.7624967251       20.8204146396      -18.7578421446  TIP3      79              0.0000000000
     22489       271  TIP3      H2             14.5333639569       21.3205612422      -19.4554346864  TIP3      79              0.0000000000
     22490       272  TIP3      OH2            29.6569565825       -1.1752153742      -21.4215075971  TIP3      80              0.0000000000
     22491       272  TIP3      H1             29.0164525897       -0.4575436369      -21.4311871230  TIP3      80              0.0000000000
     22492       272  TIP3      H2             29.6579545608       -1.4014720935      -20.4814530549  TIP3      80              0.0000000000
     22493       273  TIP3      OH2            32.9992591805       -1.4411310394      -18.2426893855  TIP3      81              0.0000000000
     22494       273  TIP3      H1             33.6799437350       -0.9324458304      -17.7862723233  TIP3      81              0.0000000000
     22495       273  TIP3      H2             33.4879897883       -1.9026739041      -18.9224203941  TIP3      81              0.0000000000
     22496       274  TIP3      OH2           -30.2319481551       -1.8006549059      -20.1399118941  TIP3      82              0.0000000000
     22497       274  TIP3      H1            -29.4301103497       -1.3082659938      -19.9221833242  TIP3      82              0.0000000000
     22498       274  TIP3      H2            -30.8528746229       -1.2568081572      -19.6409158773  TIP3      82              0.0000000000
     22499       275  TIP3      OH2           -28.8756292586        1.0998067440      -20.8862429303  TIP3      83              0.0000000000
     22500       275  TIP3      H1            -28.0546350924        0.5758918891      -20.8463836962  TIP3      83              0.0000000000
     22501       275  TIP3      H2            -28.6109184918        1.9111898572      -20.4612444014  TIP3      83              0.0000000000
     22502       276  TIP3      OH2            -2.4256932221       31.6189374394      -20.2456371113  TIP3      84              0.0000000000
     22503       276  TIP3      H1             -2.2540619085       30.6986755988      -20.5030060581  TIP3      84              0.0000000000
     22504       276  TIP3      H2             -1.6892617987       32.1088846340      -20.6478407843  TIP3      84              0.0000000000
     22505       277  TIP3      OH2           -21.8447048905       31.5792590939      -19.0392376670  TIP3      85              0.0000000000
     22506       277  TIP3      H1            -22.6476591524       32.0988460018      -19.0822930412  TIP3      85              0.0000000000
     22507       277  TIP3      H2            -22.1421861788       30.6660002966      -18.8666622747  TIP3      85              0.0000000000
     22508       278  TIP3      OH2           -21.9909013230       26.6950207596      -19.9317756764  TIP3      86              0.0000000000
     22509       278  TIP3      H1            -22.3092713932       26.4634698344      -20.8102937226  TIP3      86              0.0000000000
     22510       278  TIP3      H2            -21.0325366446       26.6667213439      -20.0328521059  TIP3      86              0.0000000000
     22511       279  TIP3      OH2           -17.7315652130       31.0435880142      -19.8146008027  TIP3      87              0.0000000000
     22512       279  TIP3      H1            -17.6890407048       31.8433648242      -19.2659085292  TIP3      87              0.0000000000
     22513       279  TIP3      H2            -17.1355824841       30.3944340815      -19.4028454234  TIP3      87              0.0000000000
     22514       280  TIP3      OH2            19.0241605197      -35.0897380988      -19.7734931935  TIP3      88              0.0000000000
     22515       280  TIP3      H1             19.1804903546      -35.7232555873      -19.0713578998  TIP3      88              0.0000000000
     22516       280  TIP3      H2             18.1792783689      -34.6964882406      -19.4384089043  TIP3      88              0.0000000000
     22517       281  TIP3      OH2            17.8476989028      -31.0723427273      -20.3092680063  TIP3      89              0.0000000000
     22518       281  TIP3      H1             16.9254229810      -31.3386965910      -20.2740695155  TIP3      89              0.0000000000
     22519       281  TIP3      H2             17.9300788467      -30.4442298464      -21.0332584081  TIP3      89              0.0000000000
     22520       282  TIP3      OH2            14.2063319688      -33.7728833603      -19.1524649304  TIP3      90              0.0000000000
     22521       282  TIP3      H1             13.9626667206      -33.1720713013      -19.8584675877  TIP3      90              0.0000000000
     22522       282  TIP3      H2             13.5671746886      -34.4946365486      -19.2765675637  TIP3      90              0.0000000000
     22523       283  TIP3      OH2            17.3429123159      -33.7527083140      -21.8763470709  TIP3      91              0.0000000000
     22524       283  TIP3      H1             16.7848057908      -33.1006770832      -21.4656195349  TIP3      91              0.0000000000
     22525       283  TIP3      H2             18.1186090166      -33.7578292727      -21.3016620734  TIP3      91              0.0000000000
     22526       284  TIP3      OH2           -29.3928921884       24.5300698342      -21.8322555632  TIP3      92              0.0000000000
     22527       284  TIP3      H1            -29.9761134568       23.7855911456      -21.9999571308  TIP3      92              0.0000000000
     22528       284  TIP3      H2            -29.8635156091       25.0269155950      -21.1545280590  TIP3      92              0.0000000000
     22529       285  TIP3      OH2           -27.3570521923       25.0107999982      -19.7519726189  TIP3      93              0.0000000000
     22530       285  TIP3      H1            -27.8650107372       24.9010155255      -20.5624119032  TIP3      93              0.0000000000
     22531       285  TIP3      H2            -27.8968404837       24.5143940031      -19.1155742737  TIP3      93              0.0000000000
     22532       286  TIP3      OH2           -32.2202869242      -16.4957028634      -17.5928637295  TIP3      94              0.0000000000
     22533       286  TIP3      H1            -32.1342742951      -15.9002925179      -16.8581090421  TIP3      94              0.0000000000
     22534       286  TIP3      H2            -31.3301485363      -16.4168050320      -17.9508531342  TIP3      94              0.0000000000
     22535       287  TIP3      OH2           -33.3499828966      -20.1455053210      -21.8064951537  TIP3      95              0.0000000000
     22536       287  TIP3      H1            -34.2427251679      -20.1600677681      -21.4317267802  TIP3      95              0.0000000000
     22537       287  TIP3      H2            -33.4670540405      -20.3502375149      -22.7270234599  TIP3      95              0.0000000000
     22538       288  TIP3      OH2           -33.0107499361      -22.5183154032      -20.1162851707  TIP3      96              0.0000000000
     22539       288  TIP3      H1            -32.5247307550      -22.1578125825      -20.8651912980  TIP3      96              0.0000000000
     22540       288  TIP3      H2            -32.4410679157      -23.2475587158      -19.8135746046  TIP3      96              0.0000000000
     22541       289  TIP3      OH2           -34.7564119279      -17.7871319272      -19.6091531706  TIP3      97              0.0000000000
     22542       289  TIP3      H1            -34.5563101441      -18.5320739547      -19.0122730532  TIP3      97              0.0000000000
     22543       289  TIP3      H2            -35.2153145315      -18.2046456426      -20.3222331070  TIP3      97              0.0000000000
     22544       290  TIP3      OH2           -33.3252665415      -36.0362567395      -19.1435002574  TIP3      98              0.0000000000
     22545       290  TIP3      H1            -33.0250175108      -36.6628901570      -19.7971420057  TIP3      98              0.0000000000
     22546       290  TIP3      H2            -34.2741483279      -36.2531646812      -19.0961945926  TIP3      98              0.0000000000
     22547       291  TIP3      OH2           -24.6808316326      -26.3760693601       26.7103996159  TIP3      99              0.0000000000
     22548       291  TIP3      H1            -24.6740149193      -25.3986137257       26.6591284170  TIP3      99              0.0000000000
     22549       291  TIP3      H2            -25.3941847518      -26.5988102241       26.0910738436  TIP3      99              0.0000000000
     22550       292  TIP3      OH2           -25.8214240368      -27.1244920984       30.2042159280  TIP3      100             0.0000000000
     22551       292  TIP3      H1            -25.8217230896      -27.7736696818       30.9194495463  TIP3      100             0.0000000000
     22552       292  TIP3      H2            -26.1585950541      -27.6327009076       29.4465068156  TIP3      100             0.0000000000
     22553       293  TIP3      OH2           -33.4063862212      -27.4593479004       31.7210301398  TIP3      101             0.0000000000
     22554       293  TIP3      H1            -33.3453172502      -28.1326346447       32.4329184144  TIP3      101             0.0000000000
     22555       293  TIP3      H2            -32.7050964615      -26.8534778263       31.9971170545  TIP3      101             0.0000000000
     22556       294  TIP3      OH2           -22.0009314196      -24.1940032688       28.5547789609  TIP3      102             0.0000000000
     22557       294  TIP3      H1            -22.5674889185      -24.8696139467       28.9562892656  TIP3      102             0.0000000000
     22558       294  TIP3      H2            -22.1486296801      -23.4489004472       29.1606945233  TIP3      102             0.0000000000
     22559       295  TIP3      OH2           -32.5569336300      -22.9980473544       30.2596428010  TIP3      103             0.0000000000
     22560       295  TIP3      H1            -32.8462563806      -23.8740118792       29.9344335490  TIP3      103             0.0000000000
     22561       295  TIP3      H2            -31.5949723162      -23.1841548259       30.3138265877  TIP3      103             0.0000000000
     22562       296  TIP3      OH2           -35.5943361907      -29.4138462350       25.4126423771  TIP3      104             0.0000000000
     22563       296  TIP3      H1            -36.1015550841      -28.6322572242       25.7165917693  TIP3      104             0.0000000000
     22564       296  TIP3      H2            -36.3594820759      -29.9848357242       25.2724284957  TIP3      104             0.0000000000
     22565       297  TIP3      OH2           -35.2109090125      -27.2624160803       27.8368771504  TIP3      105             0.0000000000
     22566       297  TIP3      H1            -34.9208456501      -28.0301131493       28.3551629721  TIP3      105             0.0000000000
     22567       297  TIP3      H2            -34.4753559898      -27.1039819957       27.2344603839  TIP3      105             0.0000000000
     22568       298  TIP3      OH2           -25.0757961483      -19.0414495898       28.6939194801  TIP3      106             0.0000000000
     22569       298  TIP3      H1            -24.3711572382      -19.6859232480       28.4233126756  TIP3      106             0.0000000000
     22570       298  TIP3      H2            -25.1889514312      -19.3385883983       29.6049337042  TIP3      106             0.0000000000
     22571       299  TIP3      OH2           -27.4380255904      -24.7254158423       30.6788717951  TIP3      107             0.0000000000
     22572       299  TIP3      H1            -27.0985853647      -25.3506737585       30.0177766870  TIP3      107             0.0000000000
     22573       299  TIP3      H2            -26.6231380205      -24.5583862144       31.1835754278  TIP3      107             0.0000000000
     22574       300  TIP3      OH2           -18.8485477204      -33.0668105112       31.3993169573  TIP3      108             0.0000000000
     22575       300  TIP3      H1            -18.6544043145      -32.4924106965       32.1759576238  TIP3      108             0.0000000000
     22576       300  TIP3      H2            -18.2849701923      -32.6410057089       30.7389408956  TIP3      108             0.0000000000
     22577       301  TIP3      OH2           -24.2649482435      -30.2559875786       31.0015663027  TIP3      109             0.0000000000
     22578       301  TIP3      H1            -24.1118380501      -31.2210983926       31.0014148765  TIP3      109             0.0000000000
     22579       301  TIP3      H2            -24.3744906844      -30.1094788815       30.0402030044  TIP3      109             0.0000000000
     22580       302  TIP3      OH2           -31.1418875644      -32.1468518040       28.2179340463  TIP3      110             0.0000000000
     22581       302  TIP3      H1            -31.0335375511      -31.3225115331       27.7064316291  TIP3      110             0.0000000000
     22582       302  TIP3      H2            -31.5347062993      -32.7236358074       27.5307338414  TIP3      110             0.0000000000
     22583       303  TIP3      OH2           -23.3968110998      -32.1096275085       26.5804909034  TIP3      111             0.0000000000
     22584       303  TIP3      H1            -22.7383610091      -32.3700917019       27.2630315973  TIP3      111             0.0000000000
     22585       303  TIP3      H2            -22.8737798910      -31.5073415506       26.0354904850  TIP3      111             0.0000000000
     22586       304  TIP3      OH2           -34.5601153311      -29.8272368514       28.8860621474  TIP3      112             0.0000000000
     22587       304  TIP3      H1            -33.8383985124      -30.3058223754       29.3476250007  TIP3      112             0.0000000000
     22588       304  TIP3      H2            -34.3867419990      -30.1142747557       27.9771396265  TIP3      112             0.0000000000
     22589       305  TIP3      OH2           -29.3848258149      -28.2076178520       28.2843119701  TIP3      113             0.0000000000
     22590       305  TIP3      H1            -28.6985854701      -28.7864284129       28.6587762670  TIP3      113             0.0000000000
     22591       305  TIP3      H2            -29.8813688816      -28.8521668061       27.7408079761  TIP3      113             0.0000000000
     22592       306  TIP3      OH2           -18.3770327949      -31.6588716941       33.6870633897  TIP3      114             0.0000000000
     22593       306  TIP3      H1            -19.0059620471      -30.9149102978       33.5722216876  TIP3      114             0.0000000000
     22594       306  TIP3      H2            -18.3814436090      -31.7649659434       34.6404389701  TIP3      114             0.0000000000
     22595       307  TIP3      OH2           -32.2066939718      -33.2211670225       32.2279985073  TIP3      115             0.0000000000
     22596       307  TIP3      H1            -32.5442106633      -32.6697271448       31.4923207297  TIP3      115             0.0000000000
     22597       307  TIP3      H2            -32.9085311477      -33.0407321132       32.9068896206  TIP3      115             0.0000000000
     22598       308  TIP3      OH2           -24.9610173629      -23.7735895246       25.7905997121  TIP3      116             0.0000000000
     22599       308  TIP3      H1            -25.2631320090      -24.0231682508       24.9016116763  TIP3      116             0.0000000000
     22600       308  TIP3      H2            -25.2736619194      -22.8460324816       25.8324353026  TIP3      116             0.0000000000
     22601       309  TIP3      OH2           -29.7074185154      -25.6225095195       32.4835473628  TIP3      117             0.0000000000
     22602       309  TIP3      H1            -30.4271239188      -24.9923707118       32.7068930728  TIP3      117             0.0000000000
     22603       309  TIP3      H2            -29.0131759867      -25.0162230845       32.1895362901  TIP3      117             0.0000000000
     22604       310  TIP3      OH2           -21.5642755870      -32.7843133259       28.5233976008  TIP3      118             0.0000000000
     22605       310  TIP3      H1            -21.8618156978      -33.4716647208       29.1268238813  TIP3      118             0.0000000000
     22606       310  TIP3      H2            -20.9501286639      -32.2936484287       29.0950454790  TIP3      118             0.0000000000
     22607       311  TIP3      OH2           -32.7046970306      -31.3861741179       30.2719339702  TIP3      119             0.0000000000
     22608       311  TIP3      H1            -32.0656357384      -30.7225097449       30.6153364044  TIP3      119             0.0000000000
     22609       311  TIP3      H2            -32.1637300032      -31.8030120241       29.5488315405  TIP3      119             0.0000000000
     22610       312  TIP3      OH2           -31.2967683002      -23.6325122744       33.2878820288  TIP3      120             0.0000000000
     22611       312  TIP3      H1            -31.3387856586      -22.7101934626       32.9700209209  TIP3      120             0.0000000000
     22612       312  TIP3      H2            -32.1740980322      -23.7111365023       33.7348146125  TIP3      120             0.0000000000
     22613       313  TIP3      OH2           -35.3882274833      -23.9429660042       24.1097640245  TIP3      121             0.0000000000
     22614       313  TIP3      H1            -35.3193091375      -23.6785856840       23.1887339424  TIP3      121             0.0000000000
     22615       313  TIP3      H2            -35.0839961701      -23.1578454807       24.6042096140  TIP3      121             0.0000000000
     22616       314  TIP3      OH2           -21.5810390129      -22.3383600668       30.8068349872  TIP3      122             0.0000000000
     22617       314  TIP3      H1            -22.5495908255      -22.2316797556       30.9814236926  TIP3      122             0.0000000000
     22618       314  TIP3      H2            -21.3422324333      -21.3996942275       30.6707209352  TIP3      122             0.0000000000
     22619       315  TIP3      OH2           -21.2323942235      -34.0514268697       32.2968434062  TIP3      123             0.0000000000
     22620       315  TIP3      H1            -21.9841845991      -33.4634548775       32.1502086857  TIP3      123             0.0000000000
     22621       315  TIP3      H2            -20.5450057464      -33.6407833889       31.7325372251  TIP3      123             0.0000000000
     22622       316  TIP3      OH2           -28.3372148102      -35.9261016638       29.5386302401  TIP3      124             0.0000000000
     22623       316  TIP3      H1            -28.3462233953      -36.8819501470       29.7029463575  TIP3      124             0.0000000000
     22624       316  TIP3      H2            -29.1248855910      -35.6612844233       30.0458879257  TIP3      124             0.0000000000
     22625       317  TIP3      OH2           -23.3153953929      -20.5448546192       27.4793637372  TIP3      125             0.0000000000
     22626       317  TIP3      H1            -22.9270732746      -21.2658086410       26.9494423528  TIP3      125             0.0000000000
     22627       317  TIP3      H2            -22.9035770500      -19.7711361169       27.0267333904  TIP3      125             0.0000000000
     22628       318  TIP3      OH2           -21.9801311815      -22.6912052067       25.9220377908  TIP3      126             0.0000000000
     22629       318  TIP3      H1            -22.4659126719      -23.2946858789       25.3211426617  TIP3      126             0.0000000000
     22630       318  TIP3      H2            -22.1302421477      -23.1203564352       26.7818110523  TIP3      126             0.0000000000
     22631       319  TIP3      OH2           -20.5083584652      -24.0278648814       34.4513353500  TIP3      127             0.0000000000
     22632       319  TIP3      H1            -20.3623018228      -24.6883220236       33.7426212325  TIP3      127             0.0000000000
     22633       319  TIP3      H2            -20.2976682229      -23.1797730396       34.0238135202  TIP3      127             0.0000000000
     22634       320  TIP3      OH2           -25.9931216999      -27.1515671556       24.2026405596  TIP3      128             0.0000000000
     22635       320  TIP3      H1            -26.7101634838      -26.5811575718       23.8445935681  TIP3      128             0.0000000000
     22636       320  TIP3      H2            -25.3157591623      -27.0612905559       23.4976834793  TIP3      128             0.0000000000
     22637       321  TIP3      OH2           -18.6110563550      -27.7101644453       32.5114343177  TIP3      129             0.0000000000
     22638       321  TIP3      H1            -19.2842356292      -27.0036865875       32.5556704758  TIP3      129             0.0000000000
     22639       321  TIP3      H2            -18.1307818133      -27.4965662274       31.6953229939  TIP3      129             0.0000000000
     22640       322  TIP3      OH2           -22.5624104979      -26.9447820093       25.1664363148  TIP3      130             0.0000000000
     22641       322  TIP3      H1            -23.3072765057      -26.6759874058       25.7583117468  TIP3      130             0.0000000000
     22642       322  TIP3      H2            -22.0905195414      -27.6006636214       25.7055563745  TIP3      130             0.0000000000
     22643       323  TIP3      OH2           -22.6348245686      -28.7672039796       34.2682376148  TIP3      131             0.0000000000
     22644       323  TIP3      H1            -22.6271574618      -27.9446216865       34.7860609097  TIP3      131             0.0000000000
     22645       323  TIP3      H2            -23.2628714674      -28.4756770369       33.5749442032  TIP3      131             0.0000000000
     22646       324  TIP3      OH2           -30.9382993651      -26.2638956156       27.0635148558  TIP3      132             0.0000000000
     22647       324  TIP3      H1            -31.2774990929      -26.6560641842       26.2229771328  TIP3      132             0.0000000000
     22648       324  TIP3      H2            -30.3284884236      -26.9631689508       27.3915583153  TIP3      132             0.0000000000
     22649       325  TIP3      OH2           -29.6071669827      -22.8460405021       29.7131051892  TIP3      133             0.0000000000
     22650       325  TIP3      H1            -29.6492646475      -23.4258481213       28.9417758112  TIP3      133             0.0000000000
     22651       325  TIP3      H2            -28.8480522126      -23.2316384187       30.1932363131  TIP3      133             0.0000000000
     22652       326  TIP3      OH2           -30.5920550952      -27.5295584861       30.7208875343  TIP3      134             0.0000000000
     22653       326  TIP3      H1            -30.0577019346      -27.4199003259       29.9114366571  TIP3      134             0.0000000000
     22654       326  TIP3      H2            -30.2303977817      -26.8473506201       31.3299983377  TIP3      134             0.0000000000
     22655       327  TIP3      OH2           -24.1787989716      -21.9537540996       31.4330120383  TIP3      135             0.0000000000
     22656       327  TIP3      H1            -24.4914175901      -21.3179404613       32.0835608144  TIP3      135             0.0000000000
     22657       327  TIP3      H2            -24.4624703803      -22.8067528430       31.8364735553  TIP3      135             0.0000000000
     22658       328  TIP3      OH2           -29.6685957364      -23.0962252932       35.4153693452  TIP3      136             0.0000000000
     22659       328  TIP3      H1            -30.0829325613      -22.3543492899       35.9034720616  TIP3      136             0.0000000000
     22660       328  TIP3      H2            -30.3383451417      -23.2916264856       34.7168537695  TIP3      136             0.0000000000
     22661       329  TIP3      OH2           -23.7089721223      -27.7813441671       22.8452276008  TIP3      137             0.0000000000
     22662       329  TIP3      H1            -23.1755897358      -27.5359010047       23.6305169229  TIP3      137             0.0000000000
     22663       329  TIP3      H2            -23.3814477129      -27.2206784512       22.1160042785  TIP3      137             0.0000000000
     22664       330  TIP3      OH2           -32.7300823536      -26.9229166891       34.5956837825  TIP3      138             0.0000000000
     22665       330  TIP3      H1            -32.6843296507      -26.2410241802       35.2882072367  TIP3      138             0.0000000000
     22666       330  TIP3      H2            -33.6691435115      -26.8355300785       34.3609566401  TIP3      138             0.0000000000
     22667       331  TIP3      OH2           -26.0936076094      -21.0477076449       26.4587437842  TIP3      139             0.0000000000
     22668       331  TIP3      H1            -25.4578308387      -20.6718606882       27.0799701261  TIP3      139             0.0000000000
     22669       331  TIP3      H2            -26.4226104048      -20.3452792280       25.8723741311  TIP3      139             0.0000000000
     22670       332  TIP3      OH2           -31.4214092884      -21.0714721989       36.1584432890  TIP3      140             0.0000000000
     22671       332  TIP3      H1            -31.5009759752      -21.1494038657       35.1891934772  TIP3      140             0.0000000000
     22672       332  TIP3      H2            -32.3538069908      -21.1969919444       36.4264984859  TIP3      140             0.0000000000
     22673       333  TIP3      OH2           -31.9631830033      -27.2737633035       24.6575534470  TIP3      141             0.0000000000
     22674       333  TIP3      H1            -32.2490075452      -26.4644654037       24.1979201974  TIP3      141             0.0000000000
     22675       333  TIP3      H2            -32.6605820691      -27.9076647779       24.4555602806  TIP3      141             0.0000000000
     22676       334  TIP3      OH2           -35.2985545867      -24.9619042727       33.3229954129  TIP3      142             0.0000000000
     22677       334  TIP3      H1            -36.0737938394      -24.8506113308       32.7343708476  TIP3      142             0.0000000000
     22678       334  TIP3      H2            -35.6624618365      -25.7469555493       33.7890621561  TIP3      142             0.0000000000
     22679       335  TIP3      OH2           -35.8074927837      -21.9892263289       30.1587412054  TIP3      143             0.0000000000
     22680       335  TIP3      H1            -34.9820812487      -22.4077524986       30.4122027772  TIP3      143             0.0000000000
     22681       335  TIP3      H2            -36.1186221230      -21.6233722631       31.0116306921  TIP3      143             0.0000000000
     22682       336  TIP3      OH2           -17.9160086348      -21.3722139880       35.9990352600  TIP3      144             0.0000000000
     22683       336  TIP3      H1            -17.9900671702      -22.3345816244       36.0366135967  TIP3      144             0.0000000000
     22684       336  TIP3      H2            -18.7629574404      -21.1314578219       36.4399809030  TIP3      144             0.0000000000
     22685       337  TIP3      OH2           -26.9350599080      -21.8402372414       34.8997945030  TIP3      145             0.0000000000
     22686       337  TIP3      H1            -26.8758868805      -20.9978886236       35.4087913238  TIP3      145             0.0000000000
     22687       337  TIP3      H2            -27.8078071278      -22.1990405402       35.1514583359  TIP3      145             0.0000000000
     22688       338  TIP3      OH2           -26.6418055328      -17.9762814457       24.7982367954  TIP3      146             0.0000000000
     22689       338  TIP3      H1            -26.5362803840      -18.2303379290       23.8343318966  TIP3      146             0.0000000000
     22690       338  TIP3      H2            -26.4336340836      -17.0379041255       24.7393986016  TIP3      146             0.0000000000
     22691       339  TIP3      OH2           -32.8469466325      -19.2007167303       26.5252303281  TIP3      147             0.0000000000
     22692       339  TIP3      H1            -32.7051251764      -19.6495727531       27.3815346749  TIP3      147             0.0000000000
     22693       339  TIP3      H2            -33.6527637953      -19.6544886339       26.2132842569  TIP3      147             0.0000000000
     22694       340  TIP3      OH2           -23.7355022048      -18.8508422674       24.6704941800  TIP3      148             0.0000000000
     22695       340  TIP3      H1            -24.6809806224      -18.9408418114       24.4580217819  TIP3      148             0.0000000000
     22696       340  TIP3      H2            -23.5327224279      -19.7452333198       24.9367168394  TIP3      148             0.0000000000
     22697       341  TIP3      OH2           -20.7443811744      -29.9271632786       36.5079704150  TIP3      149             0.0000000000
     22698       341  TIP3      H1            -21.2177697004      -29.4680465494       35.7941417570  TIP3      149             0.0000000000
     22699       341  TIP3      H2            -20.7566652860      -30.8453383437       36.1993497244  TIP3      149             0.0000000000
     22700       342  TIP3      OH2           -33.5902055396      -23.4192061644       34.5791615842  TIP3      150             0.0000000000
     22701       342  TIP3      H1            -33.4053932779      -23.8678399660       35.4273768169  TIP3      150             0.0000000000
     22702       342  TIP3      H2            -34.4163357397      -23.8696961825       34.2931789831  TIP3      150             0.0000000000
     22703       343  TIP3      OH2           -30.9444396836      -35.0531228344       30.4902542939  TIP3      151             0.0000000000
     22704       343  TIP3      H1            -31.8398913733      -35.1269708184       30.0975786968  TIP3      151             0.0000000000
     22705       343  TIP3      H2            -31.0593571601      -34.2015102795       30.9413119565  TIP3      151             0.0000000000
     22706       344  TIP3      OH2           -26.3005509944      -35.3382691971       33.8661183758  TIP3      152             0.0000000000
     22707       344  TIP3      H1            -25.8807636441      -35.7565928910       34.6178217464  TIP3      152             0.0000000000
     22708       344  TIP3      H2            -27.2539745284      -35.4440560955       34.0321459271  TIP3      152             0.0000000000
     22709       345  TIP3      OH2           -22.9900378290      -31.5580290640       34.7346355200  TIP3      153             0.0000000000
     22710       345  TIP3      H1            -23.5759649768      -31.7098994004       35.5113471440  TIP3      153             0.0000000000
     22711       345  TIP3      H2            -23.1577098268      -30.6299300854       34.4849761866  TIP3      153             0.0000000000
     22712       346  TIP3      OH2           -30.8353378234      -30.0558900152       31.7170687804  TIP3      154             0.0000000000
     22713       346  TIP3      H1            -31.5583995128      -30.0533249304       32.3702657658  TIP3      154             0.0000000000
     22714       346  TIP3      H2            -30.8564943389      -29.1449048307       31.3460693180  TIP3      154             0.0000000000
     22715       347  TIP3      OH2           -30.8495625359      -29.9377190846       26.5731320108  TIP3      155             0.0000000000
     22716       347  TIP3      H1            -31.7956016329      -30.1630077101       26.4115081199  TIP3      155             0.0000000000
     22717       347  TIP3      H2            -30.4798556236      -30.2374257208       25.7224006002  TIP3      155             0.0000000000
     22718       348  TIP3      OH2           -25.3352907761      -29.4617657024       25.3542074775  TIP3      156             0.0000000000
     22719       348  TIP3      H1            -25.7312774288      -28.6218562911       25.0256296835  TIP3      156             0.0000000000
     22720       348  TIP3      H2            -24.6332167016      -29.5949589377       24.6989944946  TIP3      156             0.0000000000
     22721       349  TIP3      OH2           -26.2839674587      -29.2214610018       36.7845033367  TIP3      157             0.0000000000
     22722       349  TIP3      H1            -26.8137578482      -29.9956324678       37.0946545189  TIP3      157             0.0000000000
     22723       349  TIP3      H2            -25.4482428314      -29.3468044502       37.2634465976  TIP3      157             0.0000000000
     22724       350  TIP3      OH2           -24.3193295209      -29.9489075196       28.1952856133  TIP3      158             0.0000000000
     22725       350  TIP3      H1            -24.5868959043      -29.3846306294       27.4503530765  TIP3      158             0.0000000000
     22726       350  TIP3      H2            -24.2155440442      -30.7950667895       27.7224856161  TIP3      158             0.0000000000
     22727       351  TIP3      OH2           -33.1790791576      -29.8092855053       33.3990355525  TIP3      159             0.0000000000
     22728       351  TIP3      H1            -33.1647620891      -29.3930976709       34.2738513656  TIP3      159             0.0000000000
     22729       351  TIP3      H2            -33.6763886023      -30.6166890925       33.5950456103  TIP3      159             0.0000000000
     22730       352  TIP3      OH2           -36.1853703236      -32.3934850884       27.1939760998  TIP3      160             0.0000000000
     22731       352  TIP3      H1            -35.8295362628      -32.7090229053       28.0511360591  TIP3      160             0.0000000000
     22732       352  TIP3      H2            -36.0230503488      -33.1170047840       26.5987565695  TIP3      160             0.0000000000
     22733       353  TIP3      OH2           -25.1137009644      -28.3588400155       32.7475251582  TIP3      161             0.0000000000
     22734       353  TIP3      H1            -24.7312516514      -29.0478785659       32.1646017955  TIP3      161             0.0000000000
     22735       353  TIP3      H2            -25.5787528521      -28.8880908797       33.4205464342  TIP3      161             0.0000000000
     22736       354  TIP3      OH2           -28.3214515540      -32.4023698610       27.5669549154  TIP3      162             0.0000000000
     22737       354  TIP3      H1            -29.2515861148      -32.3862246501       27.8889239417  TIP3      162             0.0000000000
     22738       354  TIP3      H2            -27.8189252396      -32.5409300411       28.3870950907  TIP3      162             0.0000000000
     22739       355  TIP3      OH2           -33.4796122767      -30.8328592565       26.4527728295  TIP3      163             0.0000000000
     22740       355  TIP3      H1            -34.3568827882      -30.6699966967       26.0500460579  TIP3      163             0.0000000000
     22741       355  TIP3      H2            -33.2212017319      -31.6612117271       26.0210524708  TIP3      163             0.0000000000
     22742       356  TIP3      OH2           -29.8652578958      -30.8164270395       24.0673953505  TIP3      164             0.0000000000
     22743       356  TIP3      H1            -28.9250105461      -30.6718640486       24.2812892875  TIP3      164             0.0000000000
     22744       356  TIP3      H2            -30.1345983369      -30.1097707645       23.4561634669  TIP3      164             0.0000000000
     22745       357  TIP3      OH2           -23.8958236215      -33.1729554192       30.8175476870  TIP3      165             0.0000000000
     22746       357  TIP3      H1            -24.5821199657      -33.0904085761       31.5189498866  TIP3      165             0.0000000000
     22747       357  TIP3      H2            -24.4036017430      -33.4354594484       30.0383639826  TIP3      165             0.0000000000
     22748       358  TIP3      OH2           -31.1063283989      -29.6359835292       21.6524435739  TIP3      166             0.0000000000
     22749       358  TIP3      H1            -31.7679480990      -29.9430988556       21.0003837741  TIP3      166             0.0000000000
     22750       358  TIP3      H2            -30.3639853719      -29.3114694888       21.1435960224  TIP3      166             0.0000000000
     22751       359  TIP3      OH2           -20.6981413551      -17.5048433828       37.1554365133  TIP3      167             0.0000000000
     22752       359  TIP3      H1            -20.4350635625      -17.1237506448       36.2984951724  TIP3      167             0.0000000000
     22753       359  TIP3      H2            -19.9662451312      -17.1922769590       37.7114664150  TIP3      167             0.0000000000
     22754       360  TIP3      OH2           -33.0473866358      -25.0482526093       36.7325257066  TIP3      168             0.0000000000
     22755       360  TIP3      H1            -32.3055861683      -24.8041922909       37.3196438698  TIP3      168             0.0000000000
     22756       360  TIP3      H2            -33.7955697542      -24.9375221917       37.3430256787  TIP3      168             0.0000000000
     22757       361  TIP3      OH2           -27.0252090468      -29.6346559261       29.4750171993  TIP3      169             0.0000000000
     22758       361  TIP3      H1            -26.4256480081      -30.1796819156       28.9527851110  TIP3      169             0.0000000000
     22759       361  TIP3      H2            -27.1776844247      -30.1758648027       30.2615019590  TIP3      169             0.0000000000
     22760       362  TIP3      OH2           -31.9975640855      -33.4580149838       25.9850014579  TIP3      170             0.0000000000
     22761       362  TIP3      H1            -32.3404326959      -34.3625277897       25.9362881854  TIP3      170             0.0000000000
     22762       362  TIP3      H2            -31.2726363731      -33.4862441033       25.3494797304  TIP3      170             0.0000000000
     22763       363  TIP3      OH2           -28.3766378427      -31.2503357749       31.8782672422  TIP3      171             0.0000000000
     22764       363  TIP3      H1            -29.2212618663      -30.7670247330       31.9880433795  TIP3      171             0.0000000000
     22765       363  TIP3      H2            -27.8330168194      -30.9374358835       32.6237154183  TIP3      171             0.0000000000
     22766       364  TIP3      OH2           -27.7821997238      -25.1639663578       23.6256825423  TIP3      172             0.0000000000
     22767       364  TIP3      H1            -28.6069750257      -25.5145331666       23.2235033023  TIP3      172             0.0000000000
     22768       364  TIP3      H2            -28.0297347673      -24.9135541076       24.5278132475  TIP3      172             0.0000000000
     22769       365  TIP3      OH2           -20.6084426074      -25.8774370950       32.3840938170  TIP3      173             0.0000000000
     22770       365  TIP3      H1            -20.0522863450      -25.4004879718       31.7536508721  TIP3      173             0.0000000000
     22771       365  TIP3      H2            -21.4843370462      -25.8393618683       31.9447692307  TIP3      173             0.0000000000
     22772       366  TIP3      OH2           -23.9486923040      -32.2297249686       21.7768581179  TIP3      174             0.0000000000
     22773       366  TIP3      H1            -24.8801483482      -32.1131292897       21.6185954633  TIP3      174             0.0000000000
     22774       366  TIP3      H2            -23.6519766460      -31.3564132105       22.0928104793  TIP3      174             0.0000000000
     22775       367  TIP3      OH2           -26.3057698818      -24.8055350845       34.8346937438  TIP3      175             0.0000000000
     22776       367  TIP3      H1            -26.6540004671      -25.2370931897       35.6226108331  TIP3      175             0.0000000000
     22777       367  TIP3      H2            -26.5630287617      -23.8855368436       34.9418312137  TIP3      175             0.0000000000
     22778       368  TIP3      OH2           -23.2496978993      -30.3458173299       23.4514896079  TIP3      176             0.0000000000
     22779       368  TIP3      H1            -22.3537428820      -30.4691916727       23.7990081129  TIP3      176             0.0000000000
     22780       368  TIP3      H2            -23.1854678305      -29.5256982111       22.9254651105  TIP3      176             0.0000000000
     22781       369  TIP3      OH2           -32.6897222775      -25.6757180888       29.3801527237  TIP3      177             0.0000000000
     22782       369  TIP3      H1            -32.0216199331      -25.7643467099       28.6808787993  TIP3      177             0.0000000000
     22783       369  TIP3      H2            -32.5987719602      -26.5201706587       29.8545481405  TIP3      177             0.0000000000
     22784       370  TIP3      OH2           -35.7324051611      -27.2962040135       34.6545668599  TIP3      178             0.0000000000
     22785       370  TIP3      H1            -35.4707191824      -27.7401045131       35.4861011299  TIP3      178             0.0000000000
     22786       370  TIP3      H2            -36.3170697445      -27.9401690886       34.2293301321  TIP3      178             0.0000000000
     22787       371  TIP3      OH2           -28.6854910891      -27.7154873559       36.8250623242  TIP3      179             0.0000000000
     22788       371  TIP3      H1            -29.0055405059      -28.0296766339       35.9672685774  TIP3      179             0.0000000000
     22789       371  TIP3      H2            -27.7641802785      -28.0445571219       36.8257707120  TIP3      179             0.0000000000
     22790       372  TIP3      OH2           -23.9989976664      -22.3838249903       34.7834264087  TIP3      180             0.0000000000
     22791       372  TIP3      H1            -24.9242891323      -22.2062850127       34.5489402171  TIP3      180             0.0000000000
     22792       372  TIP3      H2            -24.0330158392      -22.0908113638       35.7140061667  TIP3      180             0.0000000000
     22793       373  TIP3      OH2           -18.3438311637      -24.3417403121       35.9756485361  TIP3      181             0.0000000000
     22794       373  TIP3      H1            -19.2383430321      -24.1230098649       35.6165154603  TIP3      181             0.0000000000
     22795       373  TIP3      H2            -17.7997299711      -24.3914599562       35.1634999457  TIP3      181             0.0000000000
     22796       374  TIP3      OH2           -22.8259458649      -26.5485722033       30.6687511698  TIP3      182             0.0000000000
     22797       374  TIP3      H1            -23.7699972254      -26.7608464787       30.5660075198  TIP3      182             0.0000000000
     22798       374  TIP3      H2            -22.4121248462      -27.3274023914       30.2492961407  TIP3      182             0.0000000000
     22799       375  TIP3      OH2           -30.3625891300      -22.2314209391       26.8025361273  TIP3      183             0.0000000000
     22800       375  TIP3      H1            -29.8259506223      -21.4602439737       26.5576807865  TIP3      183             0.0000000000
     22801       375  TIP3      H2            -31.2354617256      -22.0146001804       26.4354164728  TIP3      183             0.0000000000
     22802       376  TIP3      OH2           -28.8845330516      -24.5861177599       26.3233211979  TIP3      184             0.0000000000
     22803       376  TIP3      H1            -29.1864824847      -23.6594720488       26.3687071908  TIP3      184             0.0000000000
     22804       376  TIP3      H2            -29.6317340314      -25.0529192589       26.7395778306  TIP3      184             0.0000000000
     22805       377  TIP3      OH2           -28.4387337417      -20.3831176475       32.7059953135  TIP3      185             0.0000000000
     22806       377  TIP3      H1            -27.9819875762      -19.5751457412       32.4320113331  TIP3      185             0.0000000000
     22807       377  TIP3      H2            -27.8290401826      -20.7271555397       33.3816362965  TIP3      185             0.0000000000
     22808       378  TIP3      OH2           -30.1863735728      -19.5584185035       25.8982689705  TIP3      186             0.0000000000
     22809       378  TIP3      H1            -31.1643484333      -19.4763755623       25.9606245253  TIP3      186             0.0000000000
     22810       378  TIP3      H2            -29.9202731417      -18.6771155937       26.1848648774  TIP3      186             0.0000000000
     22811       379  TIP3      OH2           -24.9334180300      -24.3854307287       32.3179014063  TIP3      187             0.0000000000
     22812       379  TIP3      H1            -25.2511020749      -24.5742609872       33.2258142745  TIP3      187             0.0000000000
     22813       379  TIP3      H2            -24.2871335418      -25.0910591926       32.1534703651  TIP3      187             0.0000000000
     22814       380  TIP3      OH2           -22.1061511401      -19.8001435445       34.8074558671  TIP3      188             0.0000000000
     22815       380  TIP3      H1            -22.8000663173      -20.2931438107       34.3297422508  TIP3      188             0.0000000000
     22816       380  TIP3      H2            -21.9256153776      -19.0988729848       34.1468470566  TIP3      188             0.0000000000
     22817       381  TIP3      OH2           -34.0435705311      -32.5660709395       34.1833233158  TIP3      189             0.0000000000
     22818       381  TIP3      H1            -34.9290075855      -32.1836654948       34.2542783294  TIP3      189             0.0000000000
     22819       381  TIP3      H2            -34.1898083598      -33.4279365748       34.6186459299  TIP3      189             0.0000000000
     22820       382  TIP3      OH2           -21.7937202648      -24.6509394803       23.7546751614  TIP3      190             0.0000000000
     22821       382  TIP3      H1            -22.0789679128      -25.4842214186       24.1859656535  TIP3      190             0.0000000000
     22822       382  TIP3      H2            -20.8346992492      -24.6677856999       23.8299097670  TIP3      190             0.0000000000
     22823       383  TIP3      OH2           -34.2929388539      -20.7129889798       32.5579320995  TIP3      191             0.0000000000
     22824       383  TIP3      H1            -34.1297441863      -21.6665572186       32.6525772717  TIP3      191             0.0000000000
     22825       383  TIP3      H2            -34.1759259052      -20.4718087333       33.4933033080  TIP3      191             0.0000000000
     22826       384  TIP3      OH2           -29.7303889123      -22.7348219328       22.3793006886  TIP3      192             0.0000000000
     22827       384  TIP3      H1            -29.3646735424      -23.2466045456       23.1015199684  TIP3      192             0.0000000000
     22828       384  TIP3      H2            -29.5853041545      -21.7991286292       22.6305012069  TIP3      192             0.0000000000
     22829       385  TIP3      OH2           -25.3008502614      -32.7873190563       33.1537628598  TIP3      193             0.0000000000
     22830       385  TIP3      H1            -24.5834579554      -32.7224391613       33.7967732832  TIP3      193             0.0000000000
     22831       385  TIP3      H2            -25.6752879632      -33.6706924140       33.3361607414  TIP3      193             0.0000000000
     22832       386  TIP3      OH2           -24.4734873024      -33.2423510762       24.2416370228  TIP3      194             0.0000000000
     22833       386  TIP3      H1            -24.3613808144      -32.6894284575       23.4454104294  TIP3      194             0.0000000000
     22834       386  TIP3      H2            -24.0160411157      -32.7110851804       24.9091783540  TIP3      194             0.0000000000
     22835       387  TIP3      OH2           -27.3601907763      -31.4655415324       25.0586975440  TIP3      195             0.0000000000
     22836       387  TIP3      H1            -26.5672693290      -30.8854572719       25.0891341742  TIP3      195             0.0000000000
     22837       387  TIP3      H2            -27.5950229269      -31.5665216276       26.0053193737  TIP3      195             0.0000000000
     22838       388  TIP3      OH2           -26.7873141579      -30.4297653636       34.2633444297  TIP3      196             0.0000000000
     22839       388  TIP3      H1            -26.7094953429      -29.8746554296       35.0638572464  TIP3      196             0.0000000000
     22840       388  TIP3      H2            -26.1228201492      -31.1229839823       34.3578572719  TIP3      196             0.0000000000
     22841       389  TIP3      OH2           -26.4919297200      -34.3760775790       25.9473920728  TIP3      197             0.0000000000
     22842       389  TIP3      H1            -26.8048546929      -33.7248778689       26.6028940573  TIP3      197             0.0000000000
     22843       389  TIP3      H2            -25.8009862285      -33.8420325450       25.4989604252  TIP3      197             0.0000000000
     22844       390  TIP3      OH2           -29.5478183649      -19.9559388720       23.0753967578  TIP3      198             0.0000000000
     22845       390  TIP3      H1            -29.3376598502      -19.1532405659       22.5880667391  TIP3      198             0.0000000000
     22846       390  TIP3      H2            -29.7636731249      -19.6506031986       23.9630166581  TIP3      198             0.0000000000
     22847       391  TIP3      OH2           -20.5950059937      -32.5637798486       35.1329147925  TIP3      199             0.0000000000
     22848       391  TIP3      H1            -21.5233038489      -32.2392011331       34.9914365752  TIP3      199             0.0000000000
     22849       391  TIP3      H2            -20.3092732067      -32.5885299994       34.1985755066  TIP3      199             0.0000000000
     22850       392  TIP3      OH2           -21.9927379850      -28.7498100074       29.1026646308  TIP3      200             0.0000000000
     22851       392  TIP3      H1            -22.8179948516      -29.1996298539       28.8418017858  TIP3      200             0.0000000000
     22852       392  TIP3      H2            -21.5105709629      -29.4361354233       29.6215996861  TIP3      200             0.0000000000
     22853       393  TIP3      OH2           -20.9321951656      -19.5320424089       30.7506800572  TIP3      201             0.0000000000
     22854       393  TIP3      H1            -21.0325363376      -18.8140242276       30.0942549847  TIP3      201             0.0000000000
     22855       393  TIP3      H2            -19.9791148131      -19.4362310612       30.9666749108  TIP3      201             0.0000000000
     22856       394  TIP3      OH2           -33.6539674981      -35.2423695801       29.6556900885  TIP3      202             0.0000000000
     22857       394  TIP3      H1            -33.6314533972      -35.3147223032       28.6736248662  TIP3      202             0.0000000000
     22858       394  TIP3      H2            -33.8635589468      -36.1564051867       29.8824552261  TIP3      202             0.0000000000
     22859       395  TIP3      OH2           -34.4762802071      -21.4166018879       25.7992651828  TIP3      203             0.0000000000
     22860       395  TIP3      H1            -35.3485093849      -21.0486039634       25.6373760883  TIP3      203             0.0000000000
     22861       395  TIP3      H2            -33.9883312695      -21.0310550805       25.0436267885  TIP3      203             0.0000000000
     22862       396  TIP3      OH2           -34.9739029193      -18.7898622272       37.0086251746  TIP3      204             0.0000000000
     22863       396  TIP3      H1            -34.5640667275      -19.0209213344       37.8562770711  TIP3      204             0.0000000000
     22864       396  TIP3      H2            -35.5011416026      -19.5992610714       36.8503192338  TIP3      204             0.0000000000
     22865       397  TIP3      OH2           -30.5949441800      -19.9092475258       38.6215468388  TIP3      205             0.0000000000
     22866       397  TIP3      H1            -29.8366726756      -20.4035552466       38.9548560084  TIP3      205             0.0000000000
     22867       397  TIP3      H2            -30.6239095628      -20.1826286474       37.6832743130  TIP3      205             0.0000000000
     22868       398  TIP3      OH2           -24.0976804783      -21.5127585682       37.3766205952  TIP3      206             0.0000000000
     22869       398  TIP3      H1            -24.4123914812      -22.4000705972       37.6514959357  TIP3      206             0.0000000000
     22870       398  TIP3      H2            -23.3283857319      -21.3939026110       37.9683294642  TIP3      206             0.0000000000
     22871       399  TIP3      OH2           -22.0032899881      -20.6350156842       20.1677792124  TIP3      207             0.0000000000
     22872       399  TIP3      H1            -21.7679933240      -21.4231522519       20.6579312973  TIP3      207             0.0000000000
     22873       399  TIP3      H2            -21.2412994861      -20.3602239263       19.6549534380  TIP3      207             0.0000000000
     22874       400  TIP3      OH2           -35.4054012583      -25.0387929268       38.0050288808  TIP3      208             0.0000000000
     22875       400  TIP3      H1            -35.1915523820      -25.9347307119       37.6827386390  TIP3      208             0.0000000000
     22876       400  TIP3      H2            -36.1224965706      -24.7644761844       37.4240850169  TIP3      208             0.0000000000
     22877       401  TIP3      OH2           -28.6533964793      -25.0539452108       37.4004830126  TIP3      209             0.0000000000
     22878       401  TIP3      H1            -28.9879059895      -24.7419959710       36.5370148723  TIP3      209             0.0000000000
     22879       401  TIP3      H2            -28.5797443516      -26.0325689465       37.2920788577  TIP3      209             0.0000000000
     22880       402  TIP3      OH2           -22.9571912633      -25.1954553613       34.7924993638  TIP3      210             0.0000000000
     22881       402  TIP3      H1            -22.1699372310      -24.6121388765       34.7302454677  TIP3      210             0.0000000000
     22882       402  TIP3      H2            -23.6573059903      -24.5279208455       34.8283453140  TIP3      210             0.0000000000
     22883       403  TIP3      OH2           -34.5134783341      -27.8285550878       37.3871163468  TIP3      211             0.0000000000
     22884       403  TIP3      H1            -34.0302907127      -28.6692990395       37.3040097550  TIP3      211             0.0000000000
     22885       403  TIP3      H2            -34.6892596377      -27.8179845046       38.3399746945  TIP3      211             0.0000000000
     22886       404  TIP3      OH2           -29.7343158178      -26.7099883269       22.5169286796  TIP3      212             0.0000000000
     22887       404  TIP3      H1            -30.3015896498      -27.2434821209       23.0861127142  TIP3      212             0.0000000000
     22888       404  TIP3      H2            -29.5031246819      -27.2842193901       21.7687268993  TIP3      212             0.0000000000
     22889       405  TIP3      OH2           -30.5520936449      -28.8818514310       34.7479112805  TIP3      213             0.0000000000
     22890       405  TIP3      H1            -31.1524859808      -28.1633482867       35.0071084055  TIP3      213             0.0000000000
     22891       405  TIP3      H2            -30.1541633088      -28.5067814406       33.9433690988  TIP3      213             0.0000000000
     22892       406  TIP3      OH2           -25.4765914660      -26.3041926072       38.0867737319  TIP3      214             0.0000000000
     22893       406  TIP3      H1            -24.5201525126      -26.3174101779       37.9622858414  TIP3      214             0.0000000000
     22894       406  TIP3      H2            -25.6468958672      -27.0743406104       38.6521900570  TIP3      214             0.0000000000
     22895       407  TIP3      OH2           -30.1289310774      -31.4979479421       35.8088979334  TIP3      215             0.0000000000
     22896       407  TIP3      H1            -30.0228712552      -32.2100050074       35.1566993526  TIP3      215             0.0000000000
     22897       407  TIP3      H2            -30.2127988113      -30.6896730482       35.2566002061  TIP3      215             0.0000000000
     22898       408  TIP3      OH2           -29.7439248762      -33.0914773139       33.3320118146  TIP3      216             0.0000000000
     22899       408  TIP3      H1            -29.2302262901      -32.6160209246       32.6380153472  TIP3      216             0.0000000000
     22900       408  TIP3      H2            -30.6376672980      -33.1997360873       32.9252126563  TIP3      216             0.0000000000
     22901       409  TIP3      OH2           -28.2057842365      -27.6248814315       33.6067390331  TIP3      217             0.0000000000
     22902       409  TIP3      H1            -27.4502348062      -27.7893313414       33.0324613487  TIP3      217             0.0000000000
     22903       409  TIP3      H2            -28.5677594858      -26.7901707441       33.2660423137  TIP3      217             0.0000000000
     22904       410  TIP3      OH2           -23.8090983329      -29.8737594356       38.5607509171  TIP3      218             0.0000000000
     22905       410  TIP3      H1            -23.5724843251      -30.8099547018       38.4728165540  TIP3      218             0.0000000000
     22906       410  TIP3      H2            -22.9441561289      -29.4302946476       38.5971643012  TIP3      218             0.0000000000
     22907       411  TIP3      OH2           -22.4639439462      -27.0771894726       36.7317461889  TIP3      219             0.0000000000
     22908       411  TIP3      H1            -22.7190749664      -26.3568257240       36.1145410136  TIP3      219             0.0000000000
     22909       411  TIP3      H2            -21.5083216666      -27.1075779902       36.5428370698  TIP3      219             0.0000000000
     22910       412  TIP3      OH2           -31.7147296172      -30.2315215024       37.7180438539  TIP3      220             0.0000000000
     22911       412  TIP3      H1            -32.4726795254      -30.8336109086       37.5599704371  TIP3      220             0.0000000000
     22912       412  TIP3      H2            -31.0469421060      -30.6017081241       37.1109389512  TIP3      220             0.0000000000
     22913       413  TIP3      OH2           -29.0938381305      -35.4792437939       34.0266780068  TIP3      221             0.0000000000
     22914       413  TIP3      H1            -29.1719502872      -34.5430924661       33.7241620988  TIP3      221             0.0000000000
     22915       413  TIP3      H2            -29.6826873265      -35.9014237851       33.3823589794  TIP3      221             0.0000000000
     22916       414  TIP3      OH2           -27.6995276550      -31.3159291274       37.3643944837  TIP3      222             0.0000000000
     22917       414  TIP3      H1            -27.9814003926      -31.6235688090       38.2462231436  TIP3      222             0.0000000000
     22918       414  TIP3      H2            -28.4768630163      -31.5620723336       36.8338115052  TIP3      222             0.0000000000
     22919       415  TIP3      OH2           -24.9587071954      -32.1905009359       36.4777955484  TIP3      223             0.0000000000
     22920       415  TIP3      H1            -25.9263801140      -32.1676332230       36.5866167222  TIP3      223             0.0000000000
     22921       415  TIP3      H2            -24.6791528367      -32.8347026638       37.1589310637  TIP3      223             0.0000000000
     22922       416  TIP3      OH2           -23.3642056113      -33.4655644980       38.3961589143  TIP3      224             0.0000000000
     22923       416  TIP3      H1            -23.4561252139      -34.4520905454       38.3688064724  TIP3      224             0.0000000000
     22924       416  TIP3      H2            -23.6610440032      -33.2814307608       39.3030112848  TIP3      224             0.0000000000
     22925       417  TIP3      OH2           -33.4595949195      -32.3267678492       37.5130658501  TIP3      225             0.0000000000
     22926       417  TIP3      H1            -33.3210642844      -33.0551895656       36.8822359911  TIP3      225             0.0000000000
     22927       417  TIP3      H2            -33.6543258811      -32.8004119094       38.3402986282  TIP3      225             0.0000000000
     22928       418  TIP3      OH2           -28.7533863840       36.7210826769       36.4877795362  TIP3      226             0.0000000000
     22929       418  TIP3      H1            -28.0699678637       36.0496650917       36.5320528822  TIP3      226             0.0000000000
     22930       418  TIP3      H2            -28.8528456809       36.9246407354       35.5356973939  TIP3      226             0.0000000000
     22931       419  TIP3      OH2           -28.3428427948      -34.5967620455       38.5252351533  TIP3      227             0.0000000000
     22932       419  TIP3      H1            -28.5257354888      -35.1713336988       37.7500238645  TIP3      227             0.0000000000
     22933       419  TIP3      H2            -28.9834677197      -33.8749221031       38.4576953901  TIP3      227             0.0000000000
     22934       420  TIP3      OH2            36.8211951495      -17.5925972543       26.0795933101  TIP3      228             0.0000000000
     22935       420  TIP3      H1             35.9677088585      -17.8463414999       25.6774376047  TIP3      228             0.0000000000
     22936       420  TIP3      H2             36.9469015198      -18.3063635122       26.7339836134  TIP3      228             0.0000000000
     22937       421  TIP3      OH2           -35.6810888443      -19.5920094329       27.6697769742  TIP3      229             0.0000000000
     22938       421  TIP3      H1            -36.0430864369      -20.4788017563       27.9098748204  TIP3      229             0.0000000000
     22939       421  TIP3      H2            -35.2927577105      -19.1640146260       28.4571337477  TIP3      229             0.0000000000
     22940       422  TIP3      OH2           -18.2057651346      -18.9042399628       30.9724520758  TIP3      230             0.0000000000
     22941       422  TIP3      H1            -18.1876302697      -18.7171225562       31.9281877524  TIP3      230             0.0000000000
     22942       422  TIP3      H2            -17.5203235498      -18.2967708180       30.6698159644  TIP3      230             0.0000000000
     22943       423  TIP3      OH2           -18.6434678688      -19.2701843991       33.9227768435  TIP3      231             0.0000000000
     22944       423  TIP3      H1            -19.1104828790      -20.0406333161       33.5417891561  TIP3      231             0.0000000000
     22945       423  TIP3      H2            -18.1561054555      -19.7159552307       34.6361142505  TIP3      231             0.0000000000
     22946       424  TIP3      OH2           -20.1935607495      -23.5495999242       38.5975648066  TIP3      232             0.0000000000
     22947       424  TIP3      H1            -21.0983113706      -23.5753699655       38.9629823003  TIP3      232             0.0000000000
     22948       424  TIP3      H2            -19.8231461480      -22.7446836899       39.0098411624  TIP3      232             0.0000000000
     22949       425  TIP3      OH2           -18.8884274274      -25.1790209741       24.1015660037  TIP3      233             0.0000000000
     22950       425  TIP3      H1            -17.9854272866      -24.8224506787       24.2268605491  TIP3      233             0.0000000000
     22951       425  TIP3      H2            -18.8963415011      -25.9276395895       24.7061620097  TIP3      233             0.0000000000
     22952       426  TIP3      OH2           -18.7513576814      -24.4571479431       30.9073494567  TIP3      234             0.0000000000
     22953       426  TIP3      H1            -17.8885219346      -24.8801389092       30.6850291530  TIP3      234             0.0000000000
     22954       426  TIP3      H2            -18.5581948171      -23.4940763699       30.9446487441  TIP3      234             0.0000000000
     22955       427  TIP3      OH2           -20.2005310466      -21.5490762411       33.1504990055  TIP3      235             0.0000000000
     22956       427  TIP3      H1            -20.8754451723      -21.2018669832       33.7556935332  TIP3      235             0.0000000000
     22957       427  TIP3      H2            -20.7752657941      -21.9376341124       32.4662465926  TIP3      235             0.0000000000
     22958       428  TIP3      OH2           -20.7019414595      -28.6505280023       26.4568754646  TIP3      236             0.0000000000
     22959       428  TIP3      H1            -20.8485120890      -29.6058888907       26.4687480719  TIP3      236             0.0000000000
     22960       428  TIP3      H2            -21.0147843985      -28.4412028583       27.3570666812  TIP3      236             0.0000000000
     22961       429  TIP3      OH2           -35.6786683352      -26.6010459660       30.4663394257  TIP3      237             0.0000000000
     22962       429  TIP3      H1            -35.4763544732      -26.6391001453       29.5089446684  TIP3      237             0.0000000000
     22963       429  TIP3      H2            -34.7979967228      -26.7103804158       30.8842305149  TIP3      237             0.0000000000
     22964       430  TIP3      OH2           -19.8335870942      -26.7037987133       36.1791340936  TIP3      238             0.0000000000
     22965       430  TIP3      H1            -19.2261901517      -27.4618977339       36.3083386147  TIP3      238             0.0000000000
     22966       430  TIP3      H2            -19.2326513390      -25.9309880313       36.1808840705  TIP3      238             0.0000000000
     22967       431  TIP3      OH2           -18.3359811325      -28.8287693061       36.8264986752  TIP3      239             0.0000000000
     22968       431  TIP3      H1            -19.2246879797      -29.2140600868       36.6674245195  TIP3      239             0.0000000000
     22969       431  TIP3      H2            -17.7666318399      -29.6093009437       36.7362477446  TIP3      239             0.0000000000
     22970       432  TIP3      OH2           -21.0387054586      -31.0947266318       24.9216488215  TIP3      240             0.0000000000
     22971       432  TIP3      H1            -20.7334106405      -32.0091065055       25.0819152615  TIP3      240             0.0000000000
     22972       432  TIP3      H2            -20.2317945507      -30.6705414865       24.6461604722  TIP3      240             0.0000000000
     22973       433  TIP3      OH2           -20.3957367802      -30.5260798927       30.3792742633  TIP3      241             0.0000000000
     22974       433  TIP3      H1            -19.4329538573      -30.3057374178       30.3704297824  TIP3      241             0.0000000000
     22975       433  TIP3      H2            -20.5797551906      -30.4013328417       31.3222310843  TIP3      241             0.0000000000
     22976       434  TIP3      OH2           -20.3396167531      -29.8028527012       33.1648262298  TIP3      242             0.0000000000
     22977       434  TIP3      H1            -21.2215786464      -29.5152048774       33.4769912708  TIP3      242             0.0000000000
     22978       434  TIP3      H2            -19.8948922459      -28.9512461618       32.9466395356  TIP3      242             0.0000000000
     22979       435  TIP3      OH2           -35.7991811903      -31.3979709855       36.6894898431  TIP3      243             0.0000000000
     22980       435  TIP3      H1            -34.9123503123      -31.6213165062       37.0006276352  TIP3      243             0.0000000000
     22981       435  TIP3      H2            -36.3822546346      -32.0961394940       37.0740711459  TIP3      243             0.0000000000
     22982       436  TIP3      OH2           -17.8376433673      -35.6936505804       38.5328504446  TIP3      244             0.0000000000
     22983       436  TIP3      H1            -17.8031275088      -36.4385723775       37.8978701665  TIP3      244             0.0000000000
     22984       436  TIP3      H2            -18.1066762897      -34.9555295196       37.9559642686  TIP3      244             0.0000000000
     22985       437  TIP3      OH2           -20.3025194880      -33.8268504833       24.9529767805  TIP3      245             0.0000000000
     22986       437  TIP3      H1            -20.1549196148      -34.1896432815       25.8582879543  TIP3      245             0.0000000000
     22987       437  TIP3      H2            -21.0254036641      -34.3595247129       24.6365342819  TIP3      245             0.0000000000
     22988       438  TIP3      OH2           -34.8663489223      -32.9799160098       29.4862535418  TIP3      246             0.0000000000
     22989       438  TIP3      H1            -34.4350618349      -33.8049727264       29.8108398497  TIP3      246             0.0000000000
     22990       438  TIP3      H2            -34.3320686715      -32.3093154633       29.9398204997  TIP3      246             0.0000000000
     22991       439  TIP3      OH2           -36.0126992075      -29.2411909900       30.9458288087  TIP3      247             0.0000000000
     22992       439  TIP3      H1            -35.9779747960      -29.6743692086       30.0665265027  TIP3      247             0.0000000000
     22993       439  TIP3      H2            -35.9367827696      -28.3268019271       30.6608687084  TIP3      247             0.0000000000
     22994       440  TIP3      OH2           -18.4946074431      -33.7295009582       36.8639435234  TIP3      248             0.0000000000
     22995       440  TIP3      H1            -19.4248051207      -33.3955113583       36.8083035016  TIP3      248             0.0000000000
     22996       440  TIP3      H2            -18.5059303572      -34.2225756985       36.0213448711  TIP3      248             0.0000000000
     22997       441  TIP3      OH2           -35.6879999983      -33.5641011422       24.3795848357  TIP3      249             0.0000000000
     22998       441  TIP3      H1            -36.6551886654      -33.5843334776       24.3263190878  TIP3      249             0.0000000000
     22999       441  TIP3      H2            -35.5722189341      -33.0970783199       23.5282298798  TIP3      249             0.0000000000
     23000       442  TIP3      OH2           -21.4978879706      -18.7895218151       26.6277726594  TIP3      250             0.0000000000
     23001       442  TIP3      H1            -20.8255852056      -19.0535484648       25.9860572245  TIP3      250             0.0000000000
     23002       442  TIP3      H2            -20.9931072637      -18.2540126570       27.2470424179  TIP3      250             0.0000000000
     23003       443  TIP3      OH2            36.9599199468      -35.0427435530       33.2227562815  TIP3      251             0.0000000000
     23004       443  TIP3      H1             36.1575799323      -35.3108339773       33.6648815148  TIP3      251             0.0000000000
     23005       443  TIP3      H2             36.5209942296      -34.6111978944       32.4666135990  TIP3      251             0.0000000000
     23006       444  TIP3      OH2           -34.0742704988      -21.8520456019       37.1260970443  TIP3      252             0.0000000000
     23007       444  TIP3      H1            -34.9203969058      -21.6761394876       36.6976519721  TIP3      252             0.0000000000
     23008       444  TIP3      H2            -34.3293118251      -21.9542637752       38.0438207158  TIP3      252             0.0000000000
     23009       445  TIP3      OH2           -31.1030389787      -20.8498735224       33.4220734144  TIP3      253             0.0000000000
     23010       445  TIP3      H1            -31.4915465882      -20.0081262526       33.1320128641  TIP3      253             0.0000000000
     23011       445  TIP3      H2            -30.1949875254      -20.7667364243       33.0780444681  TIP3      253             0.0000000000
     23012       446  TIP3      OH2           -26.8214995833      -19.4504890262       36.2944146149  TIP3      254             0.0000000000
     23013       446  TIP3      H1            -26.6858004035      -19.8055029646       37.2028316323  TIP3      254             0.0000000000
     23014       446  TIP3      H2            -25.9172099295      -19.1479258096       36.0555673953  TIP3      254             0.0000000000
     23015       447  TIP3      OH2           -24.5291211037      -18.1862063525       35.6055807387  TIP3      255             0.0000000000
     23016       447  TIP3      H1            -23.7972089759      -18.7706179364       35.3698179306  TIP3      255             0.0000000000
     23017       447  TIP3      H2            -24.1579421202      -17.7460851314       36.4011884892  TIP3      255             0.0000000000
     23018       448  TIP3      OH2           -19.4929230500      -35.5403682926       34.6357783700  TIP3      256             0.0000000000
     23019       448  TIP3      H1            -20.3392159880      -35.2358918843       34.2635324434  TIP3      256             0.0000000000
     23020       448  TIP3      H2            -19.3554728074      -36.3974243157       34.1729615405  TIP3      256             0.0000000000
     23021       449  TIP3      OH2           -33.7118411873      -17.6692544412       33.3835564664  TIP3      257             0.0000000000
     23022       449  TIP3      H1            -34.4368531193      -17.1095131994       33.0419182097  TIP3      257             0.0000000000
     23023       449  TIP3      H2            -34.0227327226      -17.8214778499       34.2921644464  TIP3      257             0.0000000000
     23024       450  TIP3      OH2           -31.2533493849      -18.0744532911       32.4190941188  TIP3      258             0.0000000000
     23025       450  TIP3      H1            -32.1260228606      -17.9076228917       32.8503370568  TIP3      258             0.0000000000
     23026       450  TIP3      H2            -31.2749756863      -17.4440095850       31.6805243399  TIP3      258             0.0000000000
     23027       451  TIP3      OH2           -26.5375896313      -18.1374794705       31.6281648700  TIP3      259             0.0000000000
     23028       451  TIP3      H1            -27.0136058185      -17.5741272973       31.0064906999  TIP3      259             0.0000000000
     23029       451  TIP3      H2            -26.4047286076      -17.5233546592       32.3835373061  TIP3      259             0.0000000000
     23030       452  TIP3      OH2           -24.2470349456      -19.3415706233       32.6666286781  TIP3      260             0.0000000000
     23031       452  TIP3      H1            -25.1052370249      -19.0640937852       32.3132251951  TIP3      260             0.0000000000
     23032       452  TIP3      H2            -23.7655083219      -18.5023642354       32.5685802593  TIP3      260             0.0000000000
     23033       453  TIP3      OH2           -21.6704253538      -17.7693005053       32.8795018978  TIP3      261             0.0000000000
     23034       453  TIP3      H1            -21.7237705638      -16.8091647719       32.6546687330  TIP3      261             0.0000000000
     23035       453  TIP3      H2            -21.4608001292      -18.1365134276       32.0014505260  TIP3      261             0.0000000000
     23036       454  TIP3      OH2           -34.1959139135      -18.9685533213       30.3447189003  TIP3      262             0.0000000000
     23037       454  TIP3      H1            -34.1701828262      -19.3755773310       31.2450923524  TIP3      262             0.0000000000
     23038       454  TIP3      H2            -33.3717018312      -19.3307968907       29.9546785954  TIP3      262             0.0000000000
     23039       455  TIP3      OH2           -32.2191586140      -20.2813772077       29.0084009073  TIP3      263             0.0000000000
     23040       455  TIP3      H1            -32.3225937229      -21.2296591365       29.2091118397  TIP3      263             0.0000000000
     23041       455  TIP3      H2            -31.3452979756      -20.1226526024       29.4272110588  TIP3      263             0.0000000000
     23042       456  TIP3      OH2           -29.5384529495      -19.7822776576       29.8371320557  TIP3      264             0.0000000000
     23043       456  TIP3      H1            -29.4418255180      -20.7299997507       29.6104136019  TIP3      264             0.0000000000
     23044       456  TIP3      H2            -29.5566305627      -19.8400703321       30.8098331859  TIP3      264             0.0000000000
     23045       457  TIP3      OH2           -26.2422417808      -34.0792856894       28.9789279983  TIP3      265             0.0000000000
     23046       457  TIP3      H1            -26.8284255979      -34.7950388811       29.2689435984  TIP3      265             0.0000000000
     23047       457  TIP3      H2            -25.5643913453      -34.5775752115       28.4890587729  TIP3      265             0.0000000000
     23048       458  TIP3      OH2           -20.9996083621      -36.1722178056       28.9493218555  TIP3      266             0.0000000000
     23049       458  TIP3      H1            -20.3810247713      -35.4839550739       28.6260271511  TIP3      266             0.0000000000
     23050       458  TIP3      H2            -21.8506204024      -35.7027699204       28.9200765472  TIP3      266             0.0000000000
     23051       459  TIP3      OH2           -19.3028517165      -34.8500300414       27.2734117737  TIP3      267             0.0000000000
     23052       459  TIP3      H1            -18.5751533186      -35.4008370317       26.9811034022  TIP3      267             0.0000000000
     23053       459  TIP3      H2            -18.8453915890      -34.0083253345       27.5207311224  TIP3      267             0.0000000000
     23054       460  TIP3      OH2           -33.7416143646      -35.4799942991       26.8389527708  TIP3      268             0.0000000000
     23055       460  TIP3      H1            -34.5281925243      -35.7580743921       26.3612358364  TIP3      268             0.0000000000
     23056       460  TIP3      H2            -33.2857605337      -36.3342129286       26.9293608375  TIP3      268             0.0000000000
     23057       461  TIP3      OH2           -29.2275809512      -35.6640465873       26.6255587900  TIP3      269             0.0000000000
     23058       461  TIP3      H1            -28.3711705460      -35.2044619294       26.5774613680  TIP3      269             0.0000000000
     23059       461  TIP3      H2            -29.3169870498      -35.8159593809       27.5743023708  TIP3      269             0.0000000000
     23060       462  TIP3      OH2           -23.8108741051      -35.2035711607       28.4119136906  TIP3      270             0.0000000000
     23061       462  TIP3      H1            -23.7307362995      -35.2292494570       27.4592281506  TIP3      270             0.0000000000
     23062       462  TIP3      H2            -23.9400351493      -36.1700894289       28.5645843469  TIP3      270             0.0000000000
     23063       463  TIP3      OH2           -35.1519992513      -19.7509449998       23.6035410576  TIP3      271             0.0000000000
     23064       463  TIP3      H1            -35.6686201406      -19.7653541090       22.7873294143  TIP3      271             0.0000000000
     23065       463  TIP3      H2            -35.0011535698      -18.8046516608       23.7129577110  TIP3      271             0.0000000000
     23066       464  TIP3      OH2           -28.2047243891      -33.5672849456       23.5058346622  TIP3      272             0.0000000000
     23067       464  TIP3      H1            -27.8571981726      -34.1362180255       24.2215631829  TIP3      272             0.0000000000
     23068       464  TIP3      H2            -28.0517036383      -32.7101780924       23.9655959544  TIP3      272             0.0000000000
     23069       465  TIP3      OH2           -19.4743310056      -19.0697780332       24.6236808473  TIP3      273             0.0000000000
     23070       465  TIP3      H1            -19.7721874672      -19.7285820786       24.0084935584  TIP3      273             0.0000000000
     23071       465  TIP3      H2            -19.5455526254      -18.2576424488       24.0525293634  TIP3      273             0.0000000000
     23072       466  TIP3      OH2           -33.9781747502      -34.9829297971       36.1963500432  TIP3      274             0.0000000000
     23073       466  TIP3      H1            -34.3049700155      -35.7388723323       36.6999922325  TIP3      274             0.0000000000
     23074       466  TIP3      H2            -33.0659172418      -34.9733277174       36.5810495184  TIP3      274             0.0000000000
     23075       467  TIP3      OH2           -32.1357632055      -35.3879682895       37.8339338629  TIP3      275             0.0000000000
     23076       467  TIP3      H1            -31.1947919689      -35.5795735477       37.6974640513  TIP3      275             0.0000000000
     23077       467  TIP3      H2            -32.2862743055      -36.2441498780       38.2830747985  TIP3      275             0.0000000000
     23078       468  TIP3      OH2           -23.5424893883       37.0867846987       38.0250918457  TIP3      276             0.0000000000
     23079       468  TIP3      H1            -23.4972907311       36.4925637725       38.8035988438  TIP3      276             0.0000000000
     23080       468  TIP3      H2            -22.6646629170       36.8354888797       37.6991971667  TIP3      276             0.0000000000
     23081       469  TIP3      OH2           -20.2569116229      -20.2537760679       36.7275302221  TIP3      277             0.0000000000
     23082       469  TIP3      H1            -21.0586404950      -20.3905383678       36.1770684534  TIP3      277             0.0000000000
     23083       469  TIP3      H2            -20.3714859449      -19.3061501910       36.9403825380  TIP3      277             0.0000000000
     23084       470  TIP3      OH2            -5.8096477984      -26.3803018563       26.7127636391  TIP3      278             0.0000000000
     23085       470  TIP3      H1             -5.8130421732      -25.3974538518       26.6650756704  TIP3      278             0.0000000000
     23086       470  TIP3      H2             -6.5435855620      -26.5899824110       26.1212347536  TIP3      278             0.0000000000
     23087       471  TIP3      OH2            -6.9554316345      -27.1260861240       30.1916352085  TIP3      279             0.0000000000
     23088       471  TIP3      H1             -6.9645522448      -27.7685831650       30.9159155233  TIP3      279             0.0000000000
     23089       471  TIP3      H2             -7.3070844524      -27.6372644544       29.4469191232  TIP3      279             0.0000000000
     23090       472  TIP3      OH2           -14.6097834518      -27.4447102609       31.7570504093  TIP3      280             0.0000000000
     23091       472  TIP3      H1            -14.5186337466      -28.1313378908       32.4513030516  TIP3      280             0.0000000000
     23092       472  TIP3      H2            -13.8570433606      -26.8755097356       31.9776409872  TIP3      280             0.0000000000
     23093       473  TIP3      OH2            -3.2692041994      -24.1772124577       28.4901443537  TIP3      281             0.0000000000
     23094       473  TIP3      H1             -3.6756254830      -24.8945130535       28.9873282610  TIP3      281             0.0000000000
     23095       473  TIP3      H2             -3.2441342423      -23.4666688336       29.1591165949  TIP3      281             0.0000000000
     23096       474  TIP3      OH2           -13.7051970139      -23.0110943898       30.2578025809  TIP3      282             0.0000000000
     23097       474  TIP3      H1            -13.9720561418      -23.8898821951       29.9366953761  TIP3      282             0.0000000000
     23098       474  TIP3      H2            -12.7420316635      -23.1668521237       30.3050776992  TIP3      282             0.0000000000
     23099       475  TIP3      OH2           -16.3229939195      -27.1900603677       27.8969896432  TIP3      283             0.0000000000
     23100       475  TIP3      H1            -16.0563311559      -28.0187436558       28.3442067927  TIP3      283             0.0000000000
     23101       475  TIP3      H2            -15.6187229328      -27.0889165468       27.2435826175  TIP3      283             0.0000000000
     23102       476  TIP3      OH2            -5.8163157263      -18.9938983613       29.0459423924  TIP3      284             0.0000000000
     23103       476  TIP3      H1             -5.5001140159      -19.7254876753       28.4694704656  TIP3      284             0.0000000000
     23104       476  TIP3      H2             -6.3945460985      -19.4443794561       29.6507840172  TIP3      284             0.0000000000
     23105       477  TIP3      OH2            -8.5798848296      -24.7273212953       30.6796743072  TIP3      285             0.0000000000
     23106       477  TIP3      H1             -8.2418336674      -25.3489360014       30.0169633362  TIP3      285             0.0000000000
     23107       477  TIP3      H2             -7.7700711734      -24.5697115545       31.1953963027  TIP3      285             0.0000000000
     23108       478  TIP3      OH2             0.0199366730      -33.0675064510       31.3993610509  TIP3      286             0.0000000000
     23109       478  TIP3      H1              0.2112793850      -32.4866449600       32.1761368592  TIP3      286             0.0000000000
     23110       478  TIP3      H2              0.5760792975      -32.6293290180       30.7420551374  TIP3      286             0.0000000000
     23111       479  TIP3      OH2            -5.4122167379      -30.2550678121       30.9979229205  TIP3      287             0.0000000000
     23112       479  TIP3      H1             -5.2535662917      -31.2203168589       31.0014143955  TIP3      287             0.0000000000
     23113       479  TIP3      H2             -5.5136938635      -30.1110712052       30.0358713550  TIP3      287             0.0000000000
     23114       480  TIP3      OH2           -12.3105518726      -32.1505867276       28.2210994503  TIP3      288             0.0000000000
     23115       480  TIP3      H1            -12.1464425395      -31.3234063231       27.7312440279  TIP3      288             0.0000000000
     23116       480  TIP3      H2            -12.6646220485      -32.7345533872       27.5284708863  TIP3      288             0.0000000000
     23117       481  TIP3      OH2            -4.5720220604      -32.1086947862       26.5953622281  TIP3      289             0.0000000000
     23118       481  TIP3      H1             -3.9043592360      -32.3771442401       27.2688539195  TIP3      289             0.0000000000
     23119       481  TIP3      H2             -4.0347130657      -31.5380186616       26.0359504281  TIP3      289             0.0000000000
     23120       482  TIP3      OH2           -15.6856156990      -29.7642926124       28.9495016501  TIP3      290             0.0000000000
     23121       482  TIP3      H1            -15.0064609305      -30.2884038989       29.4205460838  TIP3      290             0.0000000000
     23122       482  TIP3      H2            -15.5288246140      -30.0747976057       28.0526100763  TIP3      290             0.0000000000
     23123       483  TIP3      OH2           -10.5199210566      -28.2058146197       28.2642632084  TIP3      291             0.0000000000
     23124       483  TIP3      H1             -9.8444439237      -28.7841191632       28.6556904047  TIP3      291             0.0000000000
     23125       483  TIP3      H2            -11.0241534298      -28.8578658129       27.7331787378  TIP3      291             0.0000000000
     23126       484  TIP3      OH2             0.4004667580      -31.7052520109       33.6776061265  TIP3      292             0.0000000000
     23127       484  TIP3      H1             -0.1425559545      -30.8987577271       33.5687372523  TIP3      292             0.0000000000
     23128       484  TIP3      H2              0.5111088556      -31.7466698495       34.6325592393  TIP3      292             0.0000000000
     23129       485  TIP3      OH2           -13.3762754360      -33.2128428624       32.2322387913  TIP3      293             0.0000000000
     23130       485  TIP3      H1            -13.6987530135      -32.6736101128       31.4847399069  TIP3      293             0.0000000000
     23131       485  TIP3      H2            -14.0814747402      -33.0314879144       32.8974915941  TIP3      293             0.0000000000
     23132       486  TIP3      OH2            -6.1194650760      -23.8277566808       25.8336903552  TIP3      294             0.0000000000
     23133       486  TIP3      H1             -6.3702013252      -24.0577044054       24.9249834697  TIP3      294             0.0000000000
     23134       486  TIP3      H2             -6.3649920056      -22.8704406917       25.8647872811  TIP3      294             0.0000000000
     23135       487  TIP3      OH2           -10.8766780290      -25.6173910256       32.4796672989  TIP3      295             0.0000000000
     23136       487  TIP3      H1            -11.5814890281      -24.9749140124       32.7052594793  TIP3      295             0.0000000000
     23137       487  TIP3      H2            -10.1691967970      -25.0204218446       32.1914985641  TIP3      295             0.0000000000
     23138       488  TIP3      OH2            -2.7439205188      -32.7562877946       28.5345537547  TIP3      296             0.0000000000
     23139       488  TIP3      H1             -2.9811806581      -33.4863613640       29.1197758632  TIP3      296             0.0000000000
     23140       488  TIP3      H2             -2.0885479358      -32.2930696320       29.0795131873  TIP3      296             0.0000000000
     23141       489  TIP3      OH2           -13.8408996398      -31.3442177888       30.2392678602  TIP3      297             0.0000000000
     23142       489  TIP3      H1            -13.1823639651      -30.7139545335       30.5992975889  TIP3      297             0.0000000000
     23143       489  TIP3      H2            -13.3031621239      -31.8105574531       29.5471688016  TIP3      297             0.0000000000
     23144       490  TIP3      OH2           -12.4191112938      -23.6155500270       33.3057472730  TIP3      298             0.0000000000
     23145       490  TIP3      H1            -12.4780859189      -22.7046437967       32.9638771957  TIP3      298             0.0000000000
     23146       490  TIP3      H2            -13.3039676331      -23.7014073279       33.7465616585  TIP3      298             0.0000000000
     23147       491  TIP3      OH2           -16.4685848950      -23.9785783084       24.0997739631  TIP3      299             0.0000000000
     23148       491  TIP3      H1            -16.5790105422      -23.6734598962       23.1821226497  TIP3      299             0.0000000000
     23149       491  TIP3      H2            -16.2368044066      -23.1573797720       24.5854999182  TIP3      299             0.0000000000
     23150       492  TIP3      OH2            -2.7426702240      -22.3352799075       30.8579850180  TIP3      300             0.0000000000
     23151       492  TIP3      H1             -3.7098783201      -22.2200488130       30.9747181096  TIP3      300             0.0000000000
     23152       492  TIP3      H2             -2.4718127435      -21.4198950706       30.6530850574  TIP3      300             0.0000000000
     23153       493  TIP3      OH2            -2.3651657898      -34.0418466706       32.3001155062  TIP3      301             0.0000000000
     23154       493  TIP3      H1             -3.1324093680      -33.4739260806       32.1495236637  TIP3      301             0.0000000000
     23155       493  TIP3      H2             -1.6794181457      -33.6278995403       31.7337411375  TIP3      301             0.0000000000
     23156       494  TIP3      OH2            -9.4673003674      -35.9231497129       29.5705680249  TIP3      302             0.0000000000
     23157       494  TIP3      H1             -9.4913914561      -36.8848753447       29.6987090371  TIP3      302             0.0000000000
     23158       494  TIP3      H2            -10.2680175345      -35.6592810740       30.0451128787  TIP3      302             0.0000000000
     23159       495  TIP3      OH2            -4.4702516958      -20.5790167203       27.4471064090  TIP3      303             0.0000000000
     23160       495  TIP3      H1             -4.0303127531      -21.2784214202       26.9290595570  TIP3      303             0.0000000000
     23161       495  TIP3      H2             -4.0817007789      -19.7580202687       27.0668875934  TIP3      303             0.0000000000
     23162       496  TIP3      OH2            -3.2635518283      -22.6194411333       25.9851364907  TIP3      304             0.0000000000
     23163       496  TIP3      H1             -3.5603726209      -23.3089094656       25.3671703361  TIP3      304             0.0000000000
     23164       496  TIP3      H2             -3.2394355046      -23.1304005539       26.8130300526  TIP3      304             0.0000000000
     23165       497  TIP3      OH2            -1.6537417298      -24.0283786899       34.4563146365  TIP3      305             0.0000000000
     23166       497  TIP3      H1             -1.5043002502      -24.6848762556       33.7395314191  TIP3      305             0.0000000000
     23167       497  TIP3      H2             -1.4380094674      -23.1906613350       34.0098139643  TIP3      305             0.0000000000
     23168       498  TIP3      OH2            -7.1562577632      -27.1740880821       24.1795100994  TIP3      306             0.0000000000
     23169       498  TIP3      H1             -7.8703915074      -26.5778938151       23.8624432274  TIP3      306             0.0000000000
     23170       498  TIP3      H2             -6.4647365345      -26.9787452341       23.5513850867  TIP3      306             0.0000000000
     23171       499  TIP3      OH2             0.1936652774      -27.7005517705       32.5096423904  TIP3      307             0.0000000000
     23172       499  TIP3      H1             -0.4404921170      -26.9633872371       32.5169941360  TIP3      307             0.0000000000
     23173       499  TIP3      H2              0.7398755312      -27.5220485130       31.7191326041  TIP3      307             0.0000000000
     23174       500  TIP3      OH2            -3.7384682280      -26.9845883443       25.1175717767  TIP3      308             0.0000000000
     23175       500  TIP3      H1             -4.4368145365      -26.6738586568       25.7436788658  TIP3      308             0.0000000000
     23176       500  TIP3      H2             -3.2298980997      -27.5931651029       25.6844371027  TIP3      308             0.0000000000
     23177       501  TIP3      OH2            -3.7831205893      -28.7686820164       34.2709483841  TIP3      309             0.0000000000
     23178       501  TIP3      H1             -3.7703598908      -27.9458786848       34.7879153191  TIP3      309             0.0000000000
     23179       501  TIP3      H2             -4.4058937480      -28.4749310393       33.5745897930  TIP3      309             0.0000000000
     23180       502  TIP3      OH2           -12.0926398405      -26.2673653628       27.0674744014  TIP3      310             0.0000000000
     23181       502  TIP3      H1            -12.4035444454      -26.6418090880       26.2076786915  TIP3      310             0.0000000000
     23182       502  TIP3      H2            -11.4727980971      -26.9622405619       27.3878479723  TIP3      310             0.0000000000
     23183       503  TIP3      OH2           -10.7760713362      -22.8903115279       29.7352366938  TIP3      311             0.0000000000
     23184       503  TIP3      H1            -10.7832523445      -23.4096891345       28.9212335366  TIP3      311             0.0000000000
     23185       503  TIP3      H2            -10.0000072654      -23.2549973447       30.1986889127  TIP3      311             0.0000000000
     23186       504  TIP3      OH2           -11.7651636223      -27.5212284608       30.7225823315  TIP3      312             0.0000000000
     23187       504  TIP3      H1            -11.2131620196      -27.4220784518       29.9219096100  TIP3      312             0.0000000000
     23188       504  TIP3      H2            -11.3754964145      -26.8537539897       31.3304548122  TIP3      312             0.0000000000
     23189       505  TIP3      OH2            -5.3623855961      -21.9489437893       31.4207973621  TIP3      313             0.0000000000
     23190       505  TIP3      H1             -5.6346131167      -21.3122935104       32.0871076507  TIP3      313             0.0000000000
     23191       505  TIP3      H2             -5.6006042888      -22.8032639467       31.8500584229  TIP3      313             0.0000000000
     23192       506  TIP3      OH2           -10.8100111263      -23.0988509820       35.4109931887  TIP3      314             0.0000000000
     23193       506  TIP3      H1            -11.2204304336      -22.3658401754       35.9172884396  TIP3      314             0.0000000000
     23194       506  TIP3      H2            -11.4977336355      -23.2888470840       34.7305677697  TIP3      314             0.0000000000
     23195       507  TIP3      OH2           -13.8718550718      -26.9318441236       34.5631042537  TIP3      315             0.0000000000
     23196       507  TIP3      H1            -13.8170842038      -26.2653277822       35.2752373082  TIP3      315             0.0000000000
     23197       507  TIP3      H2            -14.8149143379      -26.8460814728       34.3621383997  TIP3      315             0.0000000000
     23198       508  TIP3      OH2            -7.1190572296      -21.1376039475       26.2868321649  TIP3      316             0.0000000000
     23199       508  TIP3      H1             -6.6957382671      -20.7245270050       27.0531752546  TIP3      316             0.0000000000
     23200       508  TIP3      H2             -7.6379608582      -20.3300049870       26.0642403030  TIP3      316             0.0000000000
     23201       509  TIP3      OH2           -12.5511315132      -21.0576354104       36.1360533703  TIP3      317             0.0000000000
     23202       509  TIP3      H1            -12.6499543400      -21.1535803827       35.1746311405  TIP3      317             0.0000000000
     23203       509  TIP3      H2            -13.4607398022      -21.1933403286       36.4715904103  TIP3      317             0.0000000000
     23204       510  TIP3      OH2            -1.0821208788      -35.8238873376       22.4487943566  TIP3      318             0.0000000000
     23205       510  TIP3      H1             -1.9472919284      -35.8730296570       22.9157879645  TIP3      318             0.0000000000
     23206       510  TIP3      H2             -0.9525340640      -34.9200292371       22.2387312627  TIP3      318             0.0000000000
     23207       511  TIP3      OH2           -13.1337779826      -27.1954116199       24.6686436777  TIP3      319             0.0000000000
     23208       511  TIP3      H1            -13.4252207574      -26.4388647921       24.1189693450  TIP3      319             0.0000000000
     23209       511  TIP3      H2            -13.7793092090      -27.8648048355       24.4555933748  TIP3      319             0.0000000000
     23210       512  TIP3      OH2           -17.0355879203      -24.8105846690       33.5622658781  TIP3      320             0.0000000000
     23211       512  TIP3      H1            -17.4889903183      -24.9160199272       32.7156239301  TIP3      320             0.0000000000
     23212       512  TIP3      H2            -16.9450607741      -25.7556621827       33.8063096418  TIP3      320             0.0000000000
     23213       513  TIP3      OH2           -17.2854542261      -22.1159979571       30.2944445990  TIP3      321             0.0000000000
     23214       513  TIP3      H1            -16.3150499763      -22.1880903010       30.3343589089  TIP3      321             0.0000000000
     23215       513  TIP3      H2            -17.3860914268      -21.2981556089       30.8226818626  TIP3      321             0.0000000000
     23216       514  TIP3      OH2             0.9660409021      -21.3794739318       36.0408425676  TIP3      322             0.0000000000
     23217       514  TIP3      H1              0.8465972951      -22.3382875718       36.0105273499  TIP3      322             0.0000000000
     23218       514  TIP3      H2              0.0918266383      -21.1306688553       36.4240939195  TIP3      322             0.0000000000
     23219       515  TIP3      OH2            -8.0778987155      -21.8406330863       34.8993048979  TIP3      323             0.0000000000
     23220       515  TIP3      H1             -8.0198038897      -20.9973115313       35.4084949101  TIP3      323             0.0000000000
     23221       515  TIP3      H2             -8.9506934783      -22.1982352406       35.1512191323  TIP3      323             0.0000000000
     23222       516  TIP3      OH2            -8.0858275025      -17.5652569977       23.8583021870  TIP3      324             0.0000000000
     23223       516  TIP3      H1             -7.5184138667      -18.2506905276       23.5015432074  TIP3      324             0.0000000000
     23224       516  TIP3      H2             -7.6498413882      -17.2925712205       24.7087340892  TIP3      324             0.0000000000
     23225       517  TIP3      OH2           -14.0218452088      -19.1837519258       26.5622378965  TIP3      325             0.0000000000
     23226       517  TIP3      H1            -13.8513697577      -19.6303705898       27.4168686125  TIP3      325             0.0000000000
     23227       517  TIP3      H2            -14.8401831348      -19.6257458056       26.2898436063  TIP3      325             0.0000000000
     23228       518  TIP3      OH2            -4.6644611850      -18.9820141225       21.6669454534  TIP3      326             0.0000000000
     23229       518  TIP3      H1             -4.1298782244      -19.6634083060       21.2374659838  TIP3      326             0.0000000000
     23230       518  TIP3      H2             -4.5686104412      -19.1853299700       22.6145348472  TIP3      326             0.0000000000
     23231       519  TIP3      OH2            -4.9153674424      -18.9401521419       24.4630287020  TIP3      327             0.0000000000
     23232       519  TIP3      H1             -5.8491087775      -18.8593908551       24.6905659126  TIP3      327             0.0000000000
     23233       519  TIP3      H2             -4.6738746157      -19.6999151162       25.0145837998  TIP3      327             0.0000000000
     23234       520  TIP3      OH2            -1.8867207775      -29.9284552892       36.5047531638  TIP3      328             0.0000000000
     23235       520  TIP3      H1             -2.3633048600      -29.4682596600       35.7936386171  TIP3      328             0.0000000000
     23236       520  TIP3      H2             -1.9038759591      -30.8484762348       36.1988863062  TIP3      328             0.0000000000
     23237       521  TIP3      OH2           -14.7426263283      -23.5396184283       34.4787307342  TIP3      329             0.0000000000
     23238       521  TIP3      H1            -14.5379386648      -23.8500511359       35.3929848781  TIP3      329             0.0000000000
     23239       521  TIP3      H2            -15.6298559687      -23.9088650383       34.2940508217  TIP3      329             0.0000000000
     23240       522  TIP3      OH2           -12.0898756460      -35.0655639478       30.4947615074  TIP3      330             0.0000000000
     23241       522  TIP3      H1            -12.9787711146      -35.1264226455       30.0960263529  TIP3      330             0.0000000000
     23242       522  TIP3      H2            -12.1988538947      -34.2097687030       30.9396063445  TIP3      330             0.0000000000
     23243       523  TIP3      OH2            -7.4461713975      -35.3312479126       33.8838506414  TIP3      331             0.0000000000
     23244       523  TIP3      H1             -7.0134545742      -35.7884614180       34.6080735251  TIP3      331             0.0000000000
     23245       523  TIP3      H2             -8.3995798760      -35.4482897162       34.0352717088  TIP3      331             0.0000000000
     23246       524  TIP3      OH2            -4.1378412435      -31.5576126346       34.7328788724  TIP3      332             0.0000000000
     23247       524  TIP3      H1             -4.7193694092      -31.7093473673       35.5117226884  TIP3      332             0.0000000000
     23248       524  TIP3      H2             -4.3021457337      -30.6289350435       34.4845220150  TIP3      332             0.0000000000
     23249       525  TIP3      OH2           -11.9642890082      -30.0543064900       31.7231403362  TIP3      333             0.0000000000
     23250       525  TIP3      H1            -12.7082530963      -30.0637252727       32.3550387520  TIP3      333             0.0000000000
     23251       525  TIP3      H2            -12.0140560927      -29.1484453159       31.3439660271  TIP3      333             0.0000000000
     23252       526  TIP3      OH2           -12.0149091020      -29.9437553495       26.5831255496  TIP3      334             0.0000000000
     23253       526  TIP3      H1            -12.9486047016      -30.1699163564       26.4268339930  TIP3      334             0.0000000000
     23254       526  TIP3      H2            -11.5857812038      -30.2365434603       25.7430445046  TIP3      334             0.0000000000
     23255       527  TIP3      OH2            -6.5276872102      -29.4745556980       25.2856273861  TIP3      335             0.0000000000
     23256       527  TIP3      H1             -6.8879794584      -28.5940608094       25.0366895654  TIP3      335             0.0000000000
     23257       527  TIP3      H2             -5.7643657599      -29.5644785296       24.7244401687  TIP3      335             0.0000000000
     23258       528  TIP3      OH2            -7.4279974079      -29.2222787009       36.7842333855  TIP3      336             0.0000000000
     23259       528  TIP3      H1             -7.9576111823      -29.9958638476       37.0951997122  TIP3      336             0.0000000000
     23260       528  TIP3      H2             -6.5920746147      -29.3465979078       37.2633378315  TIP3      336             0.0000000000
     23261       529  TIP3      OH2            -5.4524972248      -29.9384561954       28.1830297246  TIP3      337             0.0000000000
     23262       529  TIP3      H1             -5.7407994056      -29.3847834359       27.4426110582  TIP3      337             0.0000000000
     23263       529  TIP3      H2             -5.3622384661      -30.7968499680       27.7306266293  TIP3      337             0.0000000000
     23264       530  TIP3      OH2           -14.3465517062      -29.7939584050       33.3884936682  TIP3      338             0.0000000000
     23265       530  TIP3      H1            -14.2615585192      -29.3987563932       34.2734587429  TIP3      338             0.0000000000
     23266       530  TIP3      H2            -14.7946728256      -30.6267068622       33.5917489704  TIP3      338             0.0000000000
     23267       531  TIP3      OH2           -17.6646609599      -32.6481139083       27.3354936664  TIP3      339             0.0000000000
     23268       531  TIP3      H1            -17.0407000596      -32.6943975769       28.0999371228  TIP3      339             0.0000000000
     23269       531  TIP3      H2            -17.1824301439      -33.0690204337       26.6355087762  TIP3      339             0.0000000000
     23270       532  TIP3      OH2            -6.2604994718      -28.3578127022       32.7463573376  TIP3      340             0.0000000000
     23271       532  TIP3      H1             -5.8747155682      -29.0461765663       32.1650150153  TIP3      340             0.0000000000
     23272       532  TIP3      H2             -6.7222369913      -28.8882372458       33.4205899696  TIP3      340             0.0000000000
     23273       533  TIP3      OH2            -9.4496053082      -32.3909591848       27.5752756536  TIP3      341             0.0000000000
     23274       533  TIP3      H1            -10.3789082323      -32.3911862422       27.8797834070  TIP3      341             0.0000000000
     23275       533  TIP3      H2             -8.9602410663      -32.5438512757       28.3990358711  TIP3      341             0.0000000000
     23276       534  TIP3      OH2           -14.6799421199      -30.7901950040       26.4197927574  TIP3      342             0.0000000000
     23277       534  TIP3      H1            -15.5673895585      -30.7506054894       26.0507543619  TIP3      342             0.0000000000
     23278       534  TIP3      H2            -14.3183519534      -31.6248536109       26.0690408234  TIP3      342             0.0000000000
     23279       535  TIP3      OH2           -11.0541890416      -30.6666606123       24.2072795369  TIP3      343             0.0000000000
     23280       535  TIP3      H1            -10.0807681618      -30.7781191869       24.2061429677  TIP3      343             0.0000000000
     23281       535  TIP3      H2            -11.2062904423      -30.1793651373       23.3744206075  TIP3      343             0.0000000000
     23282       536  TIP3      OH2            -5.0377212791      -33.1787124385       30.8322462925  TIP3      344             0.0000000000
     23283       536  TIP3      H1             -5.7301258009      -33.0873156160       31.5208290605  TIP3      344             0.0000000000
     23284       536  TIP3      H2             -5.5429764190      -33.4350342901       30.0482686304  TIP3      344             0.0000000000
     23285       537  TIP3      OH2           -12.3256892573      -29.5372658071       21.6577304287  TIP3      345             0.0000000000
     23286       537  TIP3      H1            -12.7949644825      -29.9892550792       20.9476230572  TIP3      345             0.0000000000
     23287       537  TIP3      H2            -11.4490538670      -29.4592193272       21.2390280426  TIP3      345             0.0000000000
     23288       538  TIP3      OH2            -1.8465526981      -17.5083944709       37.1506890277  TIP3      346             0.0000000000
     23289       538  TIP3      H1             -1.5805317790      -17.1243957993       36.2961871958  TIP3      346             0.0000000000
     23290       538  TIP3      H2             -1.1220343022      -17.1878526457       37.7081104544  TIP3      346             0.0000000000
     23291       539  TIP3      OH2           -14.1628261993      -25.0432443818       36.7286518234  TIP3      347             0.0000000000
     23292       539  TIP3      H1            -13.4489706828      -24.7675645332       37.3315400051  TIP3      347             0.0000000000
     23293       539  TIP3      H2            -14.9318638163      -24.9335640731       37.3292607395  TIP3      347             0.0000000000
     23294       540  TIP3      OH2            -8.1650415972      -29.6322273091       29.4736595287  TIP3      348             0.0000000000
     23295       540  TIP3      H1             -7.5701277310      -30.1771152078       28.9443522144  TIP3      348             0.0000000000
     23296       540  TIP3      H2             -8.3192460656      -30.1756891682       30.2589478075  TIP3      348             0.0000000000
     23297       541  TIP3      OH2           -13.2068333257      -33.4571496765       25.8922428683  TIP3      349             0.0000000000
     23298       541  TIP3      H1            -13.4484966942      -34.3954021717       25.9389546852  TIP3      349             0.0000000000
     23299       541  TIP3      H2            -12.3809474560      -33.5049845948       25.3761360066  TIP3      349             0.0000000000
     23300       542  TIP3      OH2            -9.5189999929      -31.2503633009       31.8773646795  TIP3      350             0.0000000000
     23301       542  TIP3      H1            -10.3641638687      -30.7667772915       31.9880512259  TIP3      350             0.0000000000
     23302       542  TIP3      H2             -8.9760846694      -30.9372606196       32.6232682841  TIP3      350             0.0000000000
     23303       543  TIP3      OH2            -8.9374738670      -25.1076992717       23.6204625808  TIP3      351             0.0000000000
     23304       543  TIP3      H1             -9.7379729650      -25.5427660047       23.2533217588  TIP3      351             0.0000000000
     23305       543  TIP3      H2             -9.1851304216      -24.9219359513       24.5450655292  TIP3      351             0.0000000000
     23306       544  TIP3      OH2            -1.7572575083      -25.8686150548       32.3958019708  TIP3      352             0.0000000000
     23307       544  TIP3      H1             -1.1791458432      -25.4082183926       31.7589340085  TIP3      352             0.0000000000
     23308       544  TIP3      H2             -2.6140483782      -25.8270493630       31.9250029486  TIP3      352             0.0000000000
     23309       545  TIP3      OH2            -7.4497569327      -24.8067705296       34.8349953702  TIP3      353             0.0000000000
     23310       545  TIP3      H1             -7.7989569673      -25.2367053498       35.6229656872  TIP3      353             0.0000000000
     23311       545  TIP3      H2             -7.7079382275      -23.8859291496       34.9426501322  TIP3      353             0.0000000000
     23312       546  TIP3      OH2           -13.8398192443      -25.6755846064       29.3933452402  TIP3      354             0.0000000000
     23313       546  TIP3      H1            -13.1662945115      -25.7696213046       28.6874433877  TIP3      354             0.0000000000
     23314       546  TIP3      H2            -13.7664141756      -26.5352341190       29.8495541566  TIP3      354             0.0000000000
     23315       547  TIP3      OH2            -6.8191308028      -23.6026243958       22.7986762852  TIP3      355             0.0000000000
     23316       547  TIP3      H1             -7.2264502483      -22.7287000890       22.9256858304  TIP3      355             0.0000000000
     23317       547  TIP3      H2             -7.6011525310      -24.1876954410       22.8048116232  TIP3      355             0.0000000000
     23318       548  TIP3      OH2           -16.8458752683      -27.2809415552       34.6428992082  TIP3      356             0.0000000000
     23319       548  TIP3      H1            -16.6766163236      -27.7150809955       35.4974772215  TIP3      356             0.0000000000
     23320       548  TIP3      H2            -17.4649893245      -27.8904170273       34.2085623918  TIP3      356             0.0000000000
     23321       549  TIP3      OH2            -9.8319766453      -27.7230931024       36.8278691914  TIP3      357             0.0000000000
     23322       549  TIP3      H1            -10.1484557117      -28.0286621050       35.9662101504  TIP3      357             0.0000000000
     23323       549  TIP3      H2             -8.9076243678      -28.0443446766       36.8261842111  TIP3      357             0.0000000000
     23324       550  TIP3      OH2            -5.1432143741      -22.3838821731       34.7830270683  TIP3      358             0.0000000000
     23325       550  TIP3      H1             -6.0687012038      -22.2059956179       34.5492217581  TIP3      358             0.0000000000
     23326       550  TIP3      H2             -5.1770315882      -22.0909801623       35.7138023144  TIP3      358             0.0000000000
     23327       551  TIP3      OH2             0.4611237474      -30.1854421838       23.2189751794  TIP3      359             0.0000000000
     23328       551  TIP3      H1              0.0492035052      -30.5382177210       22.4203157848  TIP3      359             0.0000000000
     23329       551  TIP3      H2              0.6295484321      -29.2626744511       22.9160750806  TIP3      359             0.0000000000
     23330       552  TIP3      OH2             0.5117209926      -24.3389038255       35.9746172097  TIP3      360             0.0000000000
     23331       552  TIP3      H1             -0.3816083519      -24.1221246145       35.6098112506  TIP3      360             0.0000000000
     23332       552  TIP3      H2              1.0571660460      -24.3955883144       35.1627395809  TIP3      360             0.0000000000
     23333       553  TIP3      OH2            -1.1452894986      -21.3745783519       23.5794502874  TIP3      361             0.0000000000
     23334       553  TIP3      H1             -1.5747732591      -22.1903913642       23.8748975616  TIP3      361             0.0000000000
     23335       553  TIP3      H2             -0.9286074243      -21.5280974193       22.6421739094  TIP3      361             0.0000000000
     23336       554  TIP3      OH2            -3.9834415564      -26.5520612916       30.6791133392  TIP3      362             0.0000000000
     23337       554  TIP3      H1             -4.9238243561      -26.7678217531       30.5639173144  TIP3      362             0.0000000000
     23338       554  TIP3      H2             -3.5517405922      -27.3118615117       30.2409422791  TIP3      362             0.0000000000
     23339       555  TIP3      OH2           -11.4706294822      -22.2370461795       26.7832226157  TIP3      363             0.0000000000
     23340       555  TIP3      H1            -10.9661871891      -21.4307975563       26.5495485183  TIP3      363             0.0000000000
     23341       555  TIP3      H2            -12.3375890799      -21.9966200466       26.4323399125  TIP3      363             0.0000000000
     23342       556  TIP3      OH2           -10.0272395951      -24.5795681646       26.3423197569  TIP3      364             0.0000000000
     23343       556  TIP3      H1            -10.3554348222      -23.6572456332       26.3702718682  TIP3      364             0.0000000000
     23344       556  TIP3      H2            -10.7721946702      -25.0606742294       26.7474990883  TIP3      364             0.0000000000
     23345       557  TIP3      OH2            -9.5997702686      -20.3781668017       32.7045158018  TIP3      365             0.0000000000
     23346       557  TIP3      H1             -9.1343341048      -19.5766120882       32.4139408899  TIP3      365             0.0000000000
     23347       557  TIP3      H2             -8.9819724983      -20.7191712849       33.3766940656  TIP3      365             0.0000000000
     23348       558  TIP3      OH2           -11.3407679935      -19.6095237314       25.9266862359  TIP3      366             0.0000000000
     23349       558  TIP3      H1            -12.2975267134      -19.4108115895       25.9432906580  TIP3      366             0.0000000000
     23350       558  TIP3      H2            -10.9485025146      -18.7496370338       26.1598504139  TIP3      366             0.0000000000
     23351       559  TIP3      OH2            -6.0760920875      -24.3855857351       32.3191171666  TIP3      367             0.0000000000
     23352       559  TIP3      H1             -6.3951112627      -24.5744147419       33.2262486272  TIP3      367             0.0000000000
     23353       559  TIP3      H2             -5.4313322815      -25.0919630929       32.1528734839  TIP3      367             0.0000000000
     23354       560  TIP3      OH2            -3.2555108616      -19.7987840942       34.8023830259  TIP3      368             0.0000000000
     23355       560  TIP3      H1             -3.9461208496      -20.2906350716       34.3188628754  TIP3      368             0.0000000000
     23356       560  TIP3      H2             -3.0745099745      -19.0991965862       34.1377934274  TIP3      368             0.0000000000
     23357       561  TIP3      OH2             0.7630244086      -18.8909225273       21.7458323134  TIP3      369             0.0000000000
     23358       561  TIP3      H1              1.4699409563      -18.3038823712       21.4397883284  TIP3      369             0.0000000000
     23359       561  TIP3      H2              0.0082865453      -18.3029821177       21.9229311994  TIP3      369             0.0000000000
     23360       562  TIP3      OH2           -15.1949606733      -32.5473191155       34.2427849238  TIP3      370             0.0000000000
     23361       562  TIP3      H1            -16.1033180393      -32.2040590205       34.1486288573  TIP3      370             0.0000000000
     23362       562  TIP3      H2            -15.3351258471      -33.4435991181       34.5917088444  TIP3      370             0.0000000000
     23363       563  TIP3      OH2            -2.9515031494      -24.7230377746       23.6705558901  TIP3      371             0.0000000000
     23364       563  TIP3      H1             -3.1990940246      -25.4685448071       24.2391925863  TIP3      371             0.0000000000
     23365       563  TIP3      H2             -2.0017951687      -24.6280600707       23.8229422025  TIP3      371             0.0000000000
     23366       564  TIP3      OH2           -15.5869503172      -20.7833461431       32.6165375354  TIP3      372             0.0000000000
     23367       564  TIP3      H1            -15.2521319472      -21.6898012217       32.6470037346  TIP3      372             0.0000000000
     23368       564  TIP3      H2            -15.3249750124      -20.4666358674       33.4909420426  TIP3      372             0.0000000000
     23369       565  TIP3      OH2           -14.3187371086      -25.4857821894       22.8503063259  TIP3      373             0.0000000000
     23370       565  TIP3      H1            -14.9968328337      -25.0737788010       23.4015968827  TIP3      373             0.0000000000
     23371       565  TIP3      H2            -13.8119107059      -24.7011501941       22.5755096528  TIP3      373             0.0000000000
     23372       566  TIP3      OH2            -6.4544202297      -32.7705052837       33.1571545657  TIP3      374             0.0000000000
     23373       566  TIP3      H1             -5.7268802989      -32.7371896784       33.7900064173  TIP3      374             0.0000000000
     23374       566  TIP3      H2             -6.8224029424      -33.6607684361       33.3285374071  TIP3      374             0.0000000000
     23375       567  TIP3      OH2            -8.4574531777      -31.5040495086       25.0710214073  TIP3      375             0.0000000000
     23376       567  TIP3      H1             -7.7207589910      -30.8680165800       25.1092815490  TIP3      375             0.0000000000
     23377       567  TIP3      H2             -8.7782555165      -31.5919515620       25.9877601228  TIP3      375             0.0000000000
     23378       568  TIP3      OH2            -7.9295141884      -30.4277610286       34.2635183254  TIP3      376             0.0000000000
     23379       568  TIP3      H1             -7.8512782939      -29.8757343399       35.0649952442  TIP3      376             0.0000000000
     23380       568  TIP3      H2             -7.2652039479      -31.1232288299       34.3557191501  TIP3      376             0.0000000000
     23381       569  TIP3      OH2            -7.5441153752      -34.4085443191       26.0503506967  TIP3      377             0.0000000000
     23382       569  TIP3      H1             -8.0028755857      -33.7336363756       26.5874009522  TIP3      377             0.0000000000
     23383       569  TIP3      H2             -6.9679961282      -33.8154275101       25.5461598980  TIP3      377             0.0000000000
     23384       570  TIP3      OH2            -1.7460266639      -32.5528047085       35.1111562845  TIP3      378             0.0000000000
     23385       570  TIP3      H1             -2.6735279318      -32.2328512610       34.9757360527  TIP3      378             0.0000000000
     23386       570  TIP3      H2             -1.4322207258      -32.5662687875       34.1851472691  TIP3      378             0.0000000000
     23387       571  TIP3      OH2            -3.1520527391      -28.7600614905       29.1427414247  TIP3      379             0.0000000000
     23388       571  TIP3      H1             -3.9600579521      -29.2138493330       28.8295736544  TIP3      379             0.0000000000
     23389       571  TIP3      H2             -2.6616003532      -29.4602298779       29.6308728844  TIP3      379             0.0000000000
     23390       572  TIP3      OH2           -13.7014547607      -22.8959274950       21.7642065699  TIP3      380             0.0000000000
     23391       572  TIP3      H1            -13.0866560813      -22.1769045551       22.0286269748  TIP3      380             0.0000000000
     23392       572  TIP3      H2            -13.2006908353      -23.2348836254       21.0093383356  TIP3      380             0.0000000000
     23393       573  TIP3      OH2            -2.0749279554      -19.5104223751       30.7848503699  TIP3      381             0.0000000000
     23394       573  TIP3      H1             -2.1698633502      -18.8291964979       30.0895882188  TIP3      381             0.0000000000
     23395       573  TIP3      H2             -1.1116030631      -19.4568012141       30.9567783769  TIP3      381             0.0000000000
     23396       574  TIP3      OH2           -14.8559328285      -35.2159393803       29.6129988005  TIP3      382             0.0000000000
     23397       574  TIP3      H1            -14.7617755727      -35.3327188665       28.6450889460  TIP3      382             0.0000000000
     23398       574  TIP3      H2            -14.9678429852      -36.1397389477       29.8633280923  TIP3      382             0.0000000000
     23399       575  TIP3      OH2           -15.6830812736      -21.4887940009       25.7046568412  TIP3      383             0.0000000000
     23400       575  TIP3      H1            -16.4823555724      -20.9483464270       25.6839120973  TIP3      383             0.0000000000
     23401       575  TIP3      H2            -15.1437491423      -21.0197073072       25.0417152110  TIP3      383             0.0000000000
     23402       576  TIP3      OH2           -16.4337332063      -18.8146522006       37.0229993069  TIP3      384             0.0000000000
     23403       576  TIP3      H1            -15.8112382861      -19.0201321747       37.7514676330  TIP3      384             0.0000000000
     23404       576  TIP3      H2            -16.8198271179      -19.6868705398       36.8376624095  TIP3      384             0.0000000000
     23405       577  TIP3      OH2           -11.3511814342      -19.6565822943       38.4292462523  TIP3      385             0.0000000000
     23406       577  TIP3      H1            -11.0479674569      -20.3947288881       38.9774606122  TIP3      385             0.0000000000
     23407       577  TIP3      H2            -11.7928412873      -20.1671520370       37.7228600302  TIP3      385             0.0000000000
     23408       578  TIP3      OH2            -5.2408907119      -21.5125984010       37.3764397008  TIP3      386             0.0000000000
     23409       578  TIP3      H1             -5.5568783333      -22.3995853689       37.6518698654  TIP3      386             0.0000000000
     23410       578  TIP3      H2             -4.4730840782      -21.3940690966       37.9698350431  TIP3      386             0.0000000000
     23411       579  TIP3      OH2           -16.5308249643      -25.0586128741       38.0254411125  TIP3      387             0.0000000000
     23412       579  TIP3      H1            -16.3414708774      -25.9559662602       37.7062685541  TIP3      387             0.0000000000
     23413       579  TIP3      H2            -17.2459264637      -24.7730389051       37.4367213865  TIP3      387             0.0000000000
     23414       580  TIP3      OH2            -9.7732580284      -25.0584791447       37.3926138715  TIP3      388             0.0000000000
     23415       580  TIP3      H1            -10.1451362068      -24.7357348749       36.5476164442  TIP3      388             0.0000000000
     23416       580  TIP3      H2             -9.7357835440      -26.0376530831       37.2943562532  TIP3      388             0.0000000000
     23417       581  TIP3      OH2            -4.1016618580      -25.1954388291       34.7931612937  TIP3      389             0.0000000000
     23418       581  TIP3      H1             -3.3135095002      -24.6129582223       34.7305831541  TIP3      389             0.0000000000
     23419       581  TIP3      H2             -4.8013366267      -24.5274755604       34.8288034402  TIP3      389             0.0000000000
     23420       582  TIP3      OH2           -15.5931470987      -27.8039635933       37.3958607173  TIP3      390             0.0000000000
     23421       582  TIP3      H1            -15.1684433020      -28.6598855714       37.2994773096  TIP3      390             0.0000000000
     23422       582  TIP3      H2            -15.8249805304      -27.8021630505       38.3390752579  TIP3      390             0.0000000000
     23423       583  TIP3      OH2           -10.8881755932      -26.7338495405       22.4566839181  TIP3      391             0.0000000000
     23424       583  TIP3      H1            -11.4438877823      -27.2045329655       23.0937723298  TIP3      391             0.0000000000
     23425       583  TIP3      H2            -10.7050016932      -27.4119696078       21.7949177510  TIP3      391             0.0000000000
     23426       584  TIP3      OH2           -11.7012214566      -28.8867286214       34.7505927797  TIP3      392             0.0000000000
     23427       584  TIP3      H1            -12.2875964917      -28.1543908603       35.0038054108  TIP3      392             0.0000000000
     23428       584  TIP3      H2            -11.2981385654      -28.5124410132       33.9463924968  TIP3      392             0.0000000000
     23429       585  TIP3      OH2            -6.6208328630      -26.3037958532       38.0870202204  TIP3      393             0.0000000000
     23430       585  TIP3      H1             -5.6643939998      -26.3150148630       37.9630553634  TIP3      393             0.0000000000
     23431       585  TIP3      H2             -6.7909248797      -27.0741721901       38.6520433943  TIP3      393             0.0000000000
     23432       586  TIP3      OH2            -0.5361679210      -26.1274327713       20.1105553510  TIP3      394             0.0000000000
     23433       586  TIP3      H1             -0.7472711148      -26.5098920435       19.2580495907  TIP3      394             0.0000000000
     23434       586  TIP3      H2             -0.4734910514      -25.1839738285       19.8787390426  TIP3      394             0.0000000000
     23435       587  TIP3      OH2           -11.3151220616      -31.5084575935       35.8057290813  TIP3      395             0.0000000000
     23436       587  TIP3      H1            -11.1552668184      -32.2087253350       35.1516367828  TIP3      395             0.0000000000
     23437       587  TIP3      H2            -11.3379167184      -30.6915422776       35.2591664667  TIP3      395             0.0000000000
     23438       588  TIP3      OH2           -10.8902157588      -33.0869924572       33.3224980712  TIP3      396             0.0000000000
     23439       588  TIP3      H1            -10.3726338638      -32.6160074599       32.6300637150  TIP3      396             0.0000000000
     23440       588  TIP3      H2            -11.7843289521      -33.1951989615       32.9205841059  TIP3      396             0.0000000000
     23441       589  TIP3      OH2            -9.3519285888      -27.6246104292       33.6057307758  TIP3      397             0.0000000000
     23442       589  TIP3      H1             -8.5944812084      -27.7893650904       33.0334625790  TIP3      397             0.0000000000
     23443       589  TIP3      H2             -9.7117715929      -26.7890674337       33.2668609600  TIP3      397             0.0000000000
     23444       590  TIP3      OH2            -4.9529991701      -29.8741114397       38.5603619609  TIP3      398             0.0000000000
     23445       590  TIP3      H1             -4.7156147128      -30.8108001505       38.4735522317  TIP3      398             0.0000000000
     23446       590  TIP3      H2             -4.0872657059      -29.4313988385       38.5975421268  TIP3      398             0.0000000000
     23447       591  TIP3      OH2            -3.6099801305      -27.0759690109       36.7335259806  TIP3      399             0.0000000000
     23448       591  TIP3      H1             -3.8614515448      -26.3563749270       36.1140237739  TIP3      399             0.0000000000
     23449       591  TIP3      H2             -2.6507631502      -27.1096790164       36.5439889715  TIP3      399             0.0000000000
     23450       592  TIP3      OH2           -12.8157091000      -30.2665682525       37.7486730170  TIP3      400             0.0000000000
     23451       592  TIP3      H1            -13.5941317430      -30.7953545898       37.5120497612  TIP3      400             0.0000000000
     23452       592  TIP3      H2            -12.1555187429      -30.5807009577       37.1028604741  TIP3      400             0.0000000000
     23453       593  TIP3      OH2           -10.2659294548      -35.4760014146       34.0242910390  TIP3      401             0.0000000000
     23454       593  TIP3      H1            -10.3043702024      -34.5370169089       33.7187935930  TIP3      401             0.0000000000
     23455       593  TIP3      H2            -10.8184968254      -35.9029467587       33.3601531765  TIP3      401             0.0000000000
     23456       594  TIP3      OH2            -8.8514366720      -31.3148566536       37.3633833337  TIP3      402             0.0000000000
     23457       594  TIP3      H1             -9.1250742254      -31.6245779554       38.2465072767  TIP3      402             0.0000000000
     23458       594  TIP3      H2             -9.6245795765      -31.5651953497       36.8331651926  TIP3      402             0.0000000000
     23459       595  TIP3      OH2            -6.1045673008      -32.1914330923       36.4759580025  TIP3      403             0.0000000000
     23460       595  TIP3      H1             -7.0710426563      -32.1674978211       36.5872329313  TIP3      403             0.0000000000
     23461       595  TIP3      H2             -5.8224773247      -32.8353894329       37.1578635900  TIP3      403             0.0000000000
     23462       596  TIP3      OH2            -4.5157614548      -33.4109656137       38.3936499792  TIP3      404             0.0000000000
     23463       596  TIP3      H1             -4.5780666931      -34.4060193132       38.3530562815  TIP3      404             0.0000000000
     23464       596  TIP3      H2             -4.8023558326      -33.2728810626       39.3094841735  TIP3      404             0.0000000000
     23465       597  TIP3      OH2           -14.7634060969      -32.2809588991       37.4054806439  TIP3      405             0.0000000000
     23466       597  TIP3      H1            -14.3852265486      -32.9790673373       36.8269663779  TIP3      405             0.0000000000
     23467       597  TIP3      H2            -14.5167987060      -32.5388038686       38.3069609140  TIP3      405             0.0000000000
     23468       598  TIP3      OH2            -9.9022940096       36.7166834130       36.4827999877  TIP3      406             0.0000000000
     23469       598  TIP3      H1             -9.2080390937       36.0559310888       36.5282327371  TIP3      406             0.0000000000
     23470       598  TIP3      H2             -9.9978709064       36.9308428188       35.5298146211  TIP3      406             0.0000000000
     23471       599  TIP3      OH2            -9.4734106925      -34.6093875092       38.5209588363  TIP3      407             0.0000000000
     23472       599  TIP3      H1             -9.6687475033      -35.1767714554       37.7475599691  TIP3      407             0.0000000000
     23473       599  TIP3      H2            -10.0990742014      -33.8764232587       38.4516718569  TIP3      407             0.0000000000
     23474       600  TIP3      OH2           -16.4746888999      -23.2356275102       21.2826458398  TIP3      408             0.0000000000
     23475       600  TIP3      H1            -15.5102527514      -23.0352106290       21.3815385139  TIP3      408             0.0000000000
     23476       600  TIP3      H2            -16.4163281468      -23.8133899124       20.4995377978  TIP3      408             0.0000000000
     23477       601  TIP3      OH2           -17.7264343443      -17.7793196856       26.1716191345  TIP3      409             0.0000000000
     23478       601  TIP3      H1            -18.4250886487      -18.2758601922       25.6954204286  TIP3      409             0.0000000000
     23479       601  TIP3      H2            -17.4258862480      -18.4279642966       26.8382694053  TIP3      409             0.0000000000
     23480       602  TIP3      OH2           -16.9140291392      -19.6722417720       28.0409083615  TIP3      410             0.0000000000
     23481       602  TIP3      H1            -17.2385122642      -20.5408546549       28.2803138299  TIP3      410             0.0000000000
     23482       602  TIP3      H2            -16.6482493341      -19.3128376549       28.9096340038  TIP3      410             0.0000000000
     23483       603  TIP3      OH2             0.6429861286      -18.8639061675       30.9799614046  TIP3      411             0.0000000000
     23484       603  TIP3      H1              0.6728468793      -18.7047502736       31.9390037611  TIP3      411             0.0000000000
     23485       603  TIP3      H2              1.3465330210      -18.2823468427       30.6765468050  TIP3      411             0.0000000000
     23486       604  TIP3      OH2             0.2154835915      -19.2712672249       33.9256764247  TIP3      412             0.0000000000
     23487       604  TIP3      H1             -0.2552428124      -20.0419552787       33.5434925745  TIP3      412             0.0000000000
     23488       604  TIP3      H2              0.7024048412      -19.7177093172       34.6382138691  TIP3      412             0.0000000000
     23489       605  TIP3      OH2            -1.3388969795      -23.5503694952       38.5982813633  TIP3      413             0.0000000000
     23490       605  TIP3      H1             -2.2455174242      -23.5782281571       38.9621026819  TIP3      413             0.0000000000
     23491       605  TIP3      H2             -0.9679893717      -22.7444586161       39.0093787024  TIP3      413             0.0000000000
     23492       606  TIP3      OH2            -0.0296513265      -25.2844471344       24.0601107658  TIP3      414             0.0000000000
     23493       606  TIP3      H1              0.7917439706      -24.8321639892       24.2516870553  TIP3      414             0.0000000000
     23494       606  TIP3      H2             -0.0365881613      -25.9879132098       24.7426528503  TIP3      414             0.0000000000
     23495       607  TIP3      OH2             0.3776077557      -27.1330834265       25.9099931682  TIP3      415             0.0000000000
     23496       607  TIP3      H1             -0.3842012900      -27.6347422802       26.2779031281  TIP3      415             0.0000000000
     23497       607  TIP3      H2              0.9329082463      -27.0197090917       26.7032996300  TIP3      415             0.0000000000
     23498       608  TIP3      OH2             0.0952197140      -24.4534639544       30.9039258974  TIP3      416             0.0000000000
     23499       608  TIP3      H1              0.9099970361      -24.8517273173       30.5358891445  TIP3      416             0.0000000000
     23500       608  TIP3      H2              0.2518140157      -23.5014940690       30.7290713845  TIP3      416             0.0000000000
     23501       609  TIP3      OH2            -1.3474978378      -21.5415980205       33.1680322034  TIP3      417             0.0000000000
     23502       609  TIP3      H1             -2.0380841944      -21.2018192598       33.7573230626  TIP3      417             0.0000000000
     23503       609  TIP3      H2             -1.8963624094      -21.9453268337       32.4600658185  TIP3      417             0.0000000000
     23504       610  TIP3      OH2             0.5806176136      -27.3700240657       22.3309958546  TIP3      418             0.0000000000
     23505       610  TIP3      H1              0.1808520980      -26.9207189558       21.5558995633  TIP3      418             0.0000000000
     23506       610  TIP3      H2              0.5776934187      -26.6117354185       22.9370123016  TIP3      418             0.0000000000
     23507       611  TIP3      OH2            -1.8402707106      -28.6660665323       26.4687001409  TIP3      419             0.0000000000
     23508       611  TIP3      H1             -1.9843404956      -29.6227534178       26.4649471870  TIP3      419             0.0000000000
     23509       611  TIP3      H2             -2.1554043015      -28.4461666724       27.3662172213  TIP3      419             0.0000000000
     23510       612  TIP3      OH2           -16.8329792929      -26.5210052071       30.5200707280  TIP3      420             0.0000000000
     23511       612  TIP3      H1            -16.6280657682      -26.7007308177       29.5804363708  TIP3      420             0.0000000000
     23512       612  TIP3      H2            -15.9652369633      -26.7656489220       30.9130404655  TIP3      420             0.0000000000
     23513       613  TIP3      OH2            -0.9751365362      -26.7064487582       36.1763173715  TIP3      421             0.0000000000
     23514       613  TIP3      H1             -0.3585933021      -27.4637869625       36.2885769388  TIP3      421             0.0000000000
     23515       613  TIP3      H2             -0.3765649434      -25.9317434684       36.1782088944  TIP3      421             0.0000000000
     23516       614  TIP3      OH2             0.5046859241      -28.8251630734       36.8701735961  TIP3      422             0.0000000000
     23517       614  TIP3      H1             -0.3691513767      -29.2215287100       36.6652282674  TIP3      422             0.0000000000
     23518       614  TIP3      H2              1.0897788375      -29.5926494089       36.7287585239  TIP3      422             0.0000000000
     23519       615  TIP3      OH2            -2.2075800172      -31.0944093581       24.8860911046  TIP3      423             0.0000000000
     23520       615  TIP3      H1             -1.8663534933      -31.9922114466       25.0807546879  TIP3      423             0.0000000000
     23521       615  TIP3      H2             -1.3864299589      -30.6649334902       24.6028219225  TIP3      423             0.0000000000
     23522       616  TIP3      OH2            -1.6053518389      -30.5533571034       30.3898155114  TIP3      424             0.0000000000
     23523       616  TIP3      H1             -0.6344326433      -30.3145781507       30.3342310585  TIP3      424             0.0000000000
     23524       616  TIP3      H2             -1.7168377610      -30.4043180015       31.3407602231  TIP3      424             0.0000000000
     23525       617  TIP3      OH2            -1.4921745230      -29.8003144588       33.1630774087  TIP3      425             0.0000000000
     23526       617  TIP3      H1             -2.3647832292      -29.5027053894       33.4822404767  TIP3      425             0.0000000000
     23527       617  TIP3      H2             -1.0324079315      -28.9552030497       32.9368474349  TIP3      425             0.0000000000
     23528       618  TIP3      OH2           -17.2407313277      -31.2687064740       36.7288404255  TIP3      426             0.0000000000
     23529       618  TIP3      H1            -16.2874844563      -31.4562881512       36.8394071013  TIP3      426             0.0000000000
     23530       618  TIP3      H2            -17.6971763826      -32.1023017500       36.9389685830  TIP3      426             0.0000000000
     23531       619  TIP3      OH2             0.8648948420      -35.7489158929       38.5288027713  TIP3      427             0.0000000000
     23532       619  TIP3      H1              1.0788226097      -36.4252060966       37.8689739992  TIP3      427             0.0000000000
     23533       619  TIP3      H2              0.8663298389      -34.9279443271       38.0079869301  TIP3      427             0.0000000000
     23534       620  TIP3      OH2            -1.5013993357      -33.7911891437       24.9560080857  TIP3      428             0.0000000000
     23535       620  TIP3      H1             -1.2919806097      -34.2256581259       25.8163574045  TIP3      428             0.0000000000
     23536       620  TIP3      H2             -2.1081602868      -34.4468327763       24.5522189257  TIP3      428             0.0000000000
     23537       621  TIP3      OH2           -16.0473505570      -32.9300108210       29.4913478864  TIP3      429             0.0000000000
     23538       621  TIP3      H1            -15.6261340601      -33.7753507405       29.7910471686  TIP3      429             0.0000000000
     23539       621  TIP3      H2            -15.4845382073      -32.2883844295       29.9501697327  TIP3      429             0.0000000000
     23540       622  TIP3      OH2           -17.7359799635      -30.0038974218       30.5935850023  TIP3      430             0.0000000000
     23541       622  TIP3      H1            -17.1730811360      -30.2467602641       29.8321102968  TIP3      430             0.0000000000
     23542       622  TIP3      H2            -17.2683655171      -29.2014462543       30.8605136201  TIP3      430             0.0000000000
     23543       623  TIP3      OH2             0.3246968870      -33.7165044932       36.8545949459  TIP3      431             0.0000000000
     23544       623  TIP3      H1             -0.5977026678      -33.3966549401       36.7971516734  TIP3      431             0.0000000000
     23545       623  TIP3      H2              0.3640693586      -34.2255534238       36.0304147163  TIP3      431             0.0000000000
     23546       624  TIP3      OH2            -2.6634299847      -18.7543474191       26.5834750160  TIP3      432             0.0000000000
     23547       624  TIP3      H1             -1.9598182354      -19.0811135319       25.9923039641  TIP3      432             0.0000000000
     23548       624  TIP3      H2             -2.1521104735      -18.2688341688       27.2482199557  TIP3      432             0.0000000000
     23549       625  TIP3      OH2           -17.4155913240      -34.9914444622       32.9892196968  TIP3      433             0.0000000000
     23550       625  TIP3      H1            -18.1132307676      -35.2545207728       33.6059175241  TIP3      433             0.0000000000
     23551       625  TIP3      H2            -17.8912795501      -34.4064589967       32.3762249230  TIP3      433             0.0000000000
     23552       626  TIP3      OH2           -15.2759879579      -22.0271113531       37.0110766416  TIP3      434             0.0000000000
     23553       626  TIP3      H1            -16.0844140749      -21.6393161635       36.6744798120  TIP3      434             0.0000000000
     23554       626  TIP3      H2            -15.3427611161      -21.9005602221       37.9792674222  TIP3      434             0.0000000000
     23555       627  TIP3      OH2           -12.2990802552      -20.8821386478       33.3966665657  TIP3      435             0.0000000000
     23556       627  TIP3      H1            -12.6144993484      -20.0093598014       33.1227927972  TIP3      435             0.0000000000
     23557       627  TIP3      H2            -11.3675731711      -20.7946541650       33.0959503402  TIP3      435             0.0000000000
     23558       628  TIP3      OH2            -7.9615609849      -19.4520423949       36.2935919937  TIP3      436             0.0000000000
     23559       628  TIP3      H1             -7.8297835392      -19.8013125683       37.2058399434  TIP3      436             0.0000000000
     23560       628  TIP3      H2             -7.0605450560      -19.1462551861       36.0558699283  TIP3      436             0.0000000000
     23561       629  TIP3      OH2            -5.6768668364      -18.1831152522       35.6099342300  TIP3      437             0.0000000000
     23562       629  TIP3      H1             -4.9453197945      -18.7678747968       35.3704730228  TIP3      437             0.0000000000
     23563       629  TIP3      H2             -5.3013510439      -17.7439647201       36.4026693671  TIP3      437             0.0000000000
     23564       630  TIP3      OH2            -0.6526861824      -35.5404722793       34.6140464262  TIP3      438             0.0000000000
     23565       630  TIP3      H1             -1.5128804881      -35.2604698032       34.2616035175  TIP3      438             0.0000000000
     23566       630  TIP3      H2             -0.5045665825      -36.4048162926       34.1687867058  TIP3      438             0.0000000000
     23567       631  TIP3      OH2           -14.8621965017      -17.6418278541       33.3866617279  TIP3      439             0.0000000000
     23568       631  TIP3      H1            -15.5919045646      -17.1372709573       32.9910913695  TIP3      439             0.0000000000
     23569       631  TIP3      H2            -15.1703735109      -17.8221456939       34.2851818081  TIP3      439             0.0000000000
     23570       632  TIP3      OH2           -12.3931981050      -18.0587474446       32.4618116931  TIP3      440             0.0000000000
     23571       632  TIP3      H1            -13.2841504536      -17.8971173721       32.8515216931  TIP3      440             0.0000000000
     23572       632  TIP3      H2            -12.4415895223      -17.4719084930       31.6842905780  TIP3      440             0.0000000000
     23573       633  TIP3      OH2            -7.7066111350      -18.1581624879       31.6556673428  TIP3      441             0.0000000000
     23574       633  TIP3      H1             -8.1318553267      -17.6126390260       30.9663048109  TIP3      441             0.0000000000
     23575       633  TIP3      H2             -7.5513989307      -17.4986876199       32.3596786170  TIP3      441             0.0000000000
     23576       634  TIP3      OH2            -5.4069979952      -19.3384951764       32.6635036675  TIP3      442             0.0000000000
     23577       634  TIP3      H1             -6.2483823709      -19.0586029007       32.2623801661  TIP3      442             0.0000000000
     23578       634  TIP3      H2             -4.9139726353      -18.5046019004       32.5700092657  TIP3      442             0.0000000000
     23579       635  TIP3      OH2            -2.8141770641      -17.7713946781       32.8800043000  TIP3      443             0.0000000000
     23580       635  TIP3      H1             -2.8680430895      -16.8108948017       32.6508633699  TIP3      443             0.0000000000
     23581       635  TIP3      H2             -2.5983466853      -18.1445081278       32.0020432170  TIP3      443             0.0000000000
     23582       636  TIP3      OH2           -15.4001102798      -18.9905136757       30.3326807859  TIP3      444             0.0000000000
     23583       636  TIP3      H1            -15.4862536067      -19.4534639521       31.1923958298  TIP3      444             0.0000000000
     23584       636  TIP3      H2            -14.5852074454      -19.3694861049       29.9443264142  TIP3      444             0.0000000000
     23585       637  TIP3      OH2           -13.3292425064      -20.2712272398       29.0024168610  TIP3      445             0.0000000000
     23586       637  TIP3      H1            -13.4698662214      -21.2104332593       29.2232945765  TIP3      445             0.0000000000
     23587       637  TIP3      H2            -12.4513129503      -20.1117039879       29.4172905005  TIP3      445             0.0000000000
     23588       638  TIP3      OH2           -10.7727309460      -19.8015408003       29.8941699231  TIP3      446             0.0000000000
     23589       638  TIP3      H1            -10.5473121157      -20.6949307884       29.5786547507  TIP3      446             0.0000000000
     23590       638  TIP3      H2            -10.6701336073      -19.8811995602       30.8488400553  TIP3      446             0.0000000000
     23591       639  TIP3      OH2            -7.3858731857      -34.0765546198       28.9802441330  TIP3      447             0.0000000000
     23592       639  TIP3      H1             -7.9799677380      -34.7938246746       29.2516458233  TIP3      447             0.0000000000
     23593       639  TIP3      H2             -6.7028510633      -34.5741665845       28.4941582696  TIP3      447             0.0000000000
     23594       640  TIP3      OH2            -2.1412721600      -36.0376929458       29.1189075365  TIP3      448             0.0000000000
     23595       640  TIP3      H1             -1.5094637689      -35.5335857495       28.5602925360  TIP3      448             0.0000000000
     23596       640  TIP3      H2             -3.0059594270      -35.7126284468       28.8572900919  TIP3      448             0.0000000000
     23597       641  TIP3      OH2            -0.4567464718      -34.8201752285       27.3024098480  TIP3      449             0.0000000000
     23598       641  TIP3      H1              0.1988345021      -35.4413859815       26.9509842588  TIP3      449             0.0000000000
     23599       641  TIP3      H2              0.0629595910      -33.9991557475       27.4275291313  TIP3      449             0.0000000000
     23600       642  TIP3      OH2           -14.8748906107      -35.4763030404       26.7805596284  TIP3      450             0.0000000000
     23601       642  TIP3      H1            -15.6848298341      -35.7657064061       26.3681958728  TIP3      450             0.0000000000
     23602       642  TIP3      H2            -14.4202852477      -36.3257900353       26.9171713773  TIP3      450             0.0000000000
     23603       643  TIP3      OH2           -10.3311217947      -35.7014419992       26.6045155476  TIP3      451             0.0000000000
     23604       643  TIP3      H1             -9.5120588281      -35.1796377697       26.5826848218  TIP3      451             0.0000000000
     23605       643  TIP3      H2            -10.4658374245      -35.8069982871       27.5558439261  TIP3      451             0.0000000000
     23606       644  TIP3      OH2            -4.9593730803      -35.2105793585       28.4273956233  TIP3      452             0.0000000000
     23607       644  TIP3      H1             -4.8334012863      -35.2500126597       27.4756840007  TIP3      452             0.0000000000
     23608       644  TIP3      H2             -5.0653396725      -36.1848496957       28.5592261232  TIP3      452             0.0000000000
     23609       645  TIP3      OH2            -3.4377794017      -35.4769935084       23.9220386346  TIP3      453             0.0000000000
     23610       645  TIP3      H1             -4.2153576472      -34.9505896097       23.7701708771  TIP3      453             0.0000000000
     23611       645  TIP3      H2             -3.8140910400      -36.3573124393       24.1002341396  TIP3      453             0.0000000000
     23612       646  TIP3      OH2           -16.3534533552      -19.7939781295       23.6577986964  TIP3      454             0.0000000000
     23613       646  TIP3      H1            -16.7981605921      -19.7593730907       22.8037095335  TIP3      454             0.0000000000
     23614       646  TIP3      H2            -16.1436693689      -18.8491231994       23.7374474664  TIP3      454             0.0000000000
     23615       647  TIP3      OH2            -0.6753569228      -18.9727879508       24.6672029344  TIP3      455             0.0000000000
     23616       647  TIP3      H1             -0.8368569657      -19.7606700558       24.0811965845  TIP3      455             0.0000000000
     23617       647  TIP3      H2             -0.6856328332      -18.2689968282       23.9831775169  TIP3      455             0.0000000000
     23618       648  TIP3      OH2           -15.1879506538      -34.9090613796       36.3639467225  TIP3      456             0.0000000000
     23619       648  TIP3      H1            -15.4306359781      -35.8102300753       36.6335107608  TIP3      456             0.0000000000
     23620       648  TIP3      H2            -14.2144381369      -34.9906195873       36.5721297379  TIP3      456             0.0000000000
     23621       649  TIP3      OH2           -13.2849847771      -35.3748435184       37.8605702254  TIP3      457             0.0000000000
     23622       649  TIP3      H1            -12.3404477231      -35.5678791731       37.7043757314  TIP3      457             0.0000000000
     23623       649  TIP3      H2            -13.4113234067      -36.2552540014       38.2757374673  TIP3      457             0.0000000000
     23624       650  TIP3      OH2            -4.5873922243       37.1825343470       38.0551407767  TIP3      458             0.0000000000
     23625       650  TIP3      H1             -4.6503894800       36.5006392066       38.7644026121  TIP3      458             0.0000000000
     23626       650  TIP3      H2             -3.7767149329       36.8274073457       37.6820751637  TIP3      458             0.0000000000
     23627       651  TIP3      OH2            -1.3988068394      -20.2547675608       36.7231789666  TIP3      459             0.0000000000
     23628       651  TIP3      H1             -2.2027984119      -20.3909911419       36.1765974720  TIP3      459             0.0000000000
     23629       651  TIP3      H2             -1.5146374316      -19.3078282710       36.9407573404  TIP3      459             0.0000000000
     23630       652  TIP3      OH2            13.0382890587      -26.3765900144       26.7120896153  TIP3      460             0.0000000000
     23631       652  TIP3      H1             13.0412214790      -25.3971175265       26.6608717600  TIP3      460             0.0000000000
     23632       652  TIP3      H2             12.3300645783      -26.6055376599       26.0889976528  TIP3      460             0.0000000000
     23633       653  TIP3      OH2            11.8964106583      -27.1230006221       30.2081014404  TIP3      461             0.0000000000
     23634       653  TIP3      H1             11.8843366921      -27.7730961646       30.9262279838  TIP3      461             0.0000000000
     23635       653  TIP3      H2             11.5528322478      -27.6309489347       29.4552140158  TIP3      461             0.0000000000
     23636       654  TIP3      OH2             4.3411928795      -27.2903343697       31.7136002144  TIP3      462             0.0000000000
     23637       654  TIP3      H1              4.2729547926      -28.0631114963       32.3224871717  TIP3      462             0.0000000000
     23638       654  TIP3      H2              5.1079910392      -26.8231651000       32.0489108114  TIP3      462             0.0000000000
     23639       655  TIP3      OH2            15.5827801212      -24.1806095463       28.4940918030  TIP3      463             0.0000000000
     23640       655  TIP3      H1             15.1725567346      -24.8940463863       28.9903440106  TIP3      463             0.0000000000
     23641       655  TIP3      H2             15.6151905609      -23.4660097173       29.1538699248  TIP3      463             0.0000000000
     23642       656  TIP3      OH2             5.1757625113      -23.0028560963       30.2704975077  TIP3      464             0.0000000000
     23643       656  TIP3      H1              4.8679093187      -23.8673247476       29.9395738331  TIP3      464             0.0000000000
     23644       656  TIP3      H2              6.1330582050      -23.1820487729       30.3032492065  TIP3      464             0.0000000000
     23645       657  TIP3      OH2             1.8436587332      -29.4076945861       25.7333481662  TIP3      465             0.0000000000
     23646       657  TIP3      H1              1.3603351471      -28.5629729181       25.6980151981  TIP3      465             0.0000000000
     23647       657  TIP3      H2              1.2752459446      -29.9620544140       25.1837401306  TIP3      465             0.0000000000
     23648       658  TIP3      OH2             2.5375462889      -27.1922425762       27.8568432633  TIP3      466             0.0000000000
     23649       658  TIP3      H1              2.7752483424      -28.0186591017       28.3397682995  TIP3      466             0.0000000000
     23650       658  TIP3      H2              3.2566826592      -27.1282744132       27.2238193683  TIP3      466             0.0000000000
     23651       659  TIP3      OH2            12.7129066734      -19.0133544498       28.7272068589  TIP3      467             0.0000000000
     23652       659  TIP3      H1             13.3576857767      -19.7035197336       28.4329324593  TIP3      467             0.0000000000
     23653       659  TIP3      H2             12.4928443829      -19.3536710054       29.5945766558  TIP3      467             0.0000000000
     23654       660  TIP3      OH2            10.2769307717      -24.7252852706       30.6784123392  TIP3      468             0.0000000000
     23655       660  TIP3      H1             10.6144127888      -25.3504547748       30.0188761794  TIP3      468             0.0000000000
     23656       660  TIP3      H2             11.0877102331      -24.5654233088       31.1925606780  TIP3      468             0.0000000000
     23657       661  TIP3      OH2            18.8562788419      -33.0636187063       31.4014767468  TIP3      469             0.0000000000
     23658       661  TIP3      H1             19.0541412741      -32.4962927224       32.1790937539  TIP3      469             0.0000000000
     23659       661  TIP3      H2             19.4213661465      -32.6375333130       30.7444974067  TIP3      469             0.0000000000
     23660       662  TIP3      OH2            13.4453048355      -30.2546731958       31.0013354960  TIP3      470             0.0000000000
     23661       662  TIP3      H1             13.5967807756      -31.2211877687       31.0012152155  TIP3      470             0.0000000000
     23662       662  TIP3      H2             13.3391580099      -30.1082881691       30.0403953801  TIP3      470             0.0000000000
     23663       663  TIP3      OH2             6.5875061930      -32.1694857255       28.1959982285  TIP3      471             0.0000000000
     23664       663  TIP3      H1              6.6644529406      -31.3219642413       27.7320700634  TIP3      471             0.0000000000
     23665       663  TIP3      H2              6.1603000836      -32.7216282148       27.5105928943  TIP3      471             0.0000000000
     23666       664  TIP3      OH2            14.2915121079      -32.1072759182       26.5855841376  TIP3      472             0.0000000000
     23667       664  TIP3      H1             14.9568421518      -32.3898541762       27.2524911160  TIP3      472             0.0000000000
     23668       664  TIP3      H2             14.8470176158      -31.5327911155       26.0385943177  TIP3      472             0.0000000000
     23669       665  TIP3      OH2             3.2057292951      -29.7322293861       28.8986971956  TIP3      473             0.0000000000
     23670       665  TIP3      H1              3.8100871756      -30.2854533670       29.4336971212  TIP3      473             0.0000000000
     23671       665  TIP3      H2              3.2983230604      -30.1000997438       28.0128835723  TIP3      473             0.0000000000
     23672       666  TIP3      OH2             8.3415609452      -28.2039510017       28.2720725793  TIP3      474             0.0000000000
     23673       666  TIP3      H1              9.0195640554      -28.7800680968       28.6650362767  TIP3      474             0.0000000000
     23674       666  TIP3      H2              7.8240384385      -28.8712842215       27.7775679735  TIP3      474             0.0000000000
     23675       667  TIP3      OH2            19.3493258943      -31.6315841686       33.6700742083  TIP3      475             0.0000000000
     23676       667  TIP3      H1             18.6941849436      -30.9088244322       33.5796971321  TIP3      475             0.0000000000
     23677       667  TIP3      H2             19.3510446072      -31.7663422847       34.6240447263  TIP3      475             0.0000000000
     23678       668  TIP3      OH2             5.4664972892      -33.2042265454       32.2238349058  TIP3      476             0.0000000000
     23679       668  TIP3      H1              5.1430602110      -32.6472202923       31.4880107747  TIP3      476             0.0000000000
     23680       668  TIP3      H2              4.7735669775      -33.0028105272       32.9064240398  TIP3      476             0.0000000000
     23681       669  TIP3      OH2            12.7555880154      -23.7833987596       25.7827380487  TIP3      477             0.0000000000
     23682       669  TIP3      H1             12.4794297059      -24.0370935648       24.8908430901  TIP3      477             0.0000000000
     23683       669  TIP3      H2             12.4314117710      -22.8544904244       25.8368519695  TIP3      477             0.0000000000
     23684       670  TIP3      OH2             7.9748359991      -25.6176406328       32.4764419970  TIP3      478             0.0000000000
     23685       670  TIP3      H1              7.2751603462      -24.9732667904       32.7083745290  TIP3      478             0.0000000000
     23686       670  TIP3      H2              8.6857177856      -25.0225158683       32.1920911945  TIP3      478             0.0000000000
     23687       671  TIP3      OH2            16.1199108614      -32.7653668449       28.5573102111  TIP3      479             0.0000000000
     23688       671  TIP3      H1             15.8682145066      -33.5086591782       29.1128121518  TIP3      479             0.0000000000
     23689       671  TIP3      H2             16.7539884282      -32.3106776478       29.1332953372  TIP3      479             0.0000000000
     23690       672  TIP3      OH2             5.0433723011      -31.3981912379       30.2313965056  TIP3      480             0.0000000000
     23691       672  TIP3      H1              5.6507481043      -30.7257754176       30.6055618735  TIP3      480             0.0000000000
     23692       672  TIP3      H2              5.5729634801      -31.8148356175       29.5183555746  TIP3      480             0.0000000000
     23693       673  TIP3      OH2             6.4308581466      -23.6158467584       33.3086019791  TIP3      481             0.0000000000
     23694       673  TIP3      H1              6.3791663005      -22.7051549246       32.9674231380  TIP3      481             0.0000000000
     23695       673  TIP3      H2              5.5467628227      -23.6975555411       33.7473698991  TIP3      481             0.0000000000
     23696       674  TIP3      OH2            16.1152377881      -22.3347993211       30.8568854245  TIP3      482             0.0000000000
     23697       674  TIP3      H1             15.1471787786      -22.2218236974       30.9757782284  TIP3      482             0.0000000000
     23698       674  TIP3      H2             16.3854487999      -21.4197620979       30.6534912406  TIP3      482             0.0000000000
     23699       675  TIP3      OH2            16.4713427671      -34.0520415679       32.3072588902  TIP3      483             0.0000000000
     23700       675  TIP3      H1             15.7224349442      -33.4616742569       32.1510505777  TIP3      483             0.0000000000
     23701       675  TIP3      H2             17.1591920074      -33.6516494579       31.7370968048  TIP3      483             0.0000000000
     23702       676  TIP3      OH2             9.3873852731      -35.9205605553       29.5525243033  TIP3      484             0.0000000000
     23703       676  TIP3      H1              9.3625880004      -36.8807317530       29.6921573568  TIP3      484             0.0000000000
     23704       676  TIP3      H2              8.5916286094      -35.6563644450       30.0401454908  TIP3      484             0.0000000000
     23705       677  TIP3      OH2            14.3912398523      -20.5566691471       27.4652845059  TIP3      485             0.0000000000
     23706       677  TIP3      H1             14.7954610754      -21.2772848070       26.9392066614  TIP3      485             0.0000000000
     23707       677  TIP3      H2             14.7976703453      -19.7657311195       27.0546507019  TIP3      485             0.0000000000
     23708       678  TIP3      OH2            15.6106888938      -22.6263969819       25.9533055322  TIP3      486             0.0000000000
     23709       678  TIP3      H1             15.3099604094      -23.3334915142       25.3526265036  TIP3      486             0.0000000000
     23710       678  TIP3      H2             15.6106646547      -23.1168143222       26.7973880801  TIP3      486             0.0000000000
     23711       679  TIP3      OH2            17.2013124315      -24.0284642636       34.4580759018  TIP3      487             0.0000000000
     23712       679  TIP3      H1             17.3508627977      -24.6813845119       33.7383300685  TIP3      487             0.0000000000
     23713       679  TIP3      H2             17.4064759716      -23.1835483047       34.0182320471  TIP3      487             0.0000000000
     23714       680  TIP3      OH2            11.6813393687      -27.1505080609       24.2141854281  TIP3      488             0.0000000000
     23715       680  TIP3      H1             11.0177347754      -26.5309943146       23.8581931329  TIP3      488             0.0000000000
     23716       680  TIP3      H2             12.3888531369      -27.0468876016       23.5542915996  TIP3      488             0.0000000000
     23717       681  TIP3      OH2            11.8339735960      -28.5594121719       21.2557149758  TIP3      489             0.0000000000
     23718       681  TIP3      H1             12.5044061261      -28.6385862746       21.9408954996  TIP3      489             0.0000000000
     23719       681  TIP3      H2             12.0232293936      -29.2974842992       20.6730415824  TIP3      489             0.0000000000
     23720       682  TIP3      OH2            19.0889726392      -27.7125047419       32.5001105638  TIP3      490             0.0000000000
     23721       682  TIP3      H1             18.4268884082      -26.9910847791       32.5508757453  TIP3      490             0.0000000000
     23722       682  TIP3      H2             19.5792438077      -27.4753576190       31.6926723706  TIP3      490             0.0000000000
     23723       683  TIP3      OH2            15.1100740829      -26.9830739115       25.1380305032  TIP3      491             0.0000000000
     23724       683  TIP3      H1             14.4082461315      -26.6772418734       25.7580171424  TIP3      491             0.0000000000
     23725       683  TIP3      H2             15.6336118779      -27.5901752951       25.6898681135  TIP3      491             0.0000000000
     23726       684  TIP3      OH2            15.0783680696      -28.7684692879       34.2703879647  TIP3      492             0.0000000000
     23727       684  TIP3      H1             15.0865797111      -27.9459827580       34.7878352392  TIP3      492             0.0000000000
     23728       684  TIP3      H2             14.4509143040      -28.4759742896       33.5756980387  TIP3      492             0.0000000000
     23729       685  TIP3      OH2             6.7786300692      -26.2658776924       27.0603126158  TIP3      493             0.0000000000
     23730       685  TIP3      H1              6.4336283984      -26.6822023059       26.2637710544  TIP3      493             0.0000000000
     23731       685  TIP3      H2              7.3939331390      -26.9520454049       27.4128965811  TIP3      493             0.0000000000
     23732       686  TIP3      OH2             8.0800072154      -22.8898163541       29.7356532352  TIP3      494             0.0000000000
     23733       686  TIP3      H1              8.0790183098      -23.4095994833       28.9223025383  TIP3      494             0.0000000000
     23734       686  TIP3      H2              8.8637345906      -23.2446442900       30.1950483598  TIP3      494             0.0000000000
     23735       687  TIP3      OH2             7.1109282448      -27.5210612271       30.7201563901  TIP3      495             0.0000000000
     23736       687  TIP3      H1              7.6699322357      -27.4101778778       29.9334656598  TIP3      495             0.0000000000
     23737       687  TIP3      H2              7.4726467590      -26.8504093628       31.3361567809  TIP3      495             0.0000000000
     23738       688  TIP3      OH2            13.5151167827      -21.9520568109       31.4318981375  TIP3      496             0.0000000000
     23739       688  TIP3      H1             13.2245637550      -21.3173946551       32.0945127214  TIP3      496             0.0000000000
     23740       688  TIP3      H2             13.2537276860      -22.8052892747       31.8496280803  TIP3      496             0.0000000000
     23741       689  TIP3      OH2             8.0451387077      -23.0936168269       35.4153878771  TIP3      497             0.0000000000
     23742       689  TIP3      H1              7.6279153845      -22.3577495433       35.9066210846  TIP3      497             0.0000000000
     23743       689  TIP3      H2              7.3725761614      -23.2941128903       34.7184592730  TIP3      497             0.0000000000
     23744       690  TIP3      OH2            14.0505102633      -27.7662792354       22.8090874883  TIP3      498             0.0000000000
     23745       690  TIP3      H1             14.5614710650      -27.5429901099       23.6257975824  TIP3      498             0.0000000000
     23746       690  TIP3      H2             14.4430626699      -27.1944220497       22.1384136759  TIP3      498             0.0000000000
     23747       691  TIP3      OH2             4.9999333651      -26.9194316009       34.5679294125  TIP3      499             0.0000000000
     23748       691  TIP3      H1              5.0264734584      -26.2624534813       35.2858082302  TIP3      499             0.0000000000
     23749       691  TIP3      H2              4.0558821340      -26.8663289838       34.3488921566  TIP3      499             0.0000000000
     23750       692  TIP3      OH2            11.7547853284      -20.9927818282       26.2532523776  TIP3      500             0.0000000000
     23751       692  TIP3      H1             12.1717839197      -20.6886174272       27.0676378850  TIP3      500             0.0000000000
     23752       692  TIP3      H2             11.1618089392      -20.2686396770       26.0248972604  TIP3      500             0.0000000000
     23753       693  TIP3      OH2             6.2912209410      -21.0596681600       36.1626460237  TIP3      501             0.0000000000
     23754       693  TIP3      H1              6.2299029755      -21.1582018560       35.1970818408  TIP3      501             0.0000000000
     23755       693  TIP3      H2              5.3614448743      -21.1931627539       36.4305505975  TIP3      501             0.0000000000
     23756       694  TIP3      OH2            17.7020963641      -35.8839154105       22.4609663266  TIP3      502             0.0000000000
     23757       694  TIP3      H1             16.8474232429      -35.7998695993       22.9216136648  TIP3      502             0.0000000000
     23758       694  TIP3      H2             17.9105163820      -34.9696940948       22.2593185436  TIP3      502             0.0000000000
     23759       695  TIP3      OH2             1.8209807239      -24.8171332844       33.5760645122  TIP3      503             0.0000000000
     23760       695  TIP3      H1              1.3788765453      -24.9014119861       32.7078607464  TIP3      503             0.0000000000
     23761       695  TIP3      H2              1.9084108096      -25.7730732988       33.7784690272  TIP3      503             0.0000000000
     23762       696  TIP3      OH2             1.5796305485      -22.0846786672       30.3706203368  TIP3      504             0.0000000000
     23763       696  TIP3      H1              2.5375289506      -22.1974783879       30.3200111031  TIP3      504             0.0000000000
     23764       696  TIP3      H2              1.5034350899      -21.2576218188       30.8594798271  TIP3      504             0.0000000000
     23765       697  TIP3      OH2            19.8224704580      -21.3776619351       36.0409808546  TIP3      505             0.0000000000
     23766       697  TIP3      H1             19.7029999297      -22.3383113632       36.0112488615  TIP3      505             0.0000000000
     23767       697  TIP3      H2             18.9474366147      -21.1306969555       36.4241925620  TIP3      505             0.0000000000
     23768       698  TIP3      OH2            10.7771896291      -21.8402194956       34.8994755438  TIP3      506             0.0000000000
     23769       698  TIP3      H1             10.8362626333      -20.9977780698       35.4085785827  TIP3      506             0.0000000000
     23770       698  TIP3      H2              9.9051799400      -22.2016477583       35.1509501165  TIP3      506             0.0000000000
     23771       699  TIP3      OH2            11.1855053613      -18.1010517804       24.6804334271  TIP3      507             0.0000000000
     23772       699  TIP3      H1             11.0947607372      -18.1898604032       23.7138610157  TIP3      507             0.0000000000
     23773       699  TIP3      H2             11.2487627331      -17.1426515265       24.8492384980  TIP3      507             0.0000000000
     23774       700  TIP3      OH2             4.8458288740      -19.2074876268       26.5511547500  TIP3      508             0.0000000000
     23775       700  TIP3      H1              4.9908192611      -19.6429283333       27.4154724036  TIP3      508             0.0000000000
     23776       700  TIP3      H2              4.0120089341      -19.6197794098       26.2681670602  TIP3      508             0.0000000000
     23777       701  TIP3      OH2            13.9363056350      -18.9305786877       24.4631332551  TIP3      509             0.0000000000
     23778       701  TIP3      H1             12.9833773051      -18.8663961002       24.6737005299  TIP3      509             0.0000000000
     23779       701  TIP3      H2             14.2085914079      -19.6812932136       25.0099187072  TIP3      509             0.0000000000
     23780       702  TIP3      OH2            16.9695176010      -29.9275382781       36.5073008345  TIP3      510             0.0000000000
     23781       702  TIP3      H1             16.4942956174      -29.4679242468       35.7949235353  TIP3      510             0.0000000000
     23782       702  TIP3      H2             16.9542259246      -30.8455069775       36.1988672099  TIP3      510             0.0000000000
     23783       703  TIP3      OH2             4.1041641074      -23.4974822145       34.5035516517  TIP3      511             0.0000000000
     23784       703  TIP3      H1              4.3236241179      -23.8646506389       35.3825038424  TIP3      511             0.0000000000
     23785       703  TIP3      H2              3.2362603715      -23.8994856369       34.2965275669  TIP3      511             0.0000000000
     23786       704  TIP3      OH2             6.7651266394      -35.0552658398       30.5027560461  TIP3      512             0.0000000000
     23787       704  TIP3      H1              5.8760049109      -35.1215382984       30.0996082153  TIP3      512             0.0000000000
     23788       704  TIP3      H2              6.6418708295      -34.1974668336       30.9450801712  TIP3      512             0.0000000000
     23789       705  TIP3      OH2            11.4087977815      -35.3344412287       33.8760582218  TIP3      513             0.0000000000
     23790       705  TIP3      H1             11.8346686821      -35.7580637004       34.6224592467  TIP3      513             0.0000000000
     23791       705  TIP3      H2             10.4558192487      -35.4468318354       34.0340630726  TIP3      513             0.0000000000
     23792       706  TIP3      OH2            14.7178964827      -31.5570156133       34.7329719514  TIP3      514             0.0000000000
     23793       706  TIP3      H1             14.1351596181      -31.7096237825       35.5115125610  TIP3      514             0.0000000000
     23794       706  TIP3      H2             14.5530983331      -30.6282322418       34.4847532760  TIP3      514             0.0000000000
     23795       707  TIP3      OH2            11.0712272086      -32.8051402762       21.1733542673  TIP3      515             0.0000000000
     23796       707  TIP3      H1             10.7571215968      -32.8582073151       22.0860964261  TIP3      515             0.0000000000
     23797       707  TIP3      H2             10.7990945009      -33.6725382914       20.8454026115  TIP3      515             0.0000000000
     23798       708  TIP3      OH2             6.8843685667      -30.0521938808       31.7163426988  TIP3      516             0.0000000000
     23799       708  TIP3      H1              6.1524172662      -30.0835657899       32.3667856224  TIP3      516             0.0000000000
     23800       708  TIP3      H2              6.8116172984      -29.1457657377       31.3440009826  TIP3      516             0.0000000000
     23801       709  TIP3      OH2             6.8345110981      -29.9076299428       26.5772512630  TIP3      517             0.0000000000
     23802       709  TIP3      H1              5.9044910216      -30.1808607860       26.4326610087  TIP3      517             0.0000000000
     23803       709  TIP3      H2              7.2338662365      -30.2459828560       25.7504089504  TIP3      517             0.0000000000
     23804       710  TIP3      OH2            12.3668657878      -29.4451151189       25.3272823077  TIP3      518             0.0000000000
     23805       710  TIP3      H1             11.9751301333      -28.6072415987       24.9946173164  TIP3      518             0.0000000000
     23806       710  TIP3      H2             13.0704687747      -29.6132532737       24.6797411506  TIP3      518             0.0000000000
     23807       711  TIP3      OH2            11.4285977036      -29.2235692638       36.7845168552  TIP3      519             0.0000000000
     23808       711  TIP3      H1             10.8974217114      -29.9959534063       37.0948943112  TIP3      519             0.0000000000
     23809       711  TIP3      H2             12.2640474620      -29.3471033478       37.2639307506  TIP3      519             0.0000000000
     23810       712  TIP3      OH2            13.4092693719      -29.9431740673       28.1973021231  TIP3      520             0.0000000000
     23811       712  TIP3      H1             13.1212779143      -29.3844939116       27.4565484806  TIP3      520             0.0000000000
     23812       712  TIP3      H2             13.4984670786      -30.7917883035       27.7275192132  TIP3      520             0.0000000000
     23813       713  TIP3      OH2             5.0519088173      -30.1025901753       33.9541992026  TIP3      521             0.0000000000
     23814       713  TIP3      H1              4.6096332958      -29.3269412469       34.3259006806  TIP3      521             0.0000000000
     23815       713  TIP3      H2              4.2360607889      -30.4814444427       33.5353109582  TIP3      521             0.0000000000
     23816       714  TIP3      OH2             7.8841034295      -32.3958616862       20.2546827089  TIP3      522             0.0000000000
     23817       714  TIP3      H1              7.4214361544      -32.8282738596       20.9823832693  TIP3      522             0.0000000000
     23818       714  TIP3      H2              7.1844760841      -31.9911089114       19.7391373200  TIP3      522             0.0000000000
     23819       715  TIP3      OH2             1.1604151370      -32.6877420206       27.3433905335  TIP3      523             0.0000000000
     23820       715  TIP3      H1              1.8294106724      -32.6758865618       28.0672303033  TIP3      523             0.0000000000
     23821       715  TIP3      H2              1.6403623791      -33.0672649491       26.5959410692  TIP3      523             0.0000000000
     23822       716  TIP3      OH2             2.4308456283      -31.9654339219       22.7724513485  TIP3      524             0.0000000000
     23823       716  TIP3      H1              2.9164397531      -31.3805260690       22.1692373706  TIP3      524             0.0000000000
     23824       716  TIP3      H2              1.7485496187      -31.3430745018       23.0801724962  TIP3      524             0.0000000000
     23825       717  TIP3      OH2            12.6207454357      -28.3613790075       32.7559125364  TIP3      525             0.0000000000
     23826       717  TIP3      H1             12.9860390831      -29.0499594961       32.1640129292  TIP3      525             0.0000000000
     23827       717  TIP3      H2             12.1358493619      -28.8863191201       33.4193081748  TIP3      525             0.0000000000
     23828       718  TIP3      OH2             9.4095223255      -32.3692922272       27.5629834883  TIP3      526             0.0000000000
     23829       718  TIP3      H1              8.4745146641      -32.3944101558       27.8687764150  TIP3      526             0.0000000000
     23830       718  TIP3      H2              9.8980051546      -32.5404770258       28.3861091031  TIP3      526             0.0000000000
     23831       719  TIP3      OH2             4.2176780012      -30.8264507638       26.4013122720  TIP3      527             0.0000000000
     23832       719  TIP3      H1              3.3167055018      -30.6989066134       26.0372282455  TIP3      527             0.0000000000
     23833       719  TIP3      H2              4.4957159009      -31.6813422670       26.0322666743  TIP3      527             0.0000000000
     23834       720  TIP3      OH2             7.8343520816      -30.7434703188       24.1032349530  TIP3      528             0.0000000000
     23835       720  TIP3      H1              8.8017452113      -30.7098555646       24.2542766509  TIP3      528             0.0000000000
     23836       720  TIP3      H2              7.6845171375      -30.0968007719       23.3973017070  TIP3      528             0.0000000000
     23837       721  TIP3      OH2            13.8090789027      -33.1683612648       30.8214146938  TIP3      529             0.0000000000
     23838       721  TIP3      H1             13.1202537578      -33.0905001352       31.5170507981  TIP3      529             0.0000000000
     23839       721  TIP3      H2             13.3082928569      -33.4353767399       30.0393980741  TIP3      529             0.0000000000
     23840       722  TIP3      OH2            17.0092375507      -17.5081891471       37.1508946022  TIP3      530             0.0000000000
     23841       722  TIP3      H1             17.2758468485      -17.1241854504       36.2965229685  TIP3      530             0.0000000000
     23842       722  TIP3      H2             17.7333543488      -17.1878878309       37.7095621690  TIP3      530             0.0000000000
     23843       723  TIP3      OH2             4.6818463767      -25.0350042651       36.7188430916  TIP3      531             0.0000000000
     23844       723  TIP3      H1              5.4058408750      -24.7958593672       37.3213663267  TIP3      531             0.0000000000
     23845       723  TIP3      H2              3.9124481971      -24.9576660658       37.3249518650  TIP3      531             0.0000000000
     23846       724  TIP3      OH2            10.6973384914      -29.6303588151       29.4756657344  TIP3      532             0.0000000000
     23847       724  TIP3      H1             11.2913035316      -30.1765051773       28.9461920792  TIP3      532             0.0000000000
     23848       724  TIP3      H2             10.5369945465      -30.1756610282       30.2580774947  TIP3      532             0.0000000000
     23849       725  TIP3      OH2             5.6861100777      -33.4404216847       25.8598693044  TIP3      533             0.0000000000
     23850       725  TIP3      H1              5.3952290097      -34.3673503370       25.9251103659  TIP3      533             0.0000000000
     23851       725  TIP3      H2              6.4870926519      -33.5363828422       25.3359263304  TIP3      533             0.0000000000
     23852       726  TIP3      OH2             9.3266095118      -31.2440177964       31.8741157296  TIP3      534             0.0000000000
     23853       726  TIP3      H1              8.4762906823      -30.7682906332       31.9931021117  TIP3      534             0.0000000000
     23854       726  TIP3      H2              9.8735059882      -30.9368366175       32.6230566247  TIP3      534             0.0000000000
     23855       727  TIP3      OH2             9.8945795527      -25.1036398531       23.5668885517  TIP3      535             0.0000000000
     23856       727  TIP3      H1              9.0904077038      -25.5408002168       23.2896631208  TIP3      535             0.0000000000
     23857       727  TIP3      H2              9.7185771697      -24.9307711312       24.5139402604  TIP3      535             0.0000000000
     23858       728  TIP3      OH2            17.1018352663      -25.8734907515       32.3927904579  TIP3      536             0.0000000000
     23859       728  TIP3      H1             17.6637689950      -25.3933537336       31.7566953266  TIP3      536             0.0000000000
     23860       728  TIP3      H2             16.2411137819      -25.8303128468       31.9292476356  TIP3      536             0.0000000000
     23861       729  TIP3      OH2            13.7682806555      -32.2248698893       21.7299904008  TIP3      537             0.0000000000
     23862       729  TIP3      H1             12.8069928645      -32.1465286547       21.5794440493  TIP3      537             0.0000000000
     23863       729  TIP3      H2             14.0504133230      -31.3793487900       22.1151306851  TIP3      537             0.0000000000
     23864       730  TIP3      OH2            11.4070509730      -24.8058294290       34.8350736757  TIP3      538             0.0000000000
     23865       730  TIP3      H1             11.0574844175      -25.2375922667       35.6219151721  TIP3      538             0.0000000000
     23866       730  TIP3      H2             11.1489711686      -23.8852341855       34.9420702527  TIP3      538             0.0000000000
     23867       731  TIP3      OH2            14.5150472496      -30.3553007246       23.4408045102  TIP3      539             0.0000000000
     23868       731  TIP3      H1             15.4155579825      -30.4769526820       23.8071610104  TIP3      539             0.0000000000
     23869       731  TIP3      H2             14.5618190897      -29.5314806648       22.9245979522  TIP3      539             0.0000000000
     23870       732  TIP3      OH2             5.0456251079      -25.6820787142       29.3906184674  TIP3      540             0.0000000000
     23871       732  TIP3      H1              5.7319373747      -25.7866662452       28.7128383319  TIP3      540             0.0000000000
     23872       732  TIP3      H2              5.0579310795      -26.5372642700       29.8646238458  TIP3      540             0.0000000000
     23873       733  TIP3      OH2            12.0267193907      -23.6051860061       22.7102914492  TIP3      541             0.0000000000
     23874       733  TIP3      H1             11.6596166860      -22.7379097711       22.9733338212  TIP3      541             0.0000000000
     23875       733  TIP3      H2             11.2501582965      -24.1838633228       22.8166911296  TIP3      541             0.0000000000
     23876       734  TIP3      OH2             1.9701267154      -27.2380605745       34.6926542963  TIP3      542             0.0000000000
     23877       734  TIP3      H1              2.1947935641      -27.7421460340       35.4916381415  TIP3      542             0.0000000000
     23878       734  TIP3      H2              1.4468673660      -27.8942677461       34.1833512666  TIP3      542             0.0000000000
     23879       735  TIP3      OH2             9.0469139766      -27.7014614243       36.8363194720  TIP3      543             0.0000000000
     23880       735  TIP3      H1              8.7005459625      -28.0289922040       35.9845730536  TIP3      543             0.0000000000
     23881       735  TIP3      H2              9.9591444433      -28.0475128198       36.8244950778  TIP3      543             0.0000000000
     23882       736  TIP3      OH2            13.7127229087      -22.3840316134       34.7833005932  TIP3      544             0.0000000000
     23883       736  TIP3      H1             12.7875133411      -22.2059724484       34.5489273356  TIP3      544             0.0000000000
     23884       736  TIP3      H2             13.6789044654      -22.0911795482       35.7141840639  TIP3      544             0.0000000000
     23885       737  TIP3      OH2            19.3662133034      -24.3412110496       35.9754671135  TIP3      545             0.0000000000
     23886       737  TIP3      H1             18.4738276782      -24.1211749850       35.6102493831  TIP3      545             0.0000000000
     23887       737  TIP3      H2             19.9103078769      -24.3945541050       35.1638376893  TIP3      545             0.0000000000
     23888       738  TIP3      OH2            14.8742136585      -26.5570619813       30.6708396156  TIP3      546             0.0000000000
     23889       738  TIP3      H1             13.9336032389      -26.7709151972       30.5653772423  TIP3      546             0.0000000000
     23890       738  TIP3      H2             15.3069365439      -27.3178032587       30.2375785429  TIP3      546             0.0000000000
     23891       739  TIP3      OH2             7.3775047976      -22.2610807227       26.7308923390  TIP3      547             0.0000000000
     23892       739  TIP3      H1              7.8854559605      -21.4463722667       26.5676244474  TIP3      547             0.0000000000
     23893       739  TIP3      H2              6.5037817029      -21.9663818925       26.4548611158  TIP3      547             0.0000000000
     23894       740  TIP3      OH2             8.8162678363      -24.5765877472       26.2910789197  TIP3      548             0.0000000000
     23895       740  TIP3      H1              8.5195595403      -23.6445475070       26.3698211483  TIP3      548             0.0000000000
     23896       740  TIP3      H2              8.0930016212      -25.0433960125       26.7478515541  TIP3      548             0.0000000000
     23897       741  TIP3      OH2             9.2620001599      -20.3783038470       32.7054339200  TIP3      549             0.0000000000
     23898       741  TIP3      H1              9.7224781186      -19.5745629876       32.4162182995  TIP3      549             0.0000000000
     23899       741  TIP3      H2              9.8784341518      -20.7209936268       33.3775593669  TIP3      549             0.0000000000
     23900       742  TIP3      OH2             7.4879052699      -19.6298898506       25.9001955056  TIP3      550             0.0000000000
     23901       742  TIP3      H1              6.5245894199      -19.4397346586       25.9441781321  TIP3      550             0.0000000000
     23902       742  TIP3      H2              7.8517499528      -18.7582480598       26.1419640828  TIP3      550             0.0000000000
     23903       743  TIP3      OH2            12.7802950871      -24.3852559844       32.3192335295  TIP3      551             0.0000000000
     23904       743  TIP3      H1             12.4610870479      -24.5745798621       33.2261850565  TIP3      551             0.0000000000
     23905       743  TIP3      H2             13.4247180573      -25.0920388650       32.1531157690  TIP3      551             0.0000000000
     23906       744  TIP3      OH2            15.6050430238      -19.7996607093       34.8077444579  TIP3      552             0.0000000000
     23907       744  TIP3      H1             14.9118843589      -20.2930018398       34.3296186560  TIP3      552             0.0000000000
     23908       744  TIP3      H2             15.7865368004      -19.0989573592       34.1465090599  TIP3      552             0.0000000000
     23909       745  TIP3      OH2             3.6605475927      -32.6112743574       34.2274596007  TIP3      553             0.0000000000
     23910       745  TIP3      H1              2.7881052920      -32.1810816895       34.1493557095  TIP3      553             0.0000000000
     23911       745  TIP3      H2              3.5017601943      -33.4595228018       34.6570586554  TIP3      553             0.0000000000
     23912       746  TIP3      OH2            15.8865530404      -24.6934309646       23.7000492781  TIP3      554             0.0000000000
     23913       746  TIP3      H1             15.6479313392      -25.4950933727       24.1980185946  TIP3      554             0.0000000000
     23914       746  TIP3      H2             16.8562049311      -24.6797704331       23.8163753315  TIP3      554             0.0000000000
     23915       747  TIP3      OH2             3.2757174683      -20.7627460806       32.6263611315  TIP3      555             0.0000000000
     23916       747  TIP3      H1              3.5799601743      -21.6837239539       32.6331328130  TIP3      555             0.0000000000
     23917       747  TIP3      H2              3.5386303666      -20.4711771350       33.5067626176  TIP3      555             0.0000000000
     23918       748  TIP3      OH2            12.4050370173      -32.7847701316       33.1550927576  TIP3      556             0.0000000000
     23919       748  TIP3      H1             13.1255782499      -32.7204261589       33.7930002315  TIP3      556             0.0000000000
     23920       748  TIP3      H2             12.0362018218      -33.6697997221       33.3355654340  TIP3      556             0.0000000000
     23921       749  TIP3      OH2            13.2087973625      -33.2059534677       24.2704557610  TIP3      557             0.0000000000
     23922       749  TIP3      H1             13.3888766821      -32.7442477762       23.4239225365  TIP3      557             0.0000000000
     23923       749  TIP3      H2             13.7460600652      -32.7066818424       24.9016781955  TIP3      557             0.0000000000
     23924       750  TIP3      OH2            10.8509210207      -20.9908217390       23.1293185865  TIP3      558             0.0000000000
     23925       750  TIP3      H1              9.9760596008      -20.5496393000       23.1078947259  TIP3      558             0.0000000000
     23926       750  TIP3      H2             11.3355501967      -20.5439119663       22.4381720981  TIP3      558             0.0000000000
     23927       751  TIP3      OH2            10.3695565137      -31.4674704119       25.0682970874  TIP3      559             0.0000000000
     23928       751  TIP3      H1             11.1516086167      -30.8753618565       25.1028060600  TIP3      559             0.0000000000
     23929       751  TIP3      H2             10.1181166298      -31.5686589988       26.0071887609  TIP3      559             0.0000000000
     23930       752  TIP3      OH2            10.9465991885      -30.4252475454       34.2535032706  TIP3      560             0.0000000000
     23931       752  TIP3      H1             11.0044281664      -29.8771347838       35.0618309723  TIP3      560             0.0000000000
     23932       752  TIP3      H2             11.5957047974      -31.1285117534       34.3619109001  TIP3      560             0.0000000000
     23933       753  TIP3      OH2            11.2400236550      -34.3763897007       25.9911413420  TIP3      561             0.0000000000
     23934       753  TIP3      H1             10.9005787599      -33.7116241600       26.6139973420  TIP3      561             0.0000000000
     23935       753  TIP3      H2             11.9082466228      -33.8412835840       25.5045025331  TIP3      561             0.0000000000
     23936       754  TIP3      OH2             8.2391922882      -19.9725025878       23.1094288450  TIP3      562             0.0000000000
     23937       754  TIP3      H1              8.3252694674      -19.1693885374       22.5462243016  TIP3      562             0.0000000000
     23938       754  TIP3      H2              7.9478715456      -19.6416886134       23.9751106672  TIP3      562             0.0000000000
     23939       755  TIP3      OH2             6.8956258593      -33.3132332552       22.6598313376  TIP3      563             0.0000000000
     23940       755  TIP3      H1              6.8326438404      -32.4174746144       23.0398529779  TIP3      563             0.0000000000
     23941       755  TIP3      H2              7.8165424991      -33.5436122159       22.9061447189  TIP3      563             0.0000000000
     23942       756  TIP3      OH2            17.1035687569      -32.5569826484       35.1109404478  TIP3      564             0.0000000000
     23943       756  TIP3      H1             16.1766175277      -32.2351397431       34.9751936838  TIP3      564             0.0000000000
     23944       756  TIP3      H2             17.3995895953      -32.5870650368       34.1830137912  TIP3      564             0.0000000000
     23945       757  TIP3      OH2            15.6968495232      -28.7649941214       29.1231944728  TIP3      565             0.0000000000
     23946       757  TIP3      H1             14.8794894082      -29.2170193605       28.8391237716  TIP3      565             0.0000000000
     23947       757  TIP3      H2             16.1795933662      -29.4541463494       29.6317405155  TIP3      565             0.0000000000
     23948       758  TIP3      OH2            16.7772666307      -19.5083946772       30.7926321462  TIP3      566             0.0000000000
     23949       758  TIP3      H1             16.6815549557      -18.8209937986       30.1059992584  TIP3      566             0.0000000000
     23950       758  TIP3      H2             17.7427784503      -19.4574354353       30.9570413019  TIP3      566             0.0000000000
     23951       759  TIP3      OH2             4.0405884956      -35.2240143230       29.6473257015  TIP3      567             0.0000000000
     23952       759  TIP3      H1              4.0828703845      -35.3351675344       28.6680924657  TIP3      567             0.0000000000
     23953       759  TIP3      H2              3.8745150280      -36.1502377068       29.8619253730  TIP3      567             0.0000000000
     23954       760  TIP3      OH2             3.2353530495      -21.4309323099       25.7490693154  TIP3      568             0.0000000000
     23955       760  TIP3      H1              2.3619244853      -21.0163239878       25.6826857505  TIP3      568             0.0000000000
     23956       760  TIP3      H2              3.6798773808      -20.9964347363       25.0050039501  TIP3      568             0.0000000000
     23957       761  TIP3      OH2             2.4187718853      -18.8123705940       37.0281441456  TIP3      569             0.0000000000
     23958       761  TIP3      H1              3.0350018081      -19.0161077635       37.7578623264  TIP3      569             0.0000000000
     23959       761  TIP3      H2              2.0315607017      -19.6851902064       36.8373065632  TIP3      569             0.0000000000
     23960       762  TIP3      OH2             7.1118884070      -19.8956548598       38.6260546792  TIP3      570             0.0000000000
     23961       762  TIP3      H1              7.8681649120      -20.3960109373       38.9599070430  TIP3      570             0.0000000000
     23962       762  TIP3      H2              7.0854624328      -20.1760558779       37.6900214635  TIP3      570             0.0000000000
     23963       763  TIP3      OH2            13.6146931581      -21.5127384864       37.3771108143  TIP3      571             0.0000000000
     23964       763  TIP3      H1             13.2995985993      -22.4000932967       37.6515025300  TIP3      571             0.0000000000
     23965       763  TIP3      H2             14.3834225652      -21.3940534455       37.9696392045  TIP3      571             0.0000000000
     23966       764  TIP3      OH2             2.3403160340      -25.0452911427       38.0148407866  TIP3      572             0.0000000000
     23967       764  TIP3      H1              2.5070949787      -25.9568825631       37.7102349243  TIP3      572             0.0000000000
     23968       764  TIP3      H2              1.6005908377      -24.7867715388       37.4404820124  TIP3      572             0.0000000000
     23969       765  TIP3      OH2             9.0573434014      -25.0527852490       37.4011900623  TIP3      573             0.0000000000
     23970       765  TIP3      H1              8.7232477527      -24.7431623822       36.5369094500  TIP3      573             0.0000000000
     23971       765  TIP3      H2              9.1327073167      -26.0324751979       37.2916512510  TIP3      573             0.0000000000
     23972       766  TIP3      OH2            12.1306755994      -23.6801727089       19.8160208453  TIP3      574             0.0000000000
     23973       766  TIP3      H1             11.8391098949      -23.4629717316       20.7240986698  TIP3      574             0.0000000000
     23974       766  TIP3      H2             11.8900796304      -24.5974268876       19.7218720245  TIP3      574             0.0000000000
     23975       767  TIP3      OH2            14.7544883093      -25.1956496574       34.7931794102  TIP3      575             0.0000000000
     23976       767  TIP3      H1             15.5423745032      -24.6128288903       34.7308127795  TIP3      575             0.0000000000
     23977       767  TIP3      H2             14.0548563663      -24.5276037332       34.8278025107  TIP3      575             0.0000000000
     23978       768  TIP3      OH2             3.2694786221      -27.8068964261       37.4112855435  TIP3      576             0.0000000000
     23979       768  TIP3      H1              3.6700238252      -28.6770930311       37.2859952716  TIP3      576             0.0000000000
     23980       768  TIP3      H2              3.0292140732      -27.8214297386       38.3508503291  TIP3      576             0.0000000000
     23981       769  TIP3      OH2             7.2868044388      -28.7927527717       34.8262924762  TIP3      577             0.0000000000
     23982       769  TIP3      H1              6.5448420055      -28.1877001916       34.9913778849  TIP3      577             0.0000000000
     23983       769  TIP3      H2              7.5334353562      -28.5222455202       33.9284488854  TIP3      577             0.0000000000
     23984       770  TIP3      OH2            12.2352809010      -26.3041301501       38.0869383247  TIP3      578             0.0000000000
     23985       770  TIP3      H1             13.1915185433      -26.3172096377       37.9617996784  TIP3      578             0.0000000000
     23986       770  TIP3      H2             12.0649510560      -27.0743346437       38.6521571229  TIP3      578             0.0000000000
     23987       771  TIP3      OH2             7.5649023908      -31.4900214654       35.8046279467  TIP3      579             0.0000000000
     23988       771  TIP3      H1              7.6749474791      -32.2022717858       35.1544010445  TIP3      579             0.0000000000
     23989       771  TIP3      H2              7.4792966247      -30.6875643128       35.2431728436  TIP3      579             0.0000000000
     23990       772  TIP3      OH2             7.9576961790      -33.0968471786       33.3153298141  TIP3      580             0.0000000000
     23991       772  TIP3      H1              8.4791167399      -32.6151117071       32.6330497283  TIP3      580             0.0000000000
     23992       772  TIP3      H2              7.0511325699      -33.1705112095       32.9275603394  TIP3      580             0.0000000000
     23993       773  TIP3      OH2             9.5103999268      -27.6164291325       33.6061728454  TIP3      581             0.0000000000
     23994       773  TIP3      H1             10.2477657250      -27.7982155347       33.0222495791  TIP3      581             0.0000000000
     23995       773  TIP3      H2              9.1430683659      -26.7869202336       33.2666783205  TIP3      581             0.0000000000
     23996       774  TIP3      OH2            13.9028707799      -29.8735681475       38.5600544006  TIP3      582             0.0000000000
     23997       774  TIP3      H1             14.1401813125      -30.8096670307       38.4735764665  TIP3      582             0.0000000000
     23998       774  TIP3      H2             14.7685993999      -29.4308689152       38.5974929857  TIP3      582             0.0000000000
     23999       775  TIP3      OH2            15.2543752132      -27.0708938371       36.7385996961  TIP3      583             0.0000000000
     24000       775  TIP3      H1             14.9964768578      -26.3570484190       36.1148038231  TIP3      583             0.0000000000
     24001       775  TIP3      H2             16.2081159515      -27.1083502958       36.5425366383  TIP3      583             0.0000000000
     24002       776  TIP3      OH2             6.0349640998      -30.2557220534       37.7404127697  TIP3      584             0.0000000000
     24003       776  TIP3      H1              5.2570577806      -30.8126997555       37.5344908967  TIP3      584             0.0000000000
     24004       776  TIP3      H2              6.6847998256      -30.5988641961       37.1000691655  TIP3      584             0.0000000000
     24005       777  TIP3      OH2             8.6122587188      -35.4783191462       34.0272250782  TIP3      585             0.0000000000
     24006       777  TIP3      H1              8.5473680371      -34.5367848026       33.7272290969  TIP3      585             0.0000000000
     24007       777  TIP3      H2              8.0320710481      -35.8962249259       33.3743164514  TIP3      585             0.0000000000
     24008       778  TIP3      OH2            10.0014833772      -31.3172445044       37.3574130704  TIP3      586             0.0000000000
     24009       778  TIP3      H1              9.7272979990      -31.6238685115       38.2423267551  TIP3      586             0.0000000000
     24010       778  TIP3      H2              9.2201558919      -31.5525639206       36.8265801759  TIP3      586             0.0000000000
     24011       779  TIP3      OH2            12.7528339285      -32.1900021387       36.4784057121  TIP3      587             0.0000000000
     24012       779  TIP3      H1             11.7853256279      -32.1673860439       36.5863532273  TIP3      587             0.0000000000
     24013       779  TIP3      H2             13.0318576456      -32.8306293349       37.1622385664  TIP3      587             0.0000000000
     24014       780  TIP3      OH2            14.3471570710      -33.4751031533       38.3951880139  TIP3      588             0.0000000000
     24015       780  TIP3      H1             14.2542584328      -34.4599833874       38.3694124819  TIP3      588             0.0000000000
     24016       780  TIP3      H2             14.0548349195      -33.2817381170       39.3025516305  TIP3      588             0.0000000000
     24017       781  TIP3      OH2             4.0882686140      -32.3202813384       37.4917890097  TIP3      589             0.0000000000
     24018       781  TIP3      H1              4.3621364172      -33.0374176158       36.8877646640  TIP3      589             0.0000000000
     24019       781  TIP3      H2              4.0273168366      -32.7809521130       38.3497188984  TIP3      589             0.0000000000
     24020       782  TIP3      OH2             8.9584690643       36.7218719593       36.4853990852  TIP3      590             0.0000000000
     24021       782  TIP3      H1              9.6420418956       36.0501670275       36.5304893408  TIP3      590             0.0000000000
     24022       782  TIP3      H2              8.8557376708       36.9295454727       35.5312575684  TIP3      590             0.0000000000
     24023       783  TIP3      OH2             9.3687211190      -34.5959962242       38.5253070203  TIP3      591             0.0000000000
     24024       783  TIP3      H1              9.1842067720      -35.1705865772       37.7505185187  TIP3      591             0.0000000000
     24025       783  TIP3      H2              8.7277497045      -33.8748360512       38.4588671195  TIP3      591             0.0000000000
     24026       784  TIP3      OH2             8.8425106270      -17.7629938254       21.7179313371  TIP3      592             0.0000000000
     24027       784  TIP3      H1              9.7926321998      -17.6384221371       21.8100246459  TIP3      592             0.0000000000
     24028       784  TIP3      H2              8.5524137591      -17.1379506504       21.0411863531  TIP3      592             0.0000000000
     24029       785  TIP3      OH2             1.1193894852      -17.7849901629       26.2114139520  TIP3      593             0.0000000000
     24030       785  TIP3      H1              0.4376737810      -18.2862512139       25.7071957909  TIP3      593             0.0000000000
     24031       785  TIP3      H2              1.4238784931      -18.4646151450       26.8391807840  TIP3      593             0.0000000000
     24032       786  TIP3      OH2             1.9626464266      -19.6694287336       28.0460466140  TIP3      594             0.0000000000
     24033       786  TIP3      H1              1.6014232857      -20.5423086427       28.2495722685  TIP3      594             0.0000000000
     24034       786  TIP3      H2              2.1875241750      -19.3369554246       28.9287066570  TIP3      594             0.0000000000
     24035       787  TIP3      OH2            19.5026737658      -18.8756141542       30.9847836376  TIP3      595             0.0000000000
     24036       787  TIP3      H1             19.5320853083      -18.7027119468       31.9414228637  TIP3      595             0.0000000000
     24037       787  TIP3      H2             20.1997485924      -18.2891444394       30.6657792456  TIP3      595             0.0000000000
     24038       788  TIP3      OH2            19.0708685540      -19.2687359405       33.9258350309  TIP3      596             0.0000000000
     24039       788  TIP3      H1             18.6015424839      -20.0386487304       33.5438743491  TIP3      596             0.0000000000
     24040       788  TIP3      H2             19.5585222519      -19.7158029510       34.6373149472  TIP3      596             0.0000000000
     24041       789  TIP3      OH2            17.5170099189      -23.5504696940       38.5996804426  TIP3      597             0.0000000000
     24042       789  TIP3      H1             16.6107854307      -23.5764032606       38.9627840137  TIP3      597             0.0000000000
     24043       789  TIP3      H2             17.8886044220      -22.7445513162       39.0089998423  TIP3      597             0.0000000000
     24044       790  TIP3      OH2            18.8199396067      -25.2274276465       24.0444190856  TIP3      598             0.0000000000
     24045       790  TIP3      H1             19.6773861448      -24.8449124904       24.2117075695  TIP3      598             0.0000000000
     24046       790  TIP3      H2             18.8525835652      -25.9836684171       24.6711625412  TIP3      598             0.0000000000
     24047       791  TIP3      OH2            19.2106226936      -27.1204552039       25.9078346027  TIP3      599             0.0000000000
     24048       791  TIP3      H1             18.4680021281      -27.6576311879       26.2549660580  TIP3      599             0.0000000000
     24049       791  TIP3      H2             19.7936995610      -27.0490771830       26.6779327080  TIP3      599             0.0000000000
     24050       792  TIP3      OH2            18.9448733025      -24.4456969817       30.9007021786  TIP3      600             0.0000000000
     24051       792  TIP3      H1             19.7600214650      -24.8111524297       30.5205256318  TIP3      600             0.0000000000
     24052       792  TIP3      H2             19.0890378853      -23.4924145103       30.7310477178  TIP3      600             0.0000000000
     24053       793  TIP3      OH2            17.5085873836      -21.5466285479       33.1716826654  TIP3      601             0.0000000000
     24054       793  TIP3      H1             16.8176707017      -21.2012405878       33.7573700175  TIP3      601             0.0000000000
     24055       793  TIP3      H2             16.9614574282      -21.9448735645       32.4605153883  TIP3      601             0.0000000000
     24056       794  TIP3      OH2            16.9826361976      -28.6532177960       26.4938676389  TIP3      602             0.0000000000
     24057       794  TIP3      H1             16.8868135516      -29.6193237275       26.4390293362  TIP3      602             0.0000000000
     24058       794  TIP3      H2             16.6639148361      -28.4568632476       27.3909346303  TIP3      602             0.0000000000
     24059       795  TIP3      OH2             2.0192990983      -26.5114380374       30.5298233757  TIP3      603             0.0000000000
     24060       795  TIP3      H1              2.1995490333      -26.6787152674       29.5804273878  TIP3      603             0.0000000000
     24061       795  TIP3      H2              2.8802103135      -26.7985015391       30.9074827072  TIP3      603             0.0000000000
     24062       796  TIP3      OH2            17.8764296325      -26.7034498814       36.1759140579  TIP3      604             0.0000000000
     24063       796  TIP3      H1             18.4845447549      -27.4607862790       36.3071838880  TIP3      604             0.0000000000
     24064       796  TIP3      H2             18.4787361416      -25.9297130120       36.1792023598  TIP3      604             0.0000000000
     24065       797  TIP3      OH2            19.3735020314      -28.8214569683       36.8251326294  TIP3      605             0.0000000000
     24066       797  TIP3      H1             18.4913418369      -29.2211163114       36.6705169326  TIP3      605             0.0000000000
     24067       797  TIP3      H2             19.9440856517      -29.6054196482       36.7496447386  TIP3      605             0.0000000000
     24068       798  TIP3      OH2            16.6816942774      -31.0710649331       24.9217514253  TIP3      606             0.0000000000
     24069       798  TIP3      H1             16.9818311744      -32.0032272819       25.0499158547  TIP3      606             0.0000000000
     24070       798  TIP3      H2             17.5006259101      -30.6939809077       24.5702499986  TIP3      606             0.0000000000
     24071       799  TIP3      OH2            17.3284736564      -30.5157105803       30.3742269682  TIP3      607             0.0000000000
     24072       799  TIP3      H1             18.2935398285      -30.3108443404       30.3567482380  TIP3      607             0.0000000000
     24073       799  TIP3      H2             17.1352523179      -30.4078991507       31.3213856407  TIP3      607             0.0000000000
     24074       800  TIP3      OH2            17.3677475340      -29.8019543339       33.1582885920  TIP3      608             0.0000000000
     24075       800  TIP3      H1             16.4899053651      -29.5258439854       33.4887477976  TIP3      608             0.0000000000
     24076       800  TIP3      H2             17.8040898402      -28.9414147318       32.9578648564  TIP3      608             0.0000000000
     24077       801  TIP3      OH2             1.6175561501      -31.2656888560       36.7468714905  TIP3      609             0.0000000000
     24078       801  TIP3      H1              2.5671042335      -31.4830454890       36.8484838643  TIP3      609             0.0000000000
     24079       801  TIP3      H2              1.1918972018      -32.1199868453       36.9476456443  TIP3      609             0.0000000000
     24080       802  TIP3      OH2            19.7180823937      -35.7440205152       38.5294619594  TIP3      610             0.0000000000
     24081       802  TIP3      H1             19.9537698322      -36.4149870449       37.8739358219  TIP3      610             0.0000000000
     24082       802  TIP3      H2             19.7235503827      -34.9249577775       38.0081143404  TIP3      610             0.0000000000
     24083       803  TIP3      OH2            17.2547359104      -33.7579762135       25.0353782937  TIP3      611             0.0000000000
     24084       803  TIP3      H1             17.5379946368      -34.2572893945       25.8257961051  TIP3      611             0.0000000000
     24085       803  TIP3      H2             16.7267822674      -34.4253735885       24.5530301346  TIP3      611             0.0000000000
     24086       804  TIP3      OH2             2.8110770755      -32.9451102853       29.4775705189  TIP3      612             0.0000000000
     24087       804  TIP3      H1              3.2442178460      -33.7718893474       29.7948604737  TIP3      612             0.0000000000
     24088       804  TIP3      H2              3.3463337686      -32.2833254874       29.9466358367  TIP3      612             0.0000000000
     24089       805  TIP3      OH2             0.8914709730      -29.8598090651       30.2304168594  TIP3      613             0.0000000000
     24090       805  TIP3      H1              1.6590499073      -30.2706994296       29.8001054135  TIP3      613             0.0000000000
     24091       805  TIP3      H2              1.4575894954      -29.3511620949       30.8619095112  TIP3      613             0.0000000000
     24092       806  TIP3      OH2            19.1841294991      -33.7025398477       36.8445514927  TIP3      614             0.0000000000
     24093       806  TIP3      H1             18.2571417869      -33.3959802579       36.7957096155  TIP3      614             0.0000000000
     24094       806  TIP3      H2             19.2226856135      -34.2247472956       36.0288258171  TIP3      614             0.0000000000
     24095       807  TIP3      OH2             1.4805208824      -33.7935245576       24.6422167955  TIP3      615             0.0000000000
     24096       807  TIP3      H1              0.5399108070      -33.5666565893       24.5521391031  TIP3      615             0.0000000000
     24097       807  TIP3      H2              1.9100008836      -33.2636769311       23.9430209052  TIP3      615             0.0000000000
     24098       808  TIP3      OH2            16.2098076241      -18.7840048098       26.6158982473  TIP3      616             0.0000000000
     24099       808  TIP3      H1             16.8727946452      -19.1052022353       26.0069167969  TIP3      616             0.0000000000
     24100       808  TIP3      H2             16.7394058487      -18.2816468860       27.2494807538  TIP3      616             0.0000000000
     24101       809  TIP3      OH2             1.4279286321      -35.0284630373       32.9579233049  TIP3      617             0.0000000000
     24102       809  TIP3      H1              0.7561928503      -35.2386533744       33.6208958921  TIP3      617             0.0000000000
     24103       809  TIP3      H2              0.9587673543      -34.4031758564       32.3743343295  TIP3      617             0.0000000000
     24104       810  TIP3      OH2             3.6730086377      -21.8888969758       37.1143743280  TIP3      618             0.0000000000
     24105       810  TIP3      H1              2.8333791910      -21.6808426600       36.6703051582  TIP3      618             0.0000000000
     24106       810  TIP3      H2              3.4020544184      -21.9559863223       38.0333450322  TIP3      618             0.0000000000
     24107       811  TIP3      OH2             6.5713900710      -20.8713819453       33.3948952482  TIP3      619             0.0000000000
     24108       811  TIP3      H1              6.2426925546      -20.0044343299       33.1208358034  TIP3      619             0.0000000000
     24109       811  TIP3      H2              7.4979814789      -20.7891119139       33.0890644956  TIP3      619             0.0000000000
     24110       812  TIP3      OH2            10.8913701574      -19.4499726022       36.2965092472  TIP3      620             0.0000000000
     24111       812  TIP3      H1             11.0297273413      -19.8038837712       37.2049311225  TIP3      620             0.0000000000
     24112       812  TIP3      H2             11.7951248162      -19.1472958034       36.0552499084  TIP3      620             0.0000000000
     24113       813  TIP3      OH2            13.1785123287      -18.1831449622       35.6086180406  TIP3      621             0.0000000000
     24114       813  TIP3      H1             13.9113038972      -18.7666428615       35.3700756499  TIP3      621             0.0000000000
     24115       813  TIP3      H2             13.5543609397      -17.7443263090       36.4023010055  TIP3      621             0.0000000000
     24116       814  TIP3      OH2            18.1992612567      -35.5502674269       34.6226167108  TIP3      622             0.0000000000
     24117       814  TIP3      H1             17.3571430795      -35.2407801403       34.2496085189  TIP3      622             0.0000000000
     24118       814  TIP3      H2             18.3533737795      -36.4024985526       34.1613154204  TIP3      622             0.0000000000
     24119       815  TIP3      OH2             3.9957123426      -17.6393809038       33.3858428421  TIP3      623             0.0000000000
     24120       815  TIP3      H1              3.2641642721      -17.1374229522       32.9913929967  TIP3      623             0.0000000000
     24121       815  TIP3      H2              3.6849174712      -17.8293490586       34.2826351622  TIP3      623             0.0000000000
     24122       816  TIP3      OH2             6.4636114515      -18.0609780510       32.4604868482  TIP3      624             0.0000000000
     24123       816  TIP3      H1              5.5713043681      -17.9114480037       32.8542431505  TIP3      624             0.0000000000
     24124       816  TIP3      H2              6.4097149166      -17.4707779906       31.6860850512  TIP3      624             0.0000000000
     24125       817  TIP3      OH2            11.1725352607      -18.1452509888       31.6271810976  TIP3      625             0.0000000000
     24126       817  TIP3      H1             10.7080033448      -17.5894132311       30.9838225252  TIP3      625             0.0000000000
     24127       817  TIP3      H2             11.3019559324      -17.5159358295       32.3675403020  TIP3      625             0.0000000000
     24128       818  TIP3      OH2            13.4572242473      -19.3401191471       32.6632773100  TIP3      626             0.0000000000
     24129       818  TIP3      H1             12.6051068324      -19.0616799691       32.2900177230  TIP3      626             0.0000000000
     24130       818  TIP3      H2             13.9447774471      -18.5034339046       32.5685461881  TIP3      626             0.0000000000
     24131       819  TIP3      OH2            16.0399783816      -17.7712584540       32.8809993976  TIP3      627             0.0000000000
     24132       819  TIP3      H1             15.9886147098      -16.8100690268       32.6523612683  TIP3      627             0.0000000000
     24133       819  TIP3      H2             16.2580048419      -18.1454055174       32.0043866231  TIP3      627             0.0000000000
     24134       820  TIP3      OH2             3.4570618008      -18.9898425696       30.3307579482  TIP3      628             0.0000000000
     24135       820  TIP3      H1              3.3739566039      -19.4506023338       31.1925592291  TIP3      628             0.0000000000
     24136       820  TIP3      H2              4.2710492835      -19.3686465812       29.9421974932  TIP3      628             0.0000000000
     24137       821  TIP3      OH2             5.5312810705      -20.2838320289       28.9785597840  TIP3      629             0.0000000000
     24138       821  TIP3      H1              5.3632022957      -21.2150321034       29.2144639804  TIP3      629             0.0000000000
     24139       821  TIP3      H2              6.3847244789      -20.1243726887       29.4344787774  TIP3      629             0.0000000000
     24140       822  TIP3      OH2             8.1363606693      -19.8007277744       29.8624780807  TIP3      630             0.0000000000
     24141       822  TIP3      H1              8.2906667363      -20.7243699531       29.5958274814  TIP3      630             0.0000000000
     24142       822  TIP3      H2              8.1662782616      -19.8722842131       30.8283696117  TIP3      630             0.0000000000
     24143       823  TIP3      OH2            11.4712549979      -34.0775230394       28.9787216391  TIP3      631             0.0000000000
     24144       823  TIP3      H1             10.8857125927      -34.7964289702       29.2656850717  TIP3      631             0.0000000000
     24145       823  TIP3      H2             12.1535200850      -34.5733468089       28.4879637935  TIP3      631             0.0000000000
     24146       824  TIP3      OH2            16.7032157937      -36.0710812832       29.1243335778  TIP3      632             0.0000000000
     24147       824  TIP3      H1             17.3297625826      -35.5309574000       28.5927252556  TIP3      632             0.0000000000
     24148       824  TIP3      H2             15.8464771106      -35.7202439213       28.8688051039  TIP3      632             0.0000000000
     24149       825  TIP3      OH2            18.3782773205      -34.8817782496       27.3347589060  TIP3      633             0.0000000000
     24150       825  TIP3      H1             19.0561135589      -35.4241829576       26.9284561297  TIP3      633             0.0000000000
     24151       825  TIP3      H2             18.8635139989      -34.0285968807       27.4843658356  TIP3      633             0.0000000000
     24152       826  TIP3      OH2             3.9457665621      -35.4615594810       26.8489854560  TIP3      634             0.0000000000
     24153       826  TIP3      H1              3.1542975228      -35.7500103870       26.3647740690  TIP3      634             0.0000000000
     24154       826  TIP3      H2              4.3932619249      -36.3285456706       26.8966983476  TIP3      634             0.0000000000
     24155       827  TIP3      OH2             2.7534717922      -35.7235461379       22.6209307166  TIP3      635             0.0000000000
     24156       827  TIP3      H1              3.1144564939      -35.0579873686       22.0242383400  TIP3      635             0.0000000000
     24157       827  TIP3      H2              2.1052684180      -35.2225492187       23.1371324161  TIP3      635             0.0000000000
     24158       828  TIP3      OH2             8.4898987523      -35.6618637684       26.6362527975  TIP3      636             0.0000000000
     24159       828  TIP3      H1              9.3441477043      -35.2041679044       26.5857492652  TIP3      636             0.0000000000
     24160       828  TIP3      H2              8.3919507450      -35.8134313570       27.5784386014  TIP3      636             0.0000000000
     24161       829  TIP3      OH2            13.8799674819      -35.2038926135       28.4156563699  TIP3      637             0.0000000000
     24162       829  TIP3      H1             14.0179276290      -35.2424806449       27.4667268069  TIP3      637             0.0000000000
     24163       829  TIP3      H2             13.7912377698      -36.1794453765       28.5508301209  TIP3      637             0.0000000000
     24164       830  TIP3      OH2            15.4049181817      -35.5106659767       23.9990344635  TIP3      638             0.0000000000
     24165       830  TIP3      H1             14.6686085363      -34.9328770911       23.7301483172  TIP3      638             0.0000000000
     24166       830  TIP3      H2             14.9742191077      -36.3663826166       24.1126452997  TIP3      638             0.0000000000
     24167       831  TIP3      OH2             2.5790315374      -19.7738168711       23.6514742022  TIP3      639             0.0000000000
     24168       831  TIP3      H1              2.0221923016      -19.8302303069       22.8418059951  TIP3      639             0.0000000000
     24169       831  TIP3      H2              2.6768929131      -18.8123563565       23.6927931706  TIP3      639             0.0000000000
     24170       832  TIP3      OH2             4.6149697571      -33.3993666651       20.9450718434  TIP3      640             0.0000000000
     24171       832  TIP3      H1              4.9656209833      -34.2207052506       20.5639159348  TIP3      640             0.0000000000
     24172       832  TIP3      H2              5.1793214115      -33.3839406074       21.7295299844  TIP3      640             0.0000000000
     24173       833  TIP3      OH2             9.5289045305      -33.5443367277       23.5166416017  TIP3      641             0.0000000000
     24174       833  TIP3      H1              9.8532983835      -34.1476513069       24.2085844508  TIP3      641             0.0000000000
     24175       833  TIP3      H2              9.6714359164      -32.6927830978       23.9760754297  TIP3      641             0.0000000000
     24176       834  TIP3      OH2            11.5512983767      -18.5034526620       21.9352922885  TIP3      642             0.0000000000
     24177       834  TIP3      H1             12.4158419271      -18.1793774321       21.7118304071  TIP3      642             0.0000000000
     24178       834  TIP3      H2             11.2596560760      -18.9779828414       21.1381930814  TIP3      642             0.0000000000
     24179       835  TIP3      OH2             3.7359721327      -35.0235202223       36.1909009528  TIP3      643             0.0000000000
     24180       835  TIP3      H1              3.4059077939      -35.7567002475       36.7184613049  TIP3      643             0.0000000000
     24181       835  TIP3      H2              4.6393652443      -34.9717096134       36.5916448713  TIP3      643             0.0000000000
     24182       836  TIP3      OH2             5.5860546094      -35.3713050515       37.8408003440  TIP3      644             0.0000000000
     24183       836  TIP3      H1              6.5253347361      -35.5731217162       37.7080857205  TIP3      644             0.0000000000
     24184       836  TIP3      H2              5.4159016287      -36.2303412429       38.2772095207  TIP3      644             0.0000000000
     24185       837  TIP3      OH2            14.1557625867       37.0675539913       38.0066826161  TIP3      645             0.0000000000
     24186       837  TIP3      H1             14.2171129978       36.5098079435       38.8106504030  TIP3      645             0.0000000000
     24187       837  TIP3      H2             15.0497327123       36.8545415105       37.6954237793  TIP3      645             0.0000000000
     24188       838  TIP3      OH2            17.4577103981      -20.2546905379       36.7232141930  TIP3      646             0.0000000000
     24189       838  TIP3      H1             16.6533958362      -20.3910222593       36.1766550828  TIP3      646             0.0000000000
     24190       838  TIP3      H2             17.3413367869      -19.3077241216       36.9403777780  TIP3      646             0.0000000000
     24191       839  TIP3      OH2            31.8802476229      -26.3956543873       26.7322674925  TIP3      647             0.0000000000
     24192       839  TIP3      H1             31.9107318374      -25.4153876212       26.6653707494  TIP3      647             0.0000000000
     24193       839  TIP3      H2             31.1808339512      -26.5979332087       26.0908112882  TIP3      647             0.0000000000
     24194       840  TIP3      OH2            30.6775681260      -27.1003623039       30.2130218864  TIP3      648             0.0000000000
     24195       840  TIP3      H1             30.7755786839      -27.7684334602       30.9146737736  TIP3      648             0.0000000000
     24196       840  TIP3      H2             30.4700461601      -27.6509428778       29.4387994431  TIP3      648             0.0000000000
     24197       841  TIP3      OH2            23.1299995230      -27.4506425728       31.7301253111  TIP3      649             0.0000000000
     24198       841  TIP3      H1             23.1736702989      -28.1368252725       32.4360559457  TIP3      649             0.0000000000
     24199       841  TIP3      H2             23.8402044552      -26.8674509312       32.0170129374  TIP3      649             0.0000000000
     24200       842  TIP3      OH2            34.4842221225      -24.1921483672       28.5133976190  TIP3      650             0.0000000000
     24201       842  TIP3      H1             34.0354715791      -24.9187756380       28.9659079445  TIP3      650             0.0000000000
     24202       842  TIP3      H2             34.4391131791      -23.4841605825       29.1693543713  TIP3      650             0.0000000000
     24203       843  TIP3      OH2            24.0268562534      -23.0035475258       30.2630135311  TIP3      651             0.0000000000
     24204       843  TIP3      H1             23.7063504339      -23.8612244042       29.9245934698  TIP3      651             0.0000000000
     24205       843  TIP3      H2             24.9814318936      -23.1580971252       30.2962880254  TIP3      651             0.0000000000
     24206       844  TIP3      OH2            21.3810729578      -27.2384503519       27.8357585509  TIP3      652             0.0000000000
     24207       844  TIP3      H1             21.6649390947      -28.0242286769       28.3208358933  TIP3      652             0.0000000000
     24208       844  TIP3      H2             22.1237582964      -27.0554637354       27.2452992439  TIP3      652             0.0000000000
     24209       845  TIP3      OH2            31.5838373452      -18.9999196810       28.7218688416  TIP3      653             0.0000000000
     24210       845  TIP3      H1             32.1885831958      -19.7203474220       28.4291273119  TIP3      653             0.0000000000
     24211       845  TIP3      H2             31.3196383346      -19.3459369493       29.5797424615  TIP3      653             0.0000000000
     24212       846  TIP3      OH2            29.2487989497      -24.6952474437       30.6589780011  TIP3      654             0.0000000000
     24213       846  TIP3      H1             29.6383110302      -25.3293600602       30.0274624664  TIP3      654             0.0000000000
     24214       846  TIP3      H2             30.0500505977      -24.5647305272       31.2233167078  TIP3      654             0.0000000000
     24215       847  TIP3      OH2            32.3160231228      -30.2429571421       30.9970816496  TIP3      655             0.0000000000
     24216       847  TIP3      H1             32.4661297241      -31.2117408494       30.9828064855  TIP3      655             0.0000000000
     24217       847  TIP3      H2             32.2081024828      -30.0981503365       30.0366594721  TIP3      655             0.0000000000
     24218       848  TIP3      OH2            33.1736544456      -32.0445648586       26.6123773894  TIP3      656             0.0000000000
     24219       848  TIP3      H1             33.8342832601      -32.3768595595       27.2703081894  TIP3      656             0.0000000000
     24220       848  TIP3      H2             33.7574832586      -31.5349716206       26.0342237261  TIP3      656             0.0000000000
     24221       849  TIP3      OH2            27.1722389503      -28.1914909100       28.3267014597  TIP3      657             0.0000000000
     24222       849  TIP3      H1             27.8812497741      -28.7839754967       28.6389626281  TIP3      657             0.0000000000
     24223       849  TIP3      H2             26.6989593308      -28.8378532760       27.7526382218  TIP3      657             0.0000000000
     24224       850  TIP3      OH2            24.3405300323      -33.2009255083       32.2498193034  TIP3      658             0.0000000000
     24225       850  TIP3      H1             24.0028452967      -32.6754834120       31.4987617748  TIP3      658             0.0000000000
     24226       850  TIP3      H2             23.6270165144      -33.0386550336       32.9161906165  TIP3      658             0.0000000000
     24227       851  TIP3      OH2            31.6136518637      -23.8148292382       25.7877095901  TIP3      659             0.0000000000
     24228       851  TIP3      H1             31.3475233206      -24.0540578163       24.8906820656  TIP3      659             0.0000000000
     24229       851  TIP3      H2             31.3173012094      -22.8815845950       25.8656350253  TIP3      659             0.0000000000
     24230       852  TIP3      OH2            26.8160005259      -25.5910173953       32.4457923594  TIP3      660             0.0000000000
     24231       852  TIP3      H1             26.0991180399      -25.0031148591       32.7942601018  TIP3      660             0.0000000000
     24232       852  TIP3      H2             27.5635999383      -24.9766355871       32.4638147904  TIP3      660             0.0000000000
     24233       853  TIP3      OH2            34.6590290446      -32.8182148157       28.6715758027  TIP3      661             0.0000000000
     24234       853  TIP3      H1             34.6768812260      -33.5948355950       29.2286744793  TIP3      661             0.0000000000
     24235       853  TIP3      H2             35.4146946545      -32.3184732696       29.0542872846  TIP3      661             0.0000000000
     24236       854  TIP3      OH2            23.8802463767      -31.3796684777       30.2010434844  TIP3      662             0.0000000000
     24237       854  TIP3      H1             24.5032530562      -30.7156185914       30.5706402256  TIP3      662             0.0000000000
     24238       854  TIP3      H2             24.3964589531      -31.8270171661       29.5165696420  TIP3      662             0.0000000000
     24239       855  TIP3      OH2            25.2808223751      -23.6320857415       33.2693081269  TIP3      663             0.0000000000
     24240       855  TIP3      H1             25.2296557370      -22.6944851771       32.9867392634  TIP3      663             0.0000000000
     24241       855  TIP3      H2             24.4116986060      -23.7025436305       33.7514304159  TIP3      663             0.0000000000
     24242       856  TIP3      OH2            34.7820028330      -22.3982888316       30.9373276585  TIP3      664             0.0000000000
     24243       856  TIP3      H1             33.8109445913      -22.2361561748       31.0043515337  TIP3      664             0.0000000000
     24244       856  TIP3      H2             35.0984536226      -21.5302618766       30.6764690764  TIP3      664             0.0000000000
     24245       857  TIP3      OH2            35.0773521258      -33.8997261817       31.9876492078  TIP3      665             0.0000000000
     24246       857  TIP3      H1             34.3957178714      -33.2218949283       32.0808290862  TIP3      665             0.0000000000
     24247       857  TIP3      H2             35.8628795577      -33.4342017543       31.6813205434  TIP3      665             0.0000000000
     24248       858  TIP3      OH2            28.2478021651      -35.9233985053       29.5524293544  TIP3      666             0.0000000000
     24249       858  TIP3      H1             28.2230992964      -36.8834863324       29.6965042040  TIP3      666             0.0000000000
     24250       858  TIP3      H2             27.4551441164      -35.6602088478       30.0419957665  TIP3      666             0.0000000000
     24251       859  TIP3      OH2            33.1910710293      -20.6510500133       27.5299287554  TIP3      667             0.0000000000
     24252       859  TIP3      H1             33.6307146007      -21.3215405148       26.9623020184  TIP3      667             0.0000000000
     24253       859  TIP3      H2             33.5713610215      -19.8438991283       27.1064836048  TIP3      667             0.0000000000
     24254       860  TIP3      OH2            34.4482557424      -22.6290780659       25.9958473811  TIP3      668             0.0000000000
     24255       860  TIP3      H1             34.1865864426      -23.3310768215       25.3725127998  TIP3      668             0.0000000000
     24256       860  TIP3      H2             34.4911420670      -23.1575070666       26.8136547843  TIP3      668             0.0000000000
     24257       861  TIP3      OH2            35.7973258747      -23.8966110417       34.5802607202  TIP3      669             0.0000000000
     24258       861  TIP3      H1             36.0794556320      -24.5957084786       33.9572646249  TIP3      669             0.0000000000
     24259       861  TIP3      H2             36.2184895414      -23.1395782961       34.1402851915  TIP3      669             0.0000000000
     24260       862  TIP3      OH2            30.5181931679      -27.1212978168       24.2208377383  TIP3      670             0.0000000000
     24261       862  TIP3      H1             29.8818073593      -26.5068259744       23.8100760317  TIP3      670             0.0000000000
     24262       862  TIP3      H2             31.2771862173      -27.0623438445       23.5821623613  TIP3      670             0.0000000000
     24263       863  TIP3      OH2            33.9917335842      -26.8793325871       25.1424955937  TIP3      671             0.0000000000
     24264       863  TIP3      H1             33.2459184022      -26.6761781305       25.7421771485  TIP3      671             0.0000000000
     24265       863  TIP3      H2             34.4627717853      -27.5606861697       25.6703279029  TIP3      671             0.0000000000
     24266       864  TIP3      OH2            33.9505675151      -28.7534080609       34.2377401403  TIP3      672             0.0000000000
     24267       864  TIP3      H1             33.9041756376      -27.9544981141       34.7878055852  TIP3      672             0.0000000000
     24268       864  TIP3      H2             33.3140884573      -28.4841320175       33.5529757104  TIP3      672             0.0000000000
     24269       865  TIP3      OH2            25.6343749448      -26.2422299400       27.0724705445  TIP3      673             0.0000000000
     24270       865  TIP3      H1             25.3005070916      -26.6223628653       26.2278388893  TIP3      673             0.0000000000
     24271       865  TIP3      H2             26.2285443661      -26.9689853077       27.3750923432  TIP3      673             0.0000000000
     24272       866  TIP3      OH2            26.8969346054      -23.0327375112       29.7960991480  TIP3      674             0.0000000000
     24273       866  TIP3      H1             26.9549701469      -23.2984343624       28.8597385877  TIP3      674             0.0000000000
     24274       866  TIP3      H2             27.8092569697      -23.0909880446       30.1402297478  TIP3      674             0.0000000000
     24275       867  TIP3      OH2            25.9354262205      -27.4764836319       30.6995269820  TIP3      675             0.0000000000
     24276       867  TIP3      H1             26.5190547375      -27.5017775107       29.9122795794  TIP3      675             0.0000000000
     24277       867  TIP3      H2             26.3494141027      -26.9370006355       31.3982758599  TIP3      675             0.0000000000
     24278       868  TIP3      OH2            32.3245138186      -21.9281046183       31.4212313821  TIP3      676             0.0000000000
     24279       868  TIP3      H1             32.0699200411      -21.3157172423       32.1149387167  TIP3      676             0.0000000000
     24280       868  TIP3      H2             32.1378608575      -22.7963084305       31.8413615014  TIP3      676             0.0000000000
     24281       869  TIP3      OH2            26.9058947896      -23.0961122245       35.3825057574  TIP3      677             0.0000000000
     24282       869  TIP3      H1             26.4999730928      -22.3676074789       35.9006078221  TIP3      677             0.0000000000
     24283       869  TIP3      H2             26.2029522277      -23.2872972100       34.7240807793  TIP3      677             0.0000000000
     24284       870  TIP3      OH2            32.7854444118      -27.6305091189       22.8577381586  TIP3      678             0.0000000000
     24285       870  TIP3      H1             33.4483595189      -27.5861431024       23.5754355236  TIP3      678             0.0000000000
     24286       870  TIP3      H2             33.3259180908      -27.3674722281       22.0814232454  TIP3      678             0.0000000000
     24287       871  TIP3      OH2            23.8621274914      -26.9010670256       34.5234306573  TIP3      679             0.0000000000
     24288       871  TIP3      H1             23.8970114802      -26.2692809001       35.2695929375  TIP3      679             0.0000000000
     24289       871  TIP3      H2             22.9063285845      -26.8606876056       34.3500965623  TIP3      679             0.0000000000
     24290       872  TIP3      OH2            30.6026830602      -20.9827430632       26.2482536032  TIP3      680             0.0000000000
     24291       872  TIP3      H1             31.0343708389      -20.7163695446       27.0757581304  TIP3      680             0.0000000000
     24292       872  TIP3      H2             30.0124666062      -20.2465138527       26.0732395588  TIP3      680             0.0000000000
     24293       873  TIP3      OH2            25.1515794183      -21.0676353431       36.1491831270  TIP3      681             0.0000000000
     24294       873  TIP3      H1             25.0851748798      -21.1637268497       35.1826460682  TIP3      681             0.0000000000
     24295       873  TIP3      H2             24.2219954052      -21.1932009930       36.4279219022  TIP3      681             0.0000000000
     24296       874  TIP3      OH2            24.5878373962      -27.2518572860       24.6264828163  TIP3      682             0.0000000000
     24297       874  TIP3      H1             24.2882199779      -26.4263174036       24.2159373838  TIP3      682             0.0000000000
     24298       874  TIP3      H2             23.8826799322      -27.8710972719       24.4289328497  TIP3      682             0.0000000000
     24299       875  TIP3      OH2            20.6787706700      -24.8173361302       33.5747273221  TIP3      683             0.0000000000
     24300       875  TIP3      H1             20.2306363694      -24.8991852379       32.7118184774  TIP3      683             0.0000000000
     24301       875  TIP3      H2             20.7593494563      -25.7682028875       33.7840372050  TIP3      683             0.0000000000
     24302       876  TIP3      OH2            20.4373824717      -22.0841799225       30.3672686666  TIP3      684             0.0000000000
     24303       876  TIP3      H1             21.3961436227      -22.1974433392       30.3222248043  TIP3      684             0.0000000000
     24304       876  TIP3      H2             20.3585387083      -21.2583757941       30.8590611308  TIP3      684             0.0000000000
     24305       877  TIP3      OH2            29.6348175615      -21.8367085548       34.9025320689  TIP3      685             0.0000000000
     24306       877  TIP3      H1             29.6981435427      -20.9938484529       35.4111161071  TIP3      685             0.0000000000
     24307       877  TIP3      H2             28.7646312843      -22.1930798011       35.1657685673  TIP3      685             0.0000000000
     24308       878  TIP3      OH2            30.1010556279      -18.1185425817       24.6803688998  TIP3      686             0.0000000000
     24309       878  TIP3      H1             29.9443261886      -18.1378175640       23.7403011839  TIP3      686             0.0000000000
     24310       878  TIP3      H2             30.0704237992      -17.1684652797       24.9164025083  TIP3      686             0.0000000000
     24311       879  TIP3      OH2            23.7345841401      -19.2808617624       26.5016526790  TIP3      687             0.0000000000
     24312       879  TIP3      H1             23.8330610322      -19.6250679328       27.4124522407  TIP3      687             0.0000000000
     24313       879  TIP3      H2             22.8323013392      -19.5634207471       26.3012942558  TIP3      687             0.0000000000
     24314       880  TIP3      OH2            32.7917785422      -18.8967187392       24.5355202701  TIP3      688             0.0000000000
     24315       880  TIP3      H1             31.8316048240      -18.9043544011       24.6712729431  TIP3      688             0.0000000000
     24316       880  TIP3      H2             33.0740410223      -19.7000315776       24.9945164309  TIP3      688             0.0000000000
     24317       881  TIP3      OH2            35.3231925418      -29.7331943006       36.5376707999  TIP3      689             0.0000000000
     24318       881  TIP3      H1             35.2879690229      -29.3870068840       35.6432401780  TIP3      689             0.0000000000
     24319       881  TIP3      H2             35.8638716409      -30.5566985224       36.3859792158  TIP3      689             0.0000000000
     24320       882  TIP3      OH2            22.9661582728      -23.4958356972       34.5038618318  TIP3      690             0.0000000000
     24321       882  TIP3      H1             23.1807897816      -23.8636110070       35.3850582242  TIP3      690             0.0000000000
     24322       882  TIP3      H2             22.0971193119      -23.8978918740       34.2945530177  TIP3      690             0.0000000000
     24323       883  TIP3      OH2            25.6263955779      -35.0679502132       30.5011590450  TIP3      691             0.0000000000
     24324       883  TIP3      H1             24.7379889581      -35.1237629170       30.0930991671  TIP3      691             0.0000000000
     24325       883  TIP3      H2             25.5137584656      -34.2143026555       30.9459429896  TIP3      691             0.0000000000
     24326       884  TIP3      OH2            30.2640939985      -35.3365020811       33.8779216580  TIP3      692             0.0000000000
     24327       884  TIP3      H1             30.6929251522      -35.7542984945       34.6245843965  TIP3      692             0.0000000000
     24328       884  TIP3      H2             29.3109646048      -35.4480225816       34.0361710169  TIP3      692             0.0000000000
     24329       885  TIP3      OH2            33.5030229097      -31.5986871269       34.6735772830  TIP3      693             0.0000000000
     24330       885  TIP3      H1             32.9994392195      -31.7084189309       35.5110330655  TIP3      693             0.0000000000
     24331       885  TIP3      H2             33.4401287164      -30.6420349557       34.5171576695  TIP3      693             0.0000000000
     24332       886  TIP3      OH2            34.3431537646      -26.2275999023       20.5361543843  TIP3      694             0.0000000000
     24333       886  TIP3      H1             34.2051396346      -26.9234119135       19.8380926498  TIP3      694             0.0000000000
     24334       886  TIP3      H2             35.2189594161      -26.4379314612       20.8192423511  TIP3      694             0.0000000000
     24335       887  TIP3      OH2            25.7295393725      -30.0555464330       31.7090226816  TIP3      695             0.0000000000
     24336       887  TIP3      H1             24.9868671716      -30.0903152578       32.3446212087  TIP3      695             0.0000000000
     24337       887  TIP3      H2             25.6771143165      -29.1479132293       31.3547227181  TIP3      695             0.0000000000
     24338       888  TIP3      OH2            25.6751332130      -29.8633890235       26.5226680946  TIP3      696             0.0000000000
     24339       888  TIP3      H1             24.8351052837      -30.3027586179       26.4535535928  TIP3      696             0.0000000000
     24340       888  TIP3      H2             26.1488785265      -30.2827877793       25.7754110973  TIP3      696             0.0000000000
     24341       889  TIP3      OH2            31.2217086645      -29.4493064972       25.3064272887  TIP3      697             0.0000000000
     24342       889  TIP3      H1             30.8474739435      -28.5880377178       25.0106788423  TIP3      697             0.0000000000
     24343       889  TIP3      H2             31.9445116683      -29.5557552267       24.6755032834  TIP3      697             0.0000000000
     24344       890  TIP3      OH2            30.2959348782      -29.2203226315       36.7903475142  TIP3      698             0.0000000000
     24345       890  TIP3      H1             29.7730987766      -29.9999619289       37.0938431628  TIP3      698             0.0000000000
     24346       890  TIP3      H2             31.1365352441      -29.3474619124       37.2637562917  TIP3      698             0.0000000000
     24347       891  TIP3      OH2            32.2282804417      -29.9272433104       28.2091437591  TIP3      699             0.0000000000
     24348       891  TIP3      H1             32.0009498730      -29.3870022761       27.4336346310  TIP3      699             0.0000000000
     24349       891  TIP3      H2             32.3632800002      -30.7841752656       27.7556936794  TIP3      699             0.0000000000
     24350       892  TIP3      OH2            23.3571093286      -29.7953043616       33.3974213774  TIP3      700             0.0000000000
     24351       892  TIP3      H1             23.4545274302      -29.4009344172       34.2815720461  TIP3      700             0.0000000000
     24352       892  TIP3      H2             22.9200259735      -30.6354216239       33.6019945070  TIP3      700             0.0000000000
     24353       893  TIP3      OH2            19.9140471849      -32.8623823388       27.4898628370  TIP3      701             0.0000000000
     24354       893  TIP3      H1             20.6493485772      -32.7073632672       28.1210721588  TIP3      701             0.0000000000
     24355       893  TIP3      H2             20.3884177155      -33.0192719488       26.6566940194  TIP3      701             0.0000000000
     24356       894  TIP3      OH2            31.4004573267      -28.3581137785       32.7169187619  TIP3      702             0.0000000000
     24357       894  TIP3      H1             31.8347178154      -29.0521207911       32.1714957656  TIP3      702             0.0000000000
     24358       894  TIP3      H2             30.9770924686      -28.8860358903       33.4176684227  TIP3      702             0.0000000000
     24359       895  TIP3      OH2            28.2620271804      -32.3692315355       27.5674743639  TIP3      703             0.0000000000
     24360       895  TIP3      H1             27.3397109605      -32.3795543397       27.8663631245  TIP3      703             0.0000000000
     24361       895  TIP3      H2             28.7606731974      -32.5446768179       28.3821247165  TIP3      703             0.0000000000
     24362       896  TIP3      OH2            26.6606190470      -30.7092879923       24.1616795493  TIP3      704             0.0000000000
     24363       896  TIP3      H1             27.6311396158      -30.7609577219       24.2933623220  TIP3      704             0.0000000000
     24364       896  TIP3      H2             26.5144095388      -30.1086897290       23.4367893923  TIP3      704             0.0000000000
     24365       897  TIP3      OH2            32.5883651990      -33.1568382928       30.8326565580  TIP3      705             0.0000000000
     24366       897  TIP3      H1             31.9117358905      -33.0882472602       31.5268446482  TIP3      705             0.0000000000
     24367       897  TIP3      H2             32.1113059458      -33.4236240758       30.0320931946  TIP3      705             0.0000000000
     24368       898  TIP3      OH2            35.7664305403      -17.4617136992       37.1746404338  TIP3      706             0.0000000000
     24369       898  TIP3      H1             36.1081084217      -17.1445999252       36.3226679151  TIP3      706             0.0000000000
     24370       898  TIP3      H2             36.5138614914      -17.2049351203       37.7438766586  TIP3      706             0.0000000000
     24371       899  TIP3      OH2            23.5498104076      -25.0427908214       36.7172355750  TIP3      707             0.0000000000
     24372       899  TIP3      H1             24.2610779861      -24.7946598127       37.3301137485  TIP3      707             0.0000000000
     24373       899  TIP3      H2             22.7736154409      -24.9604597778       37.3153118550  TIP3      707             0.0000000000
     24374       900  TIP3      OH2            29.5428241407      -29.6267703055       29.4807473598  TIP3      708             0.0000000000
     24375       900  TIP3      H1             30.1468469338      -30.1652050584       28.9441997702  TIP3      708             0.0000000000
     24376       900  TIP3      H2             29.4111637781      -30.1839484714       30.2618867278  TIP3      708             0.0000000000
     24377       901  TIP3      OH2            28.1890445801      -31.2569478358       31.8782012583  TIP3      709             0.0000000000
     24378       901  TIP3      H1             27.3399479266      -30.7852591793       31.9940041874  TIP3      709             0.0000000000
     24379       901  TIP3      H2             28.7367791764      -30.9357311577       32.6223603992  TIP3      709             0.0000000000
     24380       902  TIP3      OH2            28.7589246227      -25.1499305322       23.6507418054  TIP3      710             0.0000000000
     24381       902  TIP3      H1             27.9551095263      -25.5084026697       23.2734840232  TIP3      710             0.0000000000
     24382       902  TIP3      H2             28.5470048341      -24.9400782906       24.5729655772  TIP3      710             0.0000000000
     24383       903  TIP3      OH2            35.6300141427      -25.8488735022       32.3872172176  TIP3      711             0.0000000000
     24384       903  TIP3      H1             36.3622821683      -25.7356998202       31.7350944806  TIP3      711             0.0000000000
     24385       903  TIP3      H2             34.8721033731      -25.8527542337       31.7726162430  TIP3      711             0.0000000000
     24386       904  TIP3      OH2            30.2222981780      -24.8095637795       34.8011483952  TIP3      712             0.0000000000
     24387       904  TIP3      H1             29.9346232131      -25.2318863882       35.6213987749  TIP3      712             0.0000000000
     24388       904  TIP3      H2             30.0589261592      -23.8742424883       34.9605567679  TIP3      712             0.0000000000
     24389       905  TIP3      OH2            23.9550650285      -25.6788091409       29.4312996568  TIP3      713             0.0000000000
     24390       905  TIP3      H1             24.5382134863      -25.7962983674       28.6603139616  TIP3      713             0.0000000000
     24391       905  TIP3      H2             23.9274952087      -26.5597654815       29.8501892490  TIP3      713             0.0000000000
     24392       906  TIP3      OH2            20.8740410973      -27.2817791349       34.6530412309  TIP3      714             0.0000000000
     24393       906  TIP3      H1             21.0376829324      -27.7218228138       35.5068378206  TIP3      714             0.0000000000
     24394       906  TIP3      H2             20.2447428127      -27.8878512653       34.2213851582  TIP3      714             0.0000000000
     24395       907  TIP3      OH2            27.8815192165      -27.7106878580       36.8195615221  TIP3      715             0.0000000000
     24396       907  TIP3      H1             27.5612558037      -28.0302325245       35.9647743664  TIP3      715             0.0000000000
     24397       907  TIP3      H2             28.8012478738      -28.0444333963       36.8263812458  TIP3      715             0.0000000000
     24398       908  TIP3      OH2            32.5653530057      -22.4072280020       34.7816195467  TIP3      716             0.0000000000
     24399       908  TIP3      H1             31.6514033783      -22.2099140639       34.5354857344  TIP3      716             0.0000000000
     24400       908  TIP3      H2             32.5391613883      -22.0974955009       35.7078601693  TIP3      716             0.0000000000
     24401       909  TIP3      OH2            33.6846675436      -26.5869724222       30.6812476291  TIP3      717             0.0000000000
     24402       909  TIP3      H1             32.7546229213      -26.8143155404       30.5383239966  TIP3      717             0.0000000000
     24403       909  TIP3      H2             34.1589845366      -27.3237861631       30.2532572986  TIP3      717             0.0000000000
     24404       910  TIP3      OH2            26.2570642293      -22.2392416986       26.7820833745  TIP3      718             0.0000000000
     24405       910  TIP3      H1             26.7309955304      -21.4226176302       26.5403061118  TIP3      718             0.0000000000
     24406       910  TIP3      H2             25.3675338669      -22.0081511637       26.4697999253  TIP3      718             0.0000000000
     24407       911  TIP3      OH2            22.0425360572      -27.4766056851       21.5111655223  TIP3      719             0.0000000000
     24408       911  TIP3      H1             22.5405908771      -26.6722712810       21.6296598903  TIP3      719             0.0000000000
     24409       911  TIP3      H2             21.1364134462      -27.1250473581       21.5059407531  TIP3      719             0.0000000000
     24410       912  TIP3      OH2            27.6899795465      -24.5485630889       26.3719185013  TIP3      720             0.0000000000
     24411       912  TIP3      H1             27.3525226135      -23.6327405997       26.3898202762  TIP3      720             0.0000000000
     24412       912  TIP3      H2             26.9192624704      -25.0508129233       26.6945195976  TIP3      720             0.0000000000
     24413       913  TIP3      OH2            28.1203448749      -20.4075755926       32.6888750094  TIP3      721             0.0000000000
     24414       913  TIP3      H1             28.5689162537      -19.5906751404       32.4117006781  TIP3      721             0.0000000000
     24415       913  TIP3      H2             28.7268841531      -20.7060369648       33.3916717391  TIP3      721             0.0000000000
     24416       914  TIP3      OH2            26.3607249335      -19.5943491685       25.8329257864  TIP3      722             0.0000000000
     24417       914  TIP3      H1             25.3912874013      -19.4541813572       25.9636487753  TIP3      722             0.0000000000
     24418       914  TIP3      H2             26.6879568095      -18.7449781586       26.1750822069  TIP3      722             0.0000000000
     24419       915  TIP3      OH2            31.6083295527      -24.4107246211       32.2918372373  TIP3      723             0.0000000000
     24420       915  TIP3      H1             31.3392231378      -24.5615661269       33.2259202876  TIP3      723             0.0000000000
     24421       915  TIP3      H2             32.2952971425      -25.0866435640       32.1577116433  TIP3      723             0.0000000000
     24422       916  TIP3      OH2            34.4743313087      -19.8397877621       34.7815123671  TIP3      724             0.0000000000
     24423       916  TIP3      H1             33.7296780929      -20.2881751812       34.3334155929  TIP3      724             0.0000000000
     24424       916  TIP3      H2             34.6600535775      -19.1009765591       34.1603606455  TIP3      724             0.0000000000
     24425       917  TIP3      OH2            22.5126138729      -32.5645329251       34.2206143861  TIP3      725             0.0000000000
     24426       917  TIP3      H1             21.6064502257      -32.2109478452       34.1884539466  TIP3      725             0.0000000000
     24427       917  TIP3      H2             22.3846441967      -33.4342141495       34.6356604410  TIP3      725             0.0000000000
     24428       918  TIP3      OH2            34.7581395906      -24.6879519655       23.7035808762  TIP3      726             0.0000000000
     24429       918  TIP3      H1             34.5184610194      -25.5013356593       24.1985021847  TIP3      726             0.0000000000
     24430       918  TIP3      H2             35.7050259481      -24.6298770937       23.8958758323  TIP3      726             0.0000000000
     24431       919  TIP3      OH2            22.1313422979      -20.7620434615       32.6285553298  TIP3      727             0.0000000000
     24432       919  TIP3      H1             22.4380805379      -21.6822188457       32.6322089749  TIP3      727             0.0000000000
     24433       919  TIP3      H2             22.3943337370      -20.4711304990       33.5082459302  TIP3      727             0.0000000000
     24434       920  TIP3      OH2            26.9017528170      -22.7154101071       22.3600672538  TIP3      728             0.0000000000
     24435       920  TIP3      H1             27.1492492550      -23.2280013174       23.1292985864  TIP3      728             0.0000000000
     24436       920  TIP3      H2             26.9056293611      -21.8097007918       22.6377364434  TIP3      728             0.0000000000
     24437       921  TIP3      OH2            31.2287029961      -32.7800101682       33.1735029664  TIP3      729             0.0000000000
     24438       921  TIP3      H1             31.9929243261      -32.7261281060       33.7655631128  TIP3      729             0.0000000000
     24439       921  TIP3      H2             30.8809767393      -33.6739688592       33.3434480638  TIP3      729             0.0000000000
     24440       922  TIP3      OH2            32.0645392907      -33.1877918189       24.2463094422  TIP3      730             0.0000000000
     24441       922  TIP3      H1             32.1999264152      -32.6922527382       23.4120902506  TIP3      730             0.0000000000
     24442       922  TIP3      H2             32.6230421376      -32.7240711585       24.8754757242  TIP3      730             0.0000000000
     24443       923  TIP3      OH2            29.1966948856      -31.4122069741       25.0493117132  TIP3      731             0.0000000000
     24444       923  TIP3      H1             30.0247588539      -30.8916759412       25.0944471000  TIP3      731             0.0000000000
     24445       923  TIP3      H2             28.9930614898      -31.5839315806       25.9928907583  TIP3      731             0.0000000000
     24446       924  TIP3      OH2            29.8036958618      -30.4158819217       34.2511400521  TIP3      732             0.0000000000
     24447       924  TIP3      H1             29.8875659665      -29.8647913605       35.0538022242  TIP3      732             0.0000000000
     24448       924  TIP3      H2             30.4545542533      -31.1285249901       34.3473046524  TIP3      732             0.0000000000
     24449       925  TIP3      OH2            30.0905024921      -34.3887124146       26.0071446717  TIP3      733             0.0000000000
     24450       925  TIP3      H1             29.7517588282      -33.7136667216       26.6110829991  TIP3      733             0.0000000000
     24451       925  TIP3      H2             30.7350422248      -33.8468225832       25.4896102456  TIP3      733             0.0000000000
     24452       926  TIP3      OH2            35.8465764518      -32.7570934514       34.9495257850  TIP3      734             0.0000000000
     24453       926  TIP3      H1             34.9993141651      -32.2531832452       34.9316563996  TIP3      734             0.0000000000
     24454       926  TIP3      H2             36.2310372200      -32.5532897232       34.0927565714  TIP3      734             0.0000000000
     24455       927  TIP3      OH2            34.5567143281      -28.7593052367       29.1911197176  TIP3      735             0.0000000000
     24456       927  TIP3      H1             33.7553887063      -29.2050027078       28.8520725295  TIP3      735             0.0000000000
     24457       927  TIP3      H2             35.0010705518      -29.4880208780       29.6309502581  TIP3      735             0.0000000000
     24458       928  TIP3      OH2            35.5038765690      -19.3953861371       30.9372345372  TIP3      736             0.0000000000
     24459       928  TIP3      H1             35.3612319938      -18.7283016785       30.2245035001  TIP3      736             0.0000000000
     24460       928  TIP3      H2             36.4052179161      -19.2678280414       31.2620476915  TIP3      736             0.0000000000
     24461       929  TIP3      OH2            22.8616845622      -35.2141893804       29.6056871348  TIP3      737             0.0000000000
     24462       929  TIP3      H1             22.9648184570      -35.3582578433       28.6533571935  TIP3      737             0.0000000000
     24463       929  TIP3      H2             22.7422279535      -36.1335213844       29.8634095078  TIP3      737             0.0000000000
     24464       930  TIP3      OH2            22.1007214965      -21.4476148436       25.7215624517  TIP3      738             0.0000000000
     24465       930  TIP3      H1             21.2380019086      -21.0294164744       25.6794969986  TIP3      738             0.0000000000
     24466       930  TIP3      H2             22.6099222055      -20.9865353611       25.0499916895  TIP3      738             0.0000000000
     24467       931  TIP3      OH2            21.2845617898      -18.8136647096       37.0184211953  TIP3      739             0.0000000000
     24468       931  TIP3      H1             21.8901663637      -19.0161793752       37.7577334249  TIP3      739             0.0000000000
     24469       931  TIP3      H2             20.8829350520      -19.6813672199       36.8374927464  TIP3      739             0.0000000000
     24470       932  TIP3      OH2            25.9682395002      -19.8964893523       38.6276974402  TIP3      740             0.0000000000
     24471       932  TIP3      H1             26.7249725011      -20.3964041812       38.9606308462  TIP3      740             0.0000000000
     24472       932  TIP3      H2             25.9422674819      -20.1754804440       37.6912566651  TIP3      740             0.0000000000
     24473       933  TIP3      OH2            32.5289484631      -21.5276916037       37.3723242318  TIP3      741             0.0000000000
     24474       933  TIP3      H1             32.1778581916      -22.3965336089       37.6588064491  TIP3      741             0.0000000000
     24475       933  TIP3      H2             33.2807933915      -21.4189334546       37.9841430155  TIP3      741             0.0000000000
     24476       934  TIP3      OH2            21.1995188737      -25.0434899913       38.0133970556  TIP3      742             0.0000000000
     24477       934  TIP3      H1             21.3632317644      -25.9561681129       37.7142146888  TIP3      742             0.0000000000
     24478       934  TIP3      H2             20.4576308978      -24.7859664187       37.4414761845  TIP3      742             0.0000000000
     24479       935  TIP3      OH2            27.9124991712      -25.0535779559       37.4001352424  TIP3      743             0.0000000000
     24480       935  TIP3      H1             27.5800257251      -24.7435800246       36.5356166256  TIP3      743             0.0000000000
     24481       935  TIP3      H2             27.9882822115      -26.0324725155       37.2926278311  TIP3      743             0.0000000000
     24482       936  TIP3      OH2            33.5741908069      -25.2336210099       34.7854882362  TIP3      744             0.0000000000
     24483       936  TIP3      H1             34.3701985140      -24.6416873705       34.7335610712  TIP3      744             0.0000000000
     24484       936  TIP3      H2             32.9077957912      -24.5403631374       34.8408714809  TIP3      744             0.0000000000
     24485       937  TIP3      OH2            22.1214547474      -27.8152949475       37.3964545770  TIP3      745             0.0000000000
     24486       937  TIP3      H1             22.5343932080      -28.6800318598       37.3053555035  TIP3      745             0.0000000000
     24487       937  TIP3      H2             21.8843038335      -27.8119635870       38.3383000613  TIP3      745             0.0000000000
     24488       938  TIP3      OH2            26.0161840049      -28.8730174995       34.7461738386  TIP3      746             0.0000000000
     24489       938  TIP3      H1             25.4276396371      -28.1536495171       35.0330023053  TIP3      746             0.0000000000
     24490       938  TIP3      H2             26.4136163029      -28.5039697873       33.9424359835  TIP3      746             0.0000000000
     24491       939  TIP3      OH2            31.0919048304      -26.2971182316       38.0904585727  TIP3      747             0.0000000000
     24492       939  TIP3      H1             32.0484612671      -26.3149070606       37.9919122054  TIP3      747             0.0000000000
     24493       939  TIP3      H2             30.9334221945      -27.0784401322       38.6434427501  TIP3      747             0.0000000000
     24494       940  TIP3      OH2            26.4112902758      -31.5008559288       35.8074488751  TIP3      748             0.0000000000
     24495       940  TIP3      H1             26.5441320283      -32.2111285025       35.1582120190  TIP3      748             0.0000000000
     24496       940  TIP3      H2             26.3779626709      -30.6896051961       35.2542705013  TIP3      748             0.0000000000
     24497       941  TIP3      OH2            26.8178043634      -33.0975356910       33.3094085644  TIP3      749             0.0000000000
     24498       941  TIP3      H1             27.3418171539      -32.6231099332       32.6260861619  TIP3      749             0.0000000000
     24499       941  TIP3      H2             25.9194321250      -33.1890903256       32.9118303990  TIP3      749             0.0000000000
     24500       942  TIP3      OH2            28.3426606716      -27.6355175663       33.5810066581  TIP3      750             0.0000000000
     24501       942  TIP3      H1             29.1333047226      -27.8048854920       33.0550197802  TIP3      750             0.0000000000
     24502       942  TIP3      H2             28.0374947646      -26.7714096770       33.3012731237  TIP3      750             0.0000000000
     24503       943  TIP3      OH2            32.8161452012      -29.8438522272       38.5751805422  TIP3      751             0.0000000000
     24504       943  TIP3      H1             33.0372679874      -30.7827919135       38.4632337013  TIP3      751             0.0000000000
     24505       943  TIP3      H2             33.6900927886      -29.4282055866       38.5328089644  TIP3      751             0.0000000000
     24506       944  TIP3      OH2            34.1239046108      -27.0323816414       36.7356090595  TIP3      752             0.0000000000
     24507       944  TIP3      H1             33.8283334548      -26.3499230667       36.0928243350  TIP3      752             0.0000000000
     24508       944  TIP3      H2             35.0526988257      -27.1512754761       36.5213870745  TIP3      752             0.0000000000
     24509       945  TIP3      OH2            24.8842089010      -30.2458507630       37.7295472872  TIP3      753             0.0000000000
     24510       945  TIP3      H1             24.1151918566      -30.8214816261       37.5557849478  TIP3      753             0.0000000000
     24511       945  TIP3      H2             25.5419515662      -30.6049683200       37.1055167674  TIP3      753             0.0000000000
     24512       946  TIP3      OH2            27.4680501438      -35.4803556245       34.0293283434  TIP3      754             0.0000000000
     24513       946  TIP3      H1             27.4142538469      -34.5411338834       33.7258896519  TIP3      754             0.0000000000
     24514       946  TIP3      H2             26.8883345633      -35.8959297529       33.3748258782  TIP3      754             0.0000000000
     24515       947  TIP3      OH2            28.8626643801      -31.3132169013       37.3661664915  TIP3      755             0.0000000000
     24516       947  TIP3      H1             28.5844475347      -31.6236240939       38.2480074507  TIP3      755             0.0000000000
     24517       947  TIP3      H2             28.0904817234      -31.5642465153       36.8338252391  TIP3      755             0.0000000000
     24518       948  TIP3      OH2            31.5736357424      -32.1853253179       36.4850389626  TIP3      756             0.0000000000
     24519       948  TIP3      H1             30.6096284481      -32.1769594413       36.6070339134  TIP3      756             0.0000000000
     24520       948  TIP3      H2             31.9015294831      -32.8242193666       37.1490265539  TIP3      756             0.0000000000
     24521       949  TIP3      OH2            33.2917120097      -33.5011958736       38.4354722771  TIP3      757             0.0000000000
     24522       949  TIP3      H1             33.1057319657      -34.4711272054       38.3802331672  TIP3      757             0.0000000000
     24523       949  TIP3      H2             32.8989073442      -33.2808665943       39.2971602439  TIP3      757             0.0000000000
     24524       950  TIP3      OH2            22.9481461139      -32.3163040180       37.4809025883  TIP3      758             0.0000000000
     24525       950  TIP3      H1             23.2155345353      -33.0509129853       36.8967747276  TIP3      758             0.0000000000
     24526       950  TIP3      H2             22.8817335399      -32.7723241608       38.3436090041  TIP3      758             0.0000000000
     24527       951  TIP3      OH2            27.8151085963       36.7219438045       36.4855938237  TIP3      759             0.0000000000
     24528       951  TIP3      H1             28.5004151409       36.0520480672       36.5291678908  TIP3      759             0.0000000000
     24529       951  TIP3      H2             27.7107921379       36.9304644115       35.5326332845  TIP3      759             0.0000000000
     24530       952  TIP3      OH2            28.2173859542      -34.5954507800       38.5275912004  TIP3      760             0.0000000000
     24531       952  TIP3      H1             28.0409659754      -35.1692978315       37.7514965640  TIP3      760             0.0000000000
     24532       952  TIP3      H2             27.5802011778      -33.8712527646       38.4581278802  TIP3      760             0.0000000000
     24533       953  TIP3      OH2            19.8479566369      -17.7966211033       26.2124706842  TIP3      761             0.0000000000
     24534       953  TIP3      H1             19.3073080244      -18.3240951001       25.6294815489  TIP3      761             0.0000000000
     24535       953  TIP3      H2             20.2865593558      -18.4330049964       26.8117024827  TIP3      761             0.0000000000
     24536       954  TIP3      OH2            20.7873003140      -19.6806842752       28.0651889950  TIP3      762             0.0000000000
     24537       954  TIP3      H1             20.4610715365      -20.5602260173       28.2893135822  TIP3      762             0.0000000000
     24538       954  TIP3      H2             21.0630593924      -19.3375032601       28.9323930225  TIP3      762             0.0000000000
     24539       955  TIP3      OH2            36.2820558858      -21.5727645957       33.1856448805  TIP3      763             0.0000000000
     24540       955  TIP3      H1             35.6352295814      -21.1888954048       33.8014816325  TIP3      763             0.0000000000
     24541       955  TIP3      H2             35.7216942828      -22.0090693122       32.5268220739  TIP3      763             0.0000000000
     24542       956  TIP3      OH2            35.3236820667      -28.5840409484       26.6209227602  TIP3      764             0.0000000000
     24543       956  TIP3      H1             35.6266846640      -29.5037493537       26.5553804566  TIP3      764             0.0000000000
     24544       956  TIP3      H2             35.5031474815      -28.3712470422       27.5545387418  TIP3      764             0.0000000000
     24545       957  TIP3      OH2            20.8681277023      -26.6241887385       30.5220522916  TIP3      765             0.0000000000
     24546       957  TIP3      H1             21.0604420293      -26.6542758150       29.5657423819  TIP3      765             0.0000000000
     24547       957  TIP3      H2             21.7536093725      -26.7583274458       30.9100824992  TIP3      765             0.0000000000
     24548       958  TIP3      OH2            35.6486309317      -33.0818652458       19.8968764636  TIP3      766             0.0000000000
     24549       958  TIP3      H1             36.3784484152      -33.0357414626       20.5733823527  TIP3      766             0.0000000000
     24550       958  TIP3      H2             34.8690864726      -33.0878137977       20.4144205914  TIP3      766             0.0000000000
     24551       959  TIP3      OH2            35.5126740844      -31.0971888405       24.9575057701  TIP3      767             0.0000000000
     24552       959  TIP3      H1             35.8018736044      -31.9948961515       25.1388991722  TIP3      767             0.0000000000
     24553       959  TIP3      H2             36.2386016441      -30.7831937795       24.3988637772  TIP3      767             0.0000000000
     24554       960  TIP3      OH2           -37.0693382856      -31.3665952498       30.3585363349  TIP3      768             0.0000000000
     24555       960  TIP3      H1            -36.1683205154      -31.0423785215       30.2435727667  TIP3      768             0.0000000000
     24556       960  TIP3      H2            -37.2678796003      -30.7528401297       31.0821473766  TIP3      768             0.0000000000
     24557       961  TIP3      OH2            36.2569337415      -29.7639769953       33.4193991229  TIP3      769             0.0000000000
     24558       961  TIP3      H1             35.3228641492      -29.4947098164       33.5110479727  TIP3      769             0.0000000000
     24559       961  TIP3      H2             36.6195905555      -29.0776696189       32.8302055585  TIP3      769             0.0000000000
     24560       962  TIP3      OH2            20.4821014047      -31.2641064393       36.7059892562  TIP3      770             0.0000000000
     24561       962  TIP3      H1             21.4196792508      -31.4862522485       36.8755354719  TIP3      770             0.0000000000
     24562       962  TIP3      H2             20.0414094815      -32.1041925355       36.9550854024  TIP3      770             0.0000000000
     24563       963  TIP3      OH2            35.3170418465      -34.1865778002       25.6563745059  TIP3      771             0.0000000000
     24564       963  TIP3      H1             36.2550603974      -34.2718430884       25.8671429860  TIP3      771             0.0000000000
     24565       963  TIP3      H2             35.3212057284      -34.5045426555       24.7232017596  TIP3      771             0.0000000000
     24566       964  TIP3      OH2            21.6570949174      -32.9311240127       29.5201534875  TIP3      772             0.0000000000
     24567       964  TIP3      H1             22.0917292848      -33.7735344183       29.7956692709  TIP3      772             0.0000000000
     24568       964  TIP3      H2             22.2492756278      -32.2794225242       29.9145513573  TIP3      772             0.0000000000
     24569       965  TIP3      OH2            20.0074916929      -29.9805960900       30.5607297503  TIP3      773             0.0000000000
     24570       965  TIP3      H1             20.5392789595      -30.2820115034       29.8116218120  TIP3      773             0.0000000000
     24571       965  TIP3      H2             20.4545869761      -29.1756147704       30.8552721542  TIP3      773             0.0000000000
     24572       966  TIP3      OH2            34.8868934817      -18.9897100607       26.7098032610  TIP3      774             0.0000000000
     24573       966  TIP3      H1             35.5216094017      -19.2936035082       26.0405047713  TIP3      774             0.0000000000
     24574       966  TIP3      H2             35.3861668158      -18.3351314474       27.2284915539  TIP3      774             0.0000000000
     24575       967  TIP3      OH2            20.2959040990      -35.0002053632       32.9861752350  TIP3      775             0.0000000000
     24576       967  TIP3      H1             19.6107641517      -35.2422782250       33.6249801772  TIP3      775             0.0000000000
     24577       967  TIP3      H2             19.8241614572      -34.4043591813       32.3724060870  TIP3      775             0.0000000000
     24578       968  TIP3      OH2            22.5291725585      -21.8883221946       37.1150759599  TIP3      776             0.0000000000
     24579       968  TIP3      H1             21.6916551945      -21.6615157160       36.6763176007  TIP3      776             0.0000000000
     24580       968  TIP3      H2             22.2586664620      -21.9565500047       38.0345520278  TIP3      776             0.0000000000
     24581       969  TIP3      OH2            25.4338955287      -20.9198378318       33.3499662855  TIP3      777             0.0000000000
     24582       969  TIP3      H1             25.0989889392      -20.0378317568       33.1249231714  TIP3      777             0.0000000000
     24583       969  TIP3      H2             26.3685028573      -20.7751562021       33.0947212403  TIP3      777             0.0000000000
     24584       970  TIP3      OH2            29.7497170953      -19.4509565765       36.2981927741  TIP3      778             0.0000000000
     24585       970  TIP3      H1             29.8942490725      -19.7995188463       37.2098372692  TIP3      778             0.0000000000
     24586       970  TIP3      H2             30.6508948562      -19.1412699340       36.0522026478  TIP3      778             0.0000000000
     24587       971  TIP3      OH2            32.0416916387      -18.1887339075       35.6355239458  TIP3      779             0.0000000000
     24588       971  TIP3      H1             32.7877262768      -18.7526484018       35.3763499059  TIP3      779             0.0000000000
     24589       971  TIP3      H2             32.4381617865      -17.7291402949       36.4059362533  TIP3      779             0.0000000000
     24590       972  TIP3      OH2            22.8528032415      -17.6365578755       33.3863387376  TIP3      780             0.0000000000
     24591       972  TIP3      H1             22.1196005361      -17.1382975469       32.9925468242  TIP3      780             0.0000000000
     24592       972  TIP3      H2             22.5422072973      -17.8293656452       34.2823931330  TIP3      780             0.0000000000
     24593       973  TIP3      OH2            25.3207676740      -18.0619257185       32.4659739264  TIP3      781             0.0000000000
     24594       973  TIP3      H1             24.4267073768      -17.9224444958       32.8594415393  TIP3      781             0.0000000000
     24595       973  TIP3      H2             25.2680349471      -17.4573783881       31.7026866195  TIP3      781             0.0000000000
     24596       974  TIP3      OH2            29.9789792034      -18.1690240495       31.6288155063  TIP3      782             0.0000000000
     24597       974  TIP3      H1             29.5544577377      -17.5849064237       30.9807339902  TIP3      782             0.0000000000
     24598       974  TIP3      H2             30.1744297916      -17.5348901437       32.3536216374  TIP3      782             0.0000000000
     24599       975  TIP3      OH2            32.3366481000      -19.3461776746       32.6290699278  TIP3      783             0.0000000000
     24600       975  TIP3      H1             31.4673193056      -19.0796884373       32.2896920530  TIP3      783             0.0000000000
     24601       975  TIP3      H2             32.7664931556      -18.4731933898       32.6036264333  TIP3      783             0.0000000000
     24602       976  TIP3      OH2            34.7619170852      -17.7597779115       32.8894963381  TIP3      784             0.0000000000
     24603       976  TIP3      H1             34.7482286860      -16.8084443183       32.6710080742  TIP3      784             0.0000000000
     24604       976  TIP3      H2             35.0642115666      -18.1312785265       32.0455487177  TIP3      784             0.0000000000
     24605       977  TIP3      OH2            22.3115421133      -18.9930882473       30.3479847294  TIP3      785             0.0000000000
     24606       977  TIP3      H1             22.2407421261      -19.4636527221       31.2036986168  TIP3      785             0.0000000000
     24607       977  TIP3      H2             23.1219372548      -19.3672202852       29.9361908757  TIP3      785             0.0000000000
     24608       978  TIP3      OH2            24.3743427522      -20.2948802815       29.0123995015  TIP3      786             0.0000000000
     24609       978  TIP3      H1             24.2125344776      -21.2281058590       29.2221324245  TIP3      786             0.0000000000
     24610       978  TIP3      H2             25.2406399108      -20.1091586447       29.4293880880  TIP3      786             0.0000000000
     24611       979  TIP3      OH2            26.9648095408      -19.7902401554       29.8756064901  TIP3      787             0.0000000000
     24612       979  TIP3      H1             27.1442555761      -20.6948187891       29.5859791125  TIP3      787             0.0000000000
     24613       979  TIP3      H2             27.0326440697      -19.8454878351       30.8395326231  TIP3      787             0.0000000000
     24614       980  TIP3      OH2            30.3075069487      -34.0728381785       28.9737905041  TIP3      788             0.0000000000
     24615       980  TIP3      H1             29.7356401783      -34.7998495802       29.2624159263  TIP3      788             0.0000000000
     24616       980  TIP3      H2             31.0055840622      -34.5636888728       28.4921343567  TIP3      788             0.0000000000
     24617       981  TIP3      OH2            35.5855107137      -36.0475166170       29.1369730399  TIP3      789             0.0000000000
     24618       981  TIP3      H1             36.1781197746      -35.5054375315       28.6202587457  TIP3      789             0.0000000000
     24619       981  TIP3      H2             34.7148465549      -35.7307611832       28.8956816143  TIP3      789             0.0000000000
     24620       982  TIP3      OH2            27.3342284023      -35.6383417865       26.6146686113  TIP3      790             0.0000000000
     24621       982  TIP3      H1             28.2005365442      -35.2017065993       26.5668993881  TIP3      790             0.0000000000
     24622       982  TIP3      H2             27.2390899215      -35.8221442901       27.5518407921  TIP3      790             0.0000000000
     24623       983  TIP3      OH2            32.6888697708      -35.2161722004       28.4103271465  TIP3      791             0.0000000000
     24624       983  TIP3      H1             32.8881070658      -35.2257162534       27.4714879598  TIP3      791             0.0000000000
     24625       983  TIP3      H2             32.6316622282      -36.1955961654       28.5327868434  TIP3      791             0.0000000000
     24626       984  TIP3      OH2            34.2125218272      -35.5773675210       23.8068890724  TIP3      792             0.0000000000
     24627       984  TIP3      H1             33.4882531747      -34.9343155386       23.7457583965  TIP3      792             0.0000000000
     24628       984  TIP3      H2             33.7778218677      -36.3819843507       24.0961597625  TIP3      792             0.0000000000
     24629       985  TIP3      OH2            28.3505017812      -33.5642966319       23.5361899146  TIP3      793             0.0000000000
     24630       985  TIP3      H1             28.7246295776      -34.1450112619       24.2086150296  TIP3      793             0.0000000000
     24631       985  TIP3      H2             28.4975526809      -32.7114692513       23.9681431595  TIP3      793             0.0000000000
     24632       986  TIP3      OH2            22.6004238496      -35.0078456506       36.1878283259  TIP3      794             0.0000000000
     24633       986  TIP3      H1             22.2637562998      -35.7388956678       36.7092194133  TIP3      794             0.0000000000
     24634       986  TIP3      H2             23.5003510533      -34.9814118007       36.5981216129  TIP3      794             0.0000000000
     24635       987  TIP3      OH2            24.4405311294      -35.3750894189       37.8440710818  TIP3      795             0.0000000000
     24636       987  TIP3      H1             25.3806534313      -35.5737024443       37.7090190839  TIP3      795             0.0000000000
     24637       987  TIP3      H2             24.2720553309      -36.2341659173       38.2796758975  TIP3      795             0.0000000000
     24638       988  TIP3      OH2            33.0757020121       37.0695468318       38.0025835374  TIP3      796             0.0000000000
     24639       988  TIP3      H1             33.0917459162       36.5071803719       38.8080062080  TIP3      796             0.0000000000
     24640       988  TIP3      H2             33.9590780357       36.8548254635       37.6799235316  TIP3      796             0.0000000000
     24641       989  TIP3      OH2            36.0991869337      -20.3743333971       36.8556717168  TIP3      797             0.0000000000
     24642       989  TIP3      H1             35.4523987971      -20.4304716466       36.1219092966  TIP3      797             0.0000000000
     24643       989  TIP3      H2             36.1223884195      -19.3932603137       36.9480098196  TIP3      797             0.0000000000
     24644       990  TIP3      OH2           -24.6782014996       -7.5318004088       26.6985870435  TIP3      798             0.0000000000
     24645       990  TIP3      H1            -24.6716015693       -6.5518579359       26.6685855596  TIP3      798             0.0000000000
     24646       990  TIP3      H2            -25.4075508786       -7.7422208881       26.0917975618  TIP3      798             0.0000000000
     24647       991  TIP3      OH2           -25.8109969264       -8.2701061991       30.2032700401  TIP3      799             0.0000000000
     24648       991  TIP3      H1            -25.8195329644       -8.9169922035       30.9208557703  TIP3      799             0.0000000000
     24649       991  TIP3      H2            -26.1593761196       -8.7778076291       29.4517037852  TIP3      799             0.0000000000
     24650       992  TIP3      OH2           -33.4048576341       -8.6036407672       31.7219717708  TIP3      800             0.0000000000
     24651       992  TIP3      H1            -33.3474983024       -9.2762453207       32.4342292077  TIP3      800             0.0000000000
     24652       992  TIP3      H2            -32.7041055507       -7.9966981336       31.9987843032  TIP3      800             0.0000000000
     24653       993  TIP3      OH2           -22.1102895013       -5.3066294540       28.4794087886  TIP3      801             0.0000000000
     24654       993  TIP3      H1            -22.5010955035       -6.0355591009       28.9738832843  TIP3      801             0.0000000000
     24655       993  TIP3      H2            -22.0999722019       -4.6096269104       29.1577607007  TIP3      801             0.0000000000
     24656       994  TIP3      OH2           -32.5369895229       -4.1597768185       30.2713396520  TIP3      802             0.0000000000
     24657       994  TIP3      H1            -32.8523118041       -5.0135658396       29.9194895709  TIP3      802             0.0000000000
     24658       994  TIP3      H2            -31.5775341426       -4.3269349741       30.2981488845  TIP3      802             0.0000000000
     24659       995  TIP3      OH2           -35.5965532706      -10.5654837199       25.3384579386  TIP3      803             0.0000000000
     24660       995  TIP3      H1            -36.0508512665       -9.7708465473       25.7044978285  TIP3      803             0.0000000000
     24661       995  TIP3      H2            -36.3828377908      -11.1008811096       25.3206307452  TIP3      803             0.0000000000
     24662       996  TIP3      OH2           -35.2152114560       -8.4344091974       27.8305496335  TIP3      804             0.0000000000
     24663       996  TIP3      H1            -34.9102462287       -9.1892068951       28.3551980783  TIP3      804             0.0000000000
     24664       996  TIP3      H2            -34.4815041620       -8.2507817615       27.2240707197  TIP3      804             0.0000000000
     24665       997  TIP3      OH2           -24.9989931855       -0.1558908696       28.7231235192  TIP3      805             0.0000000000
     24666       997  TIP3      H1            -24.3584061613       -0.8511045913       28.4333666777  TIP3      805             0.0000000000
     24667       997  TIP3      H2            -25.2189435074       -0.4984345798       29.5919040071  TIP3      805             0.0000000000
     24668       998  TIP3      OH2           -27.4371517782       -5.8675429915       30.6796152204  TIP3      806             0.0000000000
     24669       998  TIP3      H1            -27.0983839508       -6.4935193529       30.0189093679  TIP3      806             0.0000000000
     24670       998  TIP3      H2            -26.6250052764       -5.7094638478       31.1924812559  TIP3      806             0.0000000000
     24671       999  TIP3      OH2           -18.8420771837      -14.2031957003       31.3994845034  TIP3      807             0.0000000000
     24672       999  TIP3      H1            -18.6627214164      -13.6179842006       32.1667911824  TIP3      807             0.0000000000
     24673       999  TIP3      H2            -18.2698709465      -13.7858976279       30.7397931513  TIP3      807             0.0000000000
     24674      1000  TIP3      OH2           -24.2692405372      -11.3973527976       30.9876995059  TIP3      808             0.0000000000
     24675      1000  TIP3      H1            -24.0999611803      -12.3551394302       30.9974884454  TIP3      808             0.0000000000
     24676      1000  TIP3      H2            -24.3696913521      -11.2605656955       30.0254678494  TIP3      808             0.0000000000
     24677      1001  TIP3      OH2           -31.1582652124      -13.3077210667       28.2174409276  TIP3      809             0.0000000000
     24678      1001  TIP3      H1            -31.0363632780      -12.4792701679       27.7166579683  TIP3      809             0.0000000000
     24679      1001  TIP3      H2            -31.5334130911      -13.8828615907       27.5148588461  TIP3      809             0.0000000000
     24680      1002  TIP3      OH2           -23.4296219598      -13.1902217639       26.6245337096  TIP3      810             0.0000000000
     24681      1002  TIP3      H1            -22.7507119482      -13.5347665042       27.2496356817  TIP3      810             0.0000000000
     24682      1002  TIP3      H2            -22.8753635554      -12.6838572392       26.0127223153  TIP3      810             0.0000000000
     24683      1003  TIP3      OH2           -34.5640056696      -10.9848639963       28.8801187112  TIP3      811             0.0000000000
     24684      1003  TIP3      H1            -33.8357120910      -11.4491390749       29.3451740395  TIP3      811             0.0000000000
     24685      1003  TIP3      H2            -34.3763966157      -11.2615824986       27.9711063912  TIP3      811             0.0000000000
     24686      1004  TIP3      OH2           -29.3883714633       -9.3563097545       28.2810641191  TIP3      812             0.0000000000
     24687      1004  TIP3      H1            -28.6992534268       -9.9295420365       28.6574944151  TIP3      812             0.0000000000
     24688      1004  TIP3      H2            -29.8766410501      -10.0051549609       27.7337467147  TIP3      812             0.0000000000
     24689      1005  TIP3      OH2           -18.3981051623      -12.8050652061       33.6788706050  TIP3      813             0.0000000000
     24690      1005  TIP3      H1            -19.0027018845      -12.0356885934       33.5669123908  TIP3      813             0.0000000000
     24691      1005  TIP3      H2            -18.3648370172      -12.8814060935       34.6387669627  TIP3      813             0.0000000000
     24692      1006  TIP3      OH2           -32.2008461941      -14.4117199440       32.2388451595  TIP3      814             0.0000000000
     24693      1006  TIP3      H1            -32.5131474652      -13.8427476794       31.5022619844  TIP3      814             0.0000000000
     24694      1006  TIP3      H2            -32.8861888474      -14.1860814372       32.9187002076  TIP3      814             0.0000000000
     24695      1007  TIP3      OH2           -24.9439419356       -4.9472159698       25.8059679937  TIP3      815             0.0000000000
     24696      1007  TIP3      H1            -25.2366793242       -5.2104287224       24.9140668576  TIP3      815             0.0000000000
     24697      1007  TIP3      H2            -25.2546990965       -4.0149446070       25.8559269889  TIP3      815             0.0000000000
     24698      1008  TIP3      OH2           -29.7074177789       -6.7660253082       32.4849893066  TIP3      816             0.0000000000
     24699      1008  TIP3      H1            -30.4265159610       -6.1319565776       32.7025330654  TIP3      816             0.0000000000
     24700      1008  TIP3      H2            -29.0134909101       -6.1601434279       32.1902348297  TIP3      816             0.0000000000
     24701      1009  TIP3      OH2           -21.6190256006      -13.8805527471       28.5507713013  TIP3      817             0.0000000000
     24702      1009  TIP3      H1            -21.8216073501      -14.6405220247       29.1065134086  TIP3      817             0.0000000000
     24703      1009  TIP3      H2            -20.9366281614      -13.4311765848       29.0754826787  TIP3      817             0.0000000000
     24704      1010  TIP3      OH2           -32.7001429154      -12.5741414505       30.2784614686  TIP3      818             0.0000000000
     24705      1010  TIP3      H1            -32.0821381420      -11.8761466042       30.6041734007  TIP3      818             0.0000000000
     24706      1010  TIP3      H2            -32.1527180099      -12.9566619540       29.5401101649  TIP3      818             0.0000000000
     24707      1011  TIP3      OH2           -31.2956860489       -4.7785275328       33.2898769874  TIP3      819             0.0000000000
     24708      1011  TIP3      H1            -31.3377193267       -3.8552877052       32.9689243604  TIP3      819             0.0000000000
     24709      1011  TIP3      H2            -32.1747054339       -4.8546998799       33.7343082338  TIP3      819             0.0000000000
     24710      1012  TIP3      OH2           -21.5796477539       -3.4698092470       30.8642156172  TIP3      820             0.0000000000
     24711      1012  TIP3      H1            -22.5532161817       -3.3769856123       30.9757278427  TIP3      820             0.0000000000
     24712      1012  TIP3      H2            -21.3438170131       -2.5506195093       30.6496226264  TIP3      820             0.0000000000
     24713      1013  TIP3      OH2           -21.2721780541      -15.1984437664       32.2443085538  TIP3      821             0.0000000000
     24714      1013  TIP3      H1            -21.9974215031      -14.5647726687       32.1525844721  TIP3      821             0.0000000000
     24715      1013  TIP3      H2            -20.5589849248      -14.7781631236       31.7230130469  TIP3      821             0.0000000000
     24716      1014  TIP3      OH2           -28.3180446798      -17.1102386217       29.6424196250  TIP3      822             0.0000000000
     24717      1014  TIP3      H1            -28.4963585603      -18.0662416876       29.7003835652  TIP3      822             0.0000000000
     24718      1014  TIP3      H2            -29.1568029362      -16.7567476809       30.0138033777  TIP3      822             0.0000000000
     24719      1015  TIP3      OH2           -23.3331805286       -1.7082921132       27.4398322479  TIP3      823             0.0000000000
     24720      1015  TIP3      H1            -22.8970718677       -2.4256550785       26.9451368981  TIP3      823             0.0000000000
     24721      1015  TIP3      H2            -22.9261049559       -0.9109482052       27.0380042050  TIP3      823             0.0000000000
     24722      1016  TIP3      OH2           -22.0532776983       -3.8218307820       25.9224358731  TIP3      824             0.0000000000
     24723      1016  TIP3      H1            -22.4462463976       -4.4940027919       25.3475557372  TIP3      824             0.0000000000
     24724      1016  TIP3      H2            -22.1040746171       -4.2531732515       26.8002240951  TIP3      824             0.0000000000
     24725      1017  TIP3      OH2           -20.5173607581       -5.1800728322       34.4638661401  TIP3      825             0.0000000000
     24726      1017  TIP3      H1            -20.3590135067       -5.8261736058       33.7395975223  TIP3      825             0.0000000000
     24727      1017  TIP3      H2            -20.3204102171       -4.3357560996       34.0250659560  TIP3      825             0.0000000000
     24728      1018  TIP3      OH2           -26.0201333861       -8.2838389090       24.2274174196  TIP3      826             0.0000000000
     24729      1018  TIP3      H1            -26.7263022742       -7.7253121854       23.8536195131  TIP3      826             0.0000000000
     24730      1018  TIP3      H2            -25.3191227068       -8.1974306433       23.5580480522  TIP3      826             0.0000000000
     24731      1019  TIP3      OH2           -25.9955673710       -9.8631908762       21.3343908028  TIP3      827             0.0000000000
     24732      1019  TIP3      H1            -25.2296956746       -9.7373150527       21.9155030158  TIP3      827             0.0000000000
     24733      1019  TIP3      H2            -25.6897245510      -10.4083347148       20.6229511017  TIP3      827             0.0000000000
     24734      1020  TIP3      OH2           -18.6196500035       -8.8634592559       32.5094529599  TIP3      828             0.0000000000
     24735      1020  TIP3      H1            -19.2850600338       -8.1482734223       32.5472340135  TIP3      828             0.0000000000
     24736      1020  TIP3      H2            -18.1337125878       -8.6276237024       31.6985257796  TIP3      828             0.0000000000
     24737      1021  TIP3      OH2           -22.5455347808       -8.0909793684       25.1103718818  TIP3      829             0.0000000000
     24738      1021  TIP3      H1            -23.2755210262       -7.8129205710       25.7106257719  TIP3      829             0.0000000000
     24739      1021  TIP3      H2            -22.0888523904       -8.7558172163       25.6573221656  TIP3      829             0.0000000000
     24740      1022  TIP3      OH2           -22.6323161693       -9.9090494538       34.2670122045  TIP3      830             0.0000000000
     24741      1022  TIP3      H1            -22.6267731159       -9.0896534003       34.7883186472  TIP3      830             0.0000000000
     24742      1022  TIP3      H2            -23.2617178076       -9.6174255317       33.5747886213  TIP3      830             0.0000000000
     24743      1023  TIP3      OH2           -30.9268697852       -7.4041470224       27.0593454191  TIP3      831             0.0000000000
     24744      1023  TIP3      H1            -31.2874817227       -7.7935681991       26.2203566018  TIP3      831             0.0000000000
     24745      1023  TIP3      H2            -30.3290306878       -8.1097553138       27.3901991236  TIP3      831             0.0000000000
     24746      1024  TIP3      OH2           -29.6329757973       -4.0305151058       29.7349950518  TIP3      832             0.0000000000
     24747      1024  TIP3      H1            -29.6355212537       -4.5587552705       28.9274930787  TIP3      832             0.0000000000
     24748      1024  TIP3      H2            -28.8491204968       -4.3859568316       30.1947618721  TIP3      832             0.0000000000
     24749      1025  TIP3      OH2           -30.5912482657       -8.6743867835       30.7210488788  TIP3      833             0.0000000000
     24750      1025  TIP3      H1            -30.0586385621       -8.5632916061       29.9114066058  TIP3      833             0.0000000000
     24751      1025  TIP3      H2            -30.2311162608       -7.9920727321       31.3306818876  TIP3      833             0.0000000000
     24752      1026  TIP3      OH2           -24.2122618994       -3.0933991063       31.4221122396  TIP3      834             0.0000000000
     24753      1026  TIP3      H1            -24.4923763449       -2.4578255729       32.0863029180  TIP3      834             0.0000000000
     24754      1026  TIP3      H2            -24.4636164255       -3.9477785780       31.8478946599  TIP3      834             0.0000000000
     24755      1027  TIP3      OH2           -29.6682675543       -4.2400676054       35.4155881237  TIP3      835             0.0000000000
     24756      1027  TIP3      H1            -30.0829682888       -3.4982775692       35.9035491591  TIP3      835             0.0000000000
     24757      1027  TIP3      H2            -30.3379115925       -4.4354909348       34.7167204426  TIP3      835             0.0000000000
     24758      1028  TIP3      OH2           -23.6976434195       -8.9153434530       22.8021164982  TIP3      836             0.0000000000
     24759      1028  TIP3      H1            -23.1838245001       -8.6914459923       23.6181170839  TIP3      836             0.0000000000
     24760      1028  TIP3      H2            -23.3199295011       -8.3179107155       22.1252012241  TIP3      836             0.0000000000
     24761      1029  TIP3      OH2           -32.7311061786       -8.0671430902       34.5957630593  TIP3      837             0.0000000000
     24762      1029  TIP3      H1            -32.6840315082       -7.3840150392       35.2869509745  TIP3      837             0.0000000000
     24763      1029  TIP3      H2            -33.6705456822       -7.9797256064       34.3623998771  TIP3      837             0.0000000000
     24764      1030  TIP3      OH2           -26.0119544362       -2.1628061143       26.2960816268  TIP3      838             0.0000000000
     24765      1030  TIP3      H1            -25.5215348740       -1.8205705058       27.0496477314  TIP3      838             0.0000000000
     24766      1030  TIP3      H2            -26.5301748157       -1.3963851595       26.0242890255  TIP3      838             0.0000000000
     24767      1031  TIP3      OH2           -31.4205087930       -2.2163804549       36.1609273468  TIP3      839             0.0000000000
     24768      1031  TIP3      H1            -31.4960799856       -2.2964029801       35.1927744922  TIP3      839             0.0000000000
     24769      1031  TIP3      H2            -32.3538872204       -2.3408364181       36.4254995656  TIP3      839             0.0000000000
     24770      1032  TIP3      OH2           -19.9755548069      -17.1066061697       22.8328818951  TIP3      840             0.0000000000
     24771      1032  TIP3      H1            -20.9474544235      -17.0310516124       22.8514074977  TIP3      840             0.0000000000
     24772      1032  TIP3      H2            -19.7813262374      -16.3392657060       22.2582412585  TIP3      840             0.0000000000
     24773      1033  TIP3      OH2           -31.9800170003       -8.3817942114       24.7126758834  TIP3      841             0.0000000000
     24774      1033  TIP3      H1            -32.2583404183       -7.6242369602       24.1609677057  TIP3      841             0.0000000000
     24775      1033  TIP3      H2            -32.6509454943       -9.0309344973       24.4677144370  TIP3      841             0.0000000000
     24776      1034  TIP3      OH2           -35.2937663014       -6.0933193892       33.3164809028  TIP3      842             0.0000000000
     24777      1034  TIP3      H1            -36.0669117427       -5.9679465839       32.7250202134  TIP3      842             0.0000000000
     24778      1034  TIP3      H2            -35.6664166601       -6.8794779111       33.7787289577  TIP3      842             0.0000000000
     24779      1035  TIP3      OH2           -35.8306750813       -2.9854849732       30.0752793998  TIP3      843             0.0000000000
     24780      1035  TIP3      H1            -35.0051523081       -3.3940572122       30.3499669536  TIP3      843             0.0000000000
     24781      1035  TIP3      H2            -36.1121325416       -2.5244993275       30.8773508755  TIP3      843             0.0000000000
     24782      1036  TIP3      OH2           -17.8968851788       -2.5271219979       35.9901339472  TIP3      844             0.0000000000
     24783      1036  TIP3      H1            -18.0104500925       -3.4887799478       36.0206059673  TIP3      844             0.0000000000
     24784      1036  TIP3      H2            -18.7521235834       -2.2728595053       36.4133458105  TIP3      844             0.0000000000
     24785      1037  TIP3      OH2           -26.9347423138       -2.9845959777       34.9001734844  TIP3      845             0.0000000000
     24786      1037  TIP3      H1            -26.8761757514       -2.1418141583       35.4083973710  TIP3      845             0.0000000000
     24787      1037  TIP3      H2            -27.8079181516       -3.3429591657       35.1510612212  TIP3      845             0.0000000000
     24788      1038  TIP3      OH2           -26.5170955627        0.7621885940       24.7124328790  TIP3      846             0.0000000000
     24789      1038  TIP3      H1            -26.5515414272        0.6526519415       23.7552335326  TIP3      846             0.0000000000
     24790      1038  TIP3      H2            -26.4450705110        1.7243432060       24.8568704551  TIP3      846             0.0000000000
     24791      1039  TIP3      OH2           -32.8891067202       -0.3375367800       26.5009641994  TIP3      847             0.0000000000
     24792      1039  TIP3      H1            -32.7097702147       -0.7612949363       27.3758398483  TIP3      847             0.0000000000
     24793      1039  TIP3      H2            -33.6968859515       -0.8394146958       26.2850491793  TIP3      847             0.0000000000
     24794      1040  TIP3      OH2           -23.7431059322       -0.0275385440       24.5825722234  TIP3      848             0.0000000000
     24795      1040  TIP3      H1            -24.7088962497       -0.0357564619       24.5821438853  TIP3      848             0.0000000000
     24796      1040  TIP3      H2            -23.5190855105       -0.8551910415       25.0126519865  TIP3      848             0.0000000000
     24797      1041  TIP3      OH2           -20.7447616483      -11.0563483728       36.5072460560  TIP3      849             0.0000000000
     24798      1041  TIP3      H1            -21.2202982669      -10.6054277365       35.7906130338  TIP3      849             0.0000000000
     24799      1041  TIP3      H2            -20.7592652324      -11.9756960947       36.2015944512  TIP3      849             0.0000000000
     24800      1042  TIP3      OH2           -33.5857634182       -4.5639262132       34.5822024034  TIP3      850             0.0000000000
     24801      1042  TIP3      H1            -33.4056143187       -5.0124248811       35.4283785289  TIP3      850             0.0000000000
     24802      1042  TIP3      H2            -34.4155426331       -5.0116545079       34.2937425387  TIP3      850             0.0000000000
     24803      1043  TIP3      OH2           -30.8924173099      -16.1619016137       30.4360223766  TIP3      851             0.0000000000
     24804      1043  TIP3      H1            -31.8007531139      -16.2784759025       30.0828717644  TIP3      851             0.0000000000
     24805      1043  TIP3      H2            -31.0438331698      -15.3480163876       30.9451675327  TIP3      851             0.0000000000
     24806      1044  TIP3      OH2           -26.2796093314      -16.5101694454       33.8209369157  TIP3      852             0.0000000000
     24807      1044  TIP3      H1            -25.8864990619      -16.9278428393       34.6097940017  TIP3      852             0.0000000000
     24808      1044  TIP3      H2            -27.2503241100      -16.6226394580       33.9726408342  TIP3      852             0.0000000000
     24809      1045  TIP3      OH2           -22.9920618789      -12.6587489157       34.7254442697  TIP3      853             0.0000000000
     24810      1045  TIP3      H1            -23.5578853707      -12.8740385660       35.5059779607  TIP3      853             0.0000000000
     24811      1045  TIP3      H2            -23.1777076203      -11.7319282223       34.4961532812  TIP3      853             0.0000000000
     24812      1046  TIP3      OH2           -30.8379723949      -11.1980496353       31.7102068967  TIP3      854             0.0000000000
     24813      1046  TIP3      H1            -31.5641613079      -11.1994182468       32.3638404923  TIP3      854             0.0000000000
     24814      1046  TIP3      H2            -30.8569636685      -10.2858063458       31.3452639285  TIP3      854             0.0000000000
     24815      1047  TIP3      OH2           -30.8404966016      -11.1063904228       26.5818154574  TIP3      855             0.0000000000
     24816      1047  TIP3      H1            -31.7906379537      -11.3064442620       26.4337931065  TIP3      855             0.0000000000
     24817      1047  TIP3      H2            -30.4705053452      -11.4041275375       25.7279730866  TIP3      855             0.0000000000
     24818      1048  TIP3      OH2           -25.3840294061      -10.6283630088       25.2790353731  TIP3      856             0.0000000000
     24819      1048  TIP3      H1            -25.7466631721       -9.7524354507       25.0127393397  TIP3      856             0.0000000000
     24820      1048  TIP3      H2            -24.6156516628      -10.7065341118       24.7147085693  TIP3      856             0.0000000000
     24821      1049  TIP3      OH2           -26.2881007865      -10.3700642605       36.7861082070  TIP3      857             0.0000000000
     24822      1049  TIP3      H1            -26.8133838053      -11.1458718468       37.0969512008  TIP3      857             0.0000000000
     24823      1049  TIP3      H2            -25.4501502050      -10.4910104572       37.2628946181  TIP3      857             0.0000000000
     24824      1050  TIP3      OH2           -24.3324411675      -11.0983862136       28.1875934038  TIP3      858             0.0000000000
     24825      1050  TIP3      H1            -24.5760295257      -10.5231255300       27.4444785667  TIP3      858             0.0000000000
     24826      1050  TIP3      H2            -24.2094169712      -11.9457472324       27.7104838117  TIP3      858             0.0000000000
     24827      1051  TIP3      OH2           -33.1842829669      -10.9642647082       33.3978217003  TIP3      859             0.0000000000
     24828      1051  TIP3      H1            -33.1667148167      -10.5407790584       34.2711341619  TIP3      859             0.0000000000
     24829      1051  TIP3      H2            -33.6714153834      -11.7774918647       33.5945590339  TIP3      859             0.0000000000
     24830      1052  TIP3      OH2           -36.1960506489      -13.5702058228       27.1595050660  TIP3      860             0.0000000000
     24831      1052  TIP3      H1            -35.8378959440      -13.8667678498       28.0269307427  TIP3      860             0.0000000000
     24832      1052  TIP3      H2            -35.9686225823      -14.3018206597       26.5947281625  TIP3      860             0.0000000000
     24833      1053  TIP3      OH2           -35.2790901451      -12.9325196792       22.7873537501  TIP3      861             0.0000000000
     24834      1053  TIP3      H1            -34.7237054007      -12.4671325954       22.1233449839  TIP3      861             0.0000000000
     24835      1053  TIP3      H2            -36.0026805271      -12.3485710978       22.9483992063  TIP3      861             0.0000000000
     24836      1054  TIP3      OH2           -25.1120350735       -9.5066803452       32.7480452241  TIP3      862             0.0000000000
     24837      1054  TIP3      H1            -24.7300239657      -10.1925200356       32.1637631240  TIP3      862             0.0000000000
     24838      1054  TIP3      H2            -25.5783973886      -10.0340034619       33.4210559111  TIP3      862             0.0000000000
     24839      1055  TIP3      OH2           -28.3206220045      -13.5970925627       27.5891973845  TIP3      863             0.0000000000
     24840      1055  TIP3      H1            -29.2476400489      -13.4973270851       27.8942410366  TIP3      863             0.0000000000
     24841      1055  TIP3      H2            -27.8324846700      -13.6698764875       28.4232984517  TIP3      863             0.0000000000
     24842      1056  TIP3      OH2           -33.4966386852      -12.0054983576       26.4779106251  TIP3      864             0.0000000000
     24843      1056  TIP3      H1            -34.3419345102      -11.7969513754       26.0337400112  TIP3      864             0.0000000000
     24844      1056  TIP3      H2            -33.2359237149      -12.8263142519       26.0192600049  TIP3      864             0.0000000000
     24845      1057  TIP3      OH2           -29.8682095394      -11.9280177970       24.1387637493  TIP3      865             0.0000000000
     24846      1057  TIP3      H1            -28.9046860401      -11.8689633951       24.2771073434  TIP3      865             0.0000000000
     24847      1057  TIP3      H2            -30.1032450080      -11.2823960917       23.4517255904  TIP3      865             0.0000000000
     24848      1058  TIP3      OH2           -23.8899256438      -14.3055510412       30.8498820257  TIP3      866             0.0000000000
     24849      1058  TIP3      H1            -24.5923041617      -14.2446793957       31.5317432648  TIP3      866             0.0000000000
     24850      1058  TIP3      H2            -24.3922416571      -14.5288819406       30.0557075013  TIP3      866             0.0000000000
     24851      1059  TIP3      OH2           -31.0985818625      -10.7945893751       21.6522998647  TIP3      867             0.0000000000
     24852      1059  TIP3      H1            -31.7536179056      -11.0941917865       21.0046571156  TIP3      867             0.0000000000
     24853      1059  TIP3      H2            -30.3257904403      -10.5427433213       21.1603455148  TIP3      867             0.0000000000
     24854      1060  TIP3      OH2           -20.7025651771        1.3475521874       37.1504564376  TIP3      868             0.0000000000
     24855      1060  TIP3      H1            -20.4359184279        1.7321330717       36.2964081262  TIP3      868             0.0000000000
     24856      1060  TIP3      H2            -19.9791421915        1.6667540471       37.7107581813  TIP3      868             0.0000000000
     24857      1061  TIP3      OH2           -33.0468969676       -6.1912715639       36.7331539643  TIP3      869             0.0000000000
     24858      1061  TIP3      H1            -32.3058545909       -5.9481372292       37.3191498884  TIP3      869             0.0000000000
     24859      1061  TIP3      H2            -33.7956913705       -6.0815312478       37.3430121684  TIP3      869             0.0000000000
     24860      1062  TIP3      OH2           -27.0349179643      -10.7747091224       29.4755102869  TIP3      870             0.0000000000
     24861      1062  TIP3      H1            -26.4291738924      -11.3038573270       28.9427237979  TIP3      870             0.0000000000
     24862      1062  TIP3      H2            -27.1723366194      -11.3210372744       30.2611891053  TIP3      870             0.0000000000
     24863      1063  TIP3      OH2           -32.0284175685      -14.6221613764       25.9437393532  TIP3      871             0.0000000000
     24864      1063  TIP3      H1            -32.3642535260      -15.5305781632       25.8884362753  TIP3      871             0.0000000000
     24865      1063  TIP3      H2            -31.2755248275      -14.6607040048       25.3352816895  TIP3      871             0.0000000000
     24866      1064  TIP3      OH2           -28.3886155610      -12.4387813791       31.8907889747  TIP3      872             0.0000000000
     24867      1064  TIP3      H1            -29.2144056545      -11.9242926515       31.9814281350  TIP3      872             0.0000000000
     24868      1064  TIP3      H2            -27.8330179102      -12.0910824243       32.6150596519  TIP3      872             0.0000000000
     24869      1065  TIP3      OH2           -27.8415689282       -6.2678270025       23.6074977507  TIP3      873             0.0000000000
     24870      1065  TIP3      H1            -28.6485085084       -6.7013606404       23.2587977693  TIP3      873             0.0000000000
     24871      1065  TIP3      H2            -28.0363550600       -6.0858766929       24.5428726589  TIP3      873             0.0000000000
     24872      1066  TIP3      OH2           -20.6080871906       -7.0152161631       32.3895124294  TIP3      874             0.0000000000
     24873      1066  TIP3      H1            -20.0459864544       -6.5503186027       31.7395390459  TIP3      874             0.0000000000
     24874      1066  TIP3      H2            -21.4738961820       -6.9811897828       31.9323611813  TIP3      874             0.0000000000
     24875      1067  TIP3      OH2           -26.3058322105       -5.9504595704       34.8352330476  TIP3      875             0.0000000000
     24876      1067  TIP3      H1            -26.6535400260       -6.3809339361       35.6232179123  TIP3      875             0.0000000000
     24877      1067  TIP3      H2            -26.5631041303       -5.0294296686       34.9418938365  TIP3      875             0.0000000000
     24878      1068  TIP3      OH2           -32.6848550104       -6.8270403023       29.3903570665  TIP3      876             0.0000000000
     24879      1068  TIP3      H1            -32.0140495194       -6.9103828408       28.6929446189  TIP3      876             0.0000000000
     24880      1068  TIP3      H2            -32.5957825260       -7.6725281086       29.8609016523  TIP3      876             0.0000000000
     24881      1069  TIP3      OH2           -25.6798818962       -4.7847058783       22.8177330536  TIP3      877             0.0000000000
     24882      1069  TIP3      H1            -26.0315297374       -3.8844096776       22.8988931030  TIP3      877             0.0000000000
     24883      1069  TIP3      H2            -26.4802601535       -5.3448433277       22.8004978221  TIP3      877             0.0000000000
     24884      1070  TIP3      OH2           -35.7299814611       -8.4445421056       34.6533780942  TIP3      878             0.0000000000
     24885      1070  TIP3      H1            -35.4706815095       -8.8847631708       35.4859589869  TIP3      878             0.0000000000
     24886      1070  TIP3      H2            -36.3177750998       -9.0851392018       34.2288484544  TIP3      878             0.0000000000
     24887      1071  TIP3      OH2           -28.6863661504       -8.8599739143       36.8251094515  TIP3      879             0.0000000000
     24888      1071  TIP3      H1            -29.0057513165       -9.1731212977       35.9674430553  TIP3      879             0.0000000000
     24889      1071  TIP3      H2            -27.7634871323       -9.1882467307       36.8254524067  TIP3      879             0.0000000000
     24890      1072  TIP3      OH2           -23.9989724559       -3.5275392817       34.7830865270  TIP3      880             0.0000000000
     24891      1072  TIP3      H1            -24.9244028134       -3.3500668104       34.5488771009  TIP3      880             0.0000000000
     24892      1072  TIP3      H2            -24.0330000650       -3.2349413183       35.7138507909  TIP3      880             0.0000000000
     24893      1073  TIP3      OH2           -18.4676675671      -11.3185675937       23.2374558014  TIP3      881             0.0000000000
     24894      1073  TIP3      H1            -18.7822182998      -11.7329425909       22.4327061758  TIP3      881             0.0000000000
     24895      1073  TIP3      H2            -18.1628787026      -10.4814506516       22.8642562014  TIP3      881             0.0000000000
     24896      1074  TIP3      OH2           -18.3466164787       -5.4918887419       35.9849111937  TIP3      882             0.0000000000
     24897      1074  TIP3      H1            -19.2416330100       -5.2713899991       35.6257971754  TIP3      882             0.0000000000
     24898      1074  TIP3      H2            -17.8014489010       -5.5502948709       35.1755466874  TIP3      882             0.0000000000
     24899      1075  TIP3      OH2           -19.9342581899       -2.5538276432       23.6018950093  TIP3      883             0.0000000000
     24900      1075  TIP3      H1            -20.4813795947       -3.3020044632       23.8807171373  TIP3      883             0.0000000000
     24901      1075  TIP3      H2            -19.7994215768       -2.6801257547       22.6520019003  TIP3      883             0.0000000000
     24902      1076  TIP3      OH2           -22.8342405059       -7.7133976669       30.6942978169  TIP3      884             0.0000000000
     24903      1076  TIP3      H1            -23.7760816087       -7.9131495648       30.5650693429  TIP3      884             0.0000000000
     24904      1076  TIP3      H2            -22.4103176876       -8.4642577593       30.2346497200  TIP3      884             0.0000000000
     24905      1077  TIP3      OH2           -30.3256954327       -3.3933956252       26.7575321176  TIP3      885             0.0000000000
     24906      1077  TIP3      H1            -29.8221804939       -2.5874639676       26.5515962996  TIP3      885             0.0000000000
     24907      1077  TIP3      H2            -31.2149866663       -3.1543735394       26.4639339685  TIP3      885             0.0000000000
     24908      1078  TIP3      OH2           -28.8891198148       -5.7002973911       26.2862555528  TIP3      886             0.0000000000
     24909      1078  TIP3      H1            -29.2083825426       -4.7843742854       26.3922726121  TIP3      886             0.0000000000
     24910      1078  TIP3      H2            -29.6113983294       -6.1955660487       26.7229240281  TIP3      886             0.0000000000
     24911      1079  TIP3      OH2           -28.4390438116       -1.5266549206       32.6985478119  TIP3      887             0.0000000000
     24912      1079  TIP3      H1            -27.9877124920       -0.7194739349       32.4079415605  TIP3      887             0.0000000000
     24913      1079  TIP3      H2            -27.8280785242       -1.8633775559       33.3781272376  TIP3      887             0.0000000000
     24914      1080  TIP3      OH2           -30.2385639898       -0.7309845038       25.8540262040  TIP3      888             0.0000000000
     24915      1080  TIP3      H1            -31.1951047035       -0.5938399997       26.0103445649  TIP3      888             0.0000000000
     24916      1080  TIP3      H2            -29.8431257040        0.0879110928       26.1916984814  TIP3      888             0.0000000000
     24917      1081  TIP3      OH2           -24.9315143915       -5.5293812239       32.3189623939  TIP3      889             0.0000000000
     24918      1081  TIP3      H1            -25.2510889074       -5.7184035493       33.2259672265  TIP3      889             0.0000000000
     24919      1081  TIP3      H2            -24.2874305262       -6.2365905271       32.1534162167  TIP3      889             0.0000000000
     24920      1082  TIP3      OH2           -22.1066030562       -0.9439328565       34.8082494018  TIP3      890             0.0000000000
     24921      1082  TIP3      H1            -22.7998771355       -1.4377525569       34.3302232873  TIP3      890             0.0000000000
     24922      1082  TIP3      H2            -21.9341197957       -0.2374581290       34.1518982329  TIP3      890             0.0000000000
     24923      1083  TIP3      OH2           -34.0450138292      -13.6834432128       34.1655174036  TIP3      891             0.0000000000
     24924      1083  TIP3      H1            -34.9330585338      -13.3113167609       34.2489073772  TIP3      891             0.0000000000
     24925      1083  TIP3      H2            -34.1605415009      -14.5174523417       34.6497918407  TIP3      891             0.0000000000
     24926      1084  TIP3      OH2           -34.2658196434       -1.8530481010       32.5801919798  TIP3      892             0.0000000000
     24927      1084  TIP3      H1            -34.1492702989       -2.8120694672       32.6382951991  TIP3      892             0.0000000000
     24928      1084  TIP3      H2            -34.1825921682       -1.6210898827       33.5109345057  TIP3      892             0.0000000000
     24929      1085  TIP3      OH2           -28.5623187059       -3.4359057641       19.7996538571  TIP3      893             0.0000000000
     24930      1085  TIP3      H1            -28.2637397561       -4.2167531997       19.3504563003  TIP3      893             0.0000000000
     24931      1085  TIP3      H2            -28.8287099458       -3.7402891243       20.6929222125  TIP3      893             0.0000000000
     24932      1086  TIP3      OH2           -29.6536755949       -3.8672824871       22.3390494187  TIP3      894             0.0000000000
     24933      1086  TIP3      H1            -29.4614898370       -4.3665126137       23.1333482277  TIP3      894             0.0000000000
     24934      1086  TIP3      H2            -29.6068205854       -2.9222148145       22.6196939487  TIP3      894             0.0000000000
     24935      1087  TIP3      OH2           -25.3217030395      -13.9152026387       33.1684552108  TIP3      895             0.0000000000
     24936      1087  TIP3      H1            -24.6031466585      -13.8557064783       33.8066036716  TIP3      895             0.0000000000
     24937      1087  TIP3      H2            -25.6995867177      -14.7935976050       33.3684475902  TIP3      895             0.0000000000
     24938      1088  TIP3      OH2           -27.3457630709      -12.5523974749       25.0379547386  TIP3      896             0.0000000000
     24939      1088  TIP3      H1            -26.5312907659      -12.0275658944       25.1004788431  TIP3      896             0.0000000000
     24940      1088  TIP3      H2            -27.6171442575      -12.7098324066       25.9593494451  TIP3      896             0.0000000000
     24941      1089  TIP3      OH2           -26.7898081898      -11.5702027811       34.2608793800  TIP3      897             0.0000000000
     24942      1089  TIP3      H1            -26.7141832386      -11.0128967782       35.0586789490  TIP3      897             0.0000000000
     24943      1089  TIP3      H2            -26.1261407708      -12.2649428473       34.3556479964  TIP3      897             0.0000000000
     24944      1090  TIP3      OH2           -26.4639145983      -15.5217777163       26.0163796791  TIP3      898             0.0000000000
     24945      1090  TIP3      H1            -26.8340369600      -14.8589553582       26.6202827689  TIP3      898             0.0000000000
     24946      1090  TIP3      H2            -25.8156475488      -14.9709239691       25.5384344139  TIP3      898             0.0000000000
     24947      1091  TIP3      OH2           -29.6436057649       -1.1291282999       23.1106621286  TIP3      899             0.0000000000
     24948      1091  TIP3      H1            -29.3013727818       -0.3850813063       22.5722231130  TIP3      899             0.0000000000
     24949      1091  TIP3      H2            -29.7113306948       -0.7947074294       24.0133535418  TIP3      899             0.0000000000
     24950      1092  TIP3      OH2           -20.6113807755      -13.7026214433       35.1138580210  TIP3      900             0.0000000000
     24951      1092  TIP3      H1            -21.5379069065      -13.3857409888       34.9802230870  TIP3      900             0.0000000000
     24952      1092  TIP3      H2            -20.3096740797      -13.7153744346       34.1886598253  TIP3      900             0.0000000000
     24953      1093  TIP3      OH2           -22.0047440392       -9.9103776249       29.1374451841  TIP3      901             0.0000000000
     24954      1093  TIP3      H1            -22.8119738368      -10.3638023162       28.8276750125  TIP3      901             0.0000000000
     24955      1093  TIP3      H2            -21.5118615863      -10.6071098458       29.6241673739  TIP3      901             0.0000000000
     24956      1094  TIP3      OH2           -34.2213199578      -11.3928359957       20.9225070348  TIP3      902             0.0000000000
     24957      1094  TIP3      H1            -34.1849860362      -10.4243305826       21.0141253148  TIP3      902             0.0000000000
     24958      1094  TIP3      H2            -35.0618824936      -11.5517713286       20.4624868498  TIP3      902             0.0000000000
     24959      1095  TIP3      OH2           -20.9227191968       -0.6545634768       30.7769687516  TIP3      903             0.0000000000
     24960      1095  TIP3      H1            -21.0465089699        0.0434953476       30.1028709247  TIP3      903             0.0000000000
     24961      1095  TIP3      H2            -19.9711225919       -0.5807289076       30.9636994337  TIP3      903             0.0000000000
     24962      1096  TIP3      OH2           -33.4227878105      -16.5281115169       29.5756104442  TIP3      904             0.0000000000
     24963      1096  TIP3      H1            -33.6214728602      -16.4956377426       28.6073022275  TIP3      904             0.0000000000
     24964      1096  TIP3      H2            -33.8373760030      -17.3645928367       29.8428913670  TIP3      904             0.0000000000
     24965      1097  TIP3      OH2           -34.4371327953       -2.5014373437       25.8303448023  TIP3      905             0.0000000000
     24966      1097  TIP3      H1            -35.3456105985       -2.2274465772       25.6644150717  TIP3      905             0.0000000000
     24967      1097  TIP3      H2            -34.0018898772       -2.2082224066       25.0214343681  TIP3      905             0.0000000000
     24968      1098  TIP3      OH2           -34.9733539612        0.0650803599       37.0071162780  TIP3      906             0.0000000000
     24969      1098  TIP3      H1            -34.5642543350       -0.1645910363       37.8557863307  TIP3      906             0.0000000000
     24970      1098  TIP3      H2            -35.5017805731       -0.7436414509       36.8508580670  TIP3      906             0.0000000000
     24971      1099  TIP3      OH2           -30.5956958671       -1.0547614312       38.6212726652  TIP3      907             0.0000000000
     24972      1099  TIP3      H1            -29.8366347798       -1.5476024707       38.9548989577  TIP3      907             0.0000000000
     24973      1099  TIP3      H2            -30.6238012978       -1.3262732066       37.6835146274  TIP3      907             0.0000000000
     24974      1100  TIP3      OH2           -24.0973642228       -2.6567988781       37.3766779567  TIP3      908             0.0000000000
     24975      1100  TIP3      H1            -24.4124046775       -3.5440917387       37.6514557865  TIP3      908             0.0000000000
     24976      1100  TIP3      H2            -23.3286757156       -2.5379688690       37.9690749746  TIP3      908             0.0000000000
     24977      1101  TIP3      OH2           -21.7464004984       -1.6218674616       20.3834844448  TIP3      909             0.0000000000
     24978      1101  TIP3      H1            -21.7032733223       -2.5594000135       20.6212327326  TIP3      909             0.0000000000
     24979      1101  TIP3      H2            -21.1621075935       -1.5998249031       19.6300120902  TIP3      909             0.0000000000
     24980      1102  TIP3      OH2           -35.4056843086       -6.1830787693       38.0050937535  TIP3      910             0.0000000000
     24981      1102  TIP3      H1            -35.1916094831       -7.0788318595       37.6824792171  TIP3      910             0.0000000000
     24982      1102  TIP3      H2            -36.1225423127       -5.9090933166       37.4236517027  TIP3      910             0.0000000000
     24983      1103  TIP3      OH2           -28.6533679654       -6.1979595734       37.4004674929  TIP3      911             0.0000000000
     24984      1103  TIP3      H1            -28.9879375048       -5.8859734917       36.5370240988  TIP3      911             0.0000000000
     24985      1103  TIP3      H2            -28.5797608879       -7.1764752627       37.2920596719  TIP3      911             0.0000000000
     24986      1104  TIP3      OH2           -22.9589728196       -6.3400765443       34.7930846399  TIP3      912             0.0000000000
     24987      1104  TIP3      H1            -22.1698292814       -5.7581372141       34.7310800723  TIP3      912             0.0000000000
     24988      1104  TIP3      H2            -23.6576658489       -5.6714230193       34.8284029042  TIP3      912             0.0000000000
     24989      1105  TIP3      OH2           -34.5144524349       -8.9732185508       37.3870094376  TIP3      913             0.0000000000
     24990      1105  TIP3      H1            -34.0296521774       -9.8131594738       37.3040805078  TIP3      913             0.0000000000
     24991      1105  TIP3      H2            -34.6886398386       -8.9629735013       38.3406199444  TIP3      913             0.0000000000
     24992      1106  TIP3      OH2           -29.7187826549       -7.8638395353       22.4880653406  TIP3      914             0.0000000000
     24993      1106  TIP3      H1            -30.3244508753       -8.3455797015       23.0776375686  TIP3      914             0.0000000000
     24994      1106  TIP3      H2            -29.5631879271       -8.4913268961       21.7815237490  TIP3      914             0.0000000000
     24995      1107  TIP3      OH2           -30.5528127703      -10.0189246978       34.7511170928  TIP3      915             0.0000000000
     24996      1107  TIP3      H1            -31.1584153110       -9.3064220170       35.0128791053  TIP3      915             0.0000000000
     24997      1107  TIP3      H2            -30.1557168852       -9.6484662854       33.9437518010  TIP3      915             0.0000000000
     24998      1108  TIP3      OH2           -25.4769608236       -7.4482526484       38.0861755173  TIP3      916             0.0000000000
     24999      1108  TIP3      H1            -24.5201685041       -7.4613555120       37.9627578210  TIP3      916             0.0000000000
     25000      1108  TIP3      H2            -25.6485846370       -8.2149765100       38.6559387946  TIP3      916             0.0000000000
     25001      1109  TIP3      OH2           -30.1154686624      -12.6351418303       35.8066483791  TIP3      917             0.0000000000
     25002      1109  TIP3      H1            -30.0273766297      -13.3469277863       35.1469977322  TIP3      917             0.0000000000
     25003      1109  TIP3      H2            -30.2120058057      -11.8285095874       35.2594697753  TIP3      917             0.0000000000
     25004      1110  TIP3      OH2           -29.7366057146      -14.2586710346       33.3635840124  TIP3      918             0.0000000000
     25005      1110  TIP3      H1            -29.2270272529      -13.7889662364       32.6606386858  TIP3      918             0.0000000000
     25006      1110  TIP3      H2            -30.6310597575      -14.3341702622       32.9551439928  TIP3      918             0.0000000000
     25007      1111  TIP3      OH2           -28.2044310455       -8.7681569082       33.6049749386  TIP3      919             0.0000000000
     25008      1111  TIP3      H1            -27.4506659364       -8.9336073651       33.0319967092  TIP3      919             0.0000000000
     25009      1111  TIP3      H2            -28.5681178286       -7.9342591421       33.2662762385  TIP3      919             0.0000000000
     25010      1112  TIP3      OH2           -23.8075606737      -11.0173006308       38.5649199058  TIP3      920             0.0000000000
     25011      1112  TIP3      H1            -23.5718302985      -11.9517704216       38.4736163931  TIP3      920             0.0000000000
     25012      1112  TIP3      H2            -22.9435480743      -10.5731931087       38.5982057952  TIP3      920             0.0000000000
     25013      1113  TIP3      OH2           -22.4669461395       -8.2223044013       36.7326518817  TIP3      921             0.0000000000
     25014      1113  TIP3      H1            -22.7178043931       -7.5014177246       36.1145837988  TIP3      921             0.0000000000
     25015      1113  TIP3      H2            -21.5084918109       -8.2538365198       36.5429599524  TIP3      921             0.0000000000
     25016      1114  TIP3      OH2           -31.7116775098      -11.3749770472       37.7157235598  TIP3      922             0.0000000000
     25017      1114  TIP3      H1            -32.4701181018      -11.9771236541       37.5632532271  TIP3      922             0.0000000000
     25018      1114  TIP3      H2            -31.0459725372      -11.7578831326       37.1128099899  TIP3      922             0.0000000000
     25019      1115  TIP3      OH2           -28.9539833210      -16.8203617768       33.7480340736  TIP3      923             0.0000000000
     25020      1115  TIP3      H1            -29.1351402192      -15.8571375521       33.6538703203  TIP3      923             0.0000000000
     25021      1115  TIP3      H2            -29.7010266286      -17.1879438861       33.2469436078  TIP3      923             0.0000000000
     25022      1116  TIP3      OH2           -27.6748030998      -12.4921733994       37.3781412530  TIP3      924             0.0000000000
     25023      1116  TIP3      H1            -27.9965689243      -12.7241331482       38.2720621484  TIP3      924             0.0000000000
     25024      1116  TIP3      H2            -28.4611998190      -12.6931309225       36.8371014571  TIP3      924             0.0000000000
     25025      1117  TIP3      OH2           -24.9604883844      -13.3485625858       36.4673993388  TIP3      925             0.0000000000
     25026      1117  TIP3      H1            -25.9255616015      -13.2940262996       36.5764525108  TIP3      925             0.0000000000
     25027      1117  TIP3      H2            -24.6968756064      -13.9886538771       37.1562217306  TIP3      925             0.0000000000
     25028      1118  TIP3      OH2           -23.3794250186      -14.7285670530       38.3667112865  TIP3      926             0.0000000000
     25029      1118  TIP3      H1            -23.4270580565      -15.7065001533       38.3975743386  TIP3      926             0.0000000000
     25030      1118  TIP3      H2            -23.6278089552      -14.4363357972       39.2661011216  TIP3      926             0.0000000000
     25031      1119  TIP3      OH2           -33.4549673475      -13.4778054593       37.5167794442  TIP3      927             0.0000000000
     25032      1119  TIP3      H1            -33.3524308337      -14.2105015805       36.8835401727  TIP3      927             0.0000000000
     25033      1119  TIP3      H2            -33.6723312556      -13.9345725477       38.3498961521  TIP3      927             0.0000000000
     25034      1120  TIP3      OH2           -28.7382303181      -17.4272213515       36.4496203840  TIP3      928             0.0000000000
     25035      1120  TIP3      H1            -28.0588459216      -18.1309720665       36.4328922977  TIP3      928             0.0000000000
     25036      1120  TIP3      H2            -28.8523952777      -17.2849034172       35.4896463419  TIP3      928             0.0000000000
     25037      1121  TIP3      OH2           -28.3763053525      -15.8147333145       38.5666465763  TIP3      929             0.0000000000
     25038      1121  TIP3      H1            -28.5497996899      -16.3197565337       37.7335688374  TIP3      929             0.0000000000
     25039      1121  TIP3      H2            -28.9755679006      -15.0498323270       38.4655736096  TIP3      929             0.0000000000
     25040      1122  TIP3      OH2           -28.8819784084        1.0921801363       21.6869956482  TIP3      930             0.0000000000
     25041      1122  TIP3      H1            -27.9243921990        1.1558429084       21.8392326480  TIP3      930             0.0000000000
     25042      1122  TIP3      H2            -29.0979785406        1.7873405883       21.0769703826  TIP3      930             0.0000000000
     25043      1123  TIP3      OH2            36.8702265859        1.2027763653       25.9892710473  TIP3      931             0.0000000000
     25044      1123  TIP3      H1             35.9481395711        1.0060426633       25.7091503406  TIP3      931             0.0000000000
     25045      1123  TIP3      H2             36.9351870605        0.5752122679       26.7535245456  TIP3      931             0.0000000000
     25046      1124  TIP3      OH2           -35.7113310754       -0.7682787021       27.9812216561  TIP3      932             0.0000000000
     25047      1124  TIP3      H1            -36.0743141141       -1.6502999347       28.2147052973  TIP3      932             0.0000000000
     25048      1124  TIP3      H2            -35.4785622392       -0.4904594441       28.8873639839  TIP3      932             0.0000000000
     25049      1125  TIP3      OH2           -18.1208888084       -0.1183171483       30.9980494216  TIP3      933             0.0000000000
     25050      1125  TIP3      H1            -18.2231324927        0.1565314861       31.9362214239  TIP3      933             0.0000000000
     25051      1125  TIP3      H2            -17.5840507065        0.6169888222       30.6790694685  TIP3      933             0.0000000000
     25052      1126  TIP3      OH2           -18.5864252080       -0.4312653449       33.8865800342  TIP3      934             0.0000000000
     25053      1126  TIP3      H1            -19.1358806193       -1.1802205974       33.5726956571  TIP3      934             0.0000000000
     25054      1126  TIP3      H2            -18.1719445223       -0.8499874148       34.6613594064  TIP3      934             0.0000000000
     25055      1127  TIP3      OH2           -20.1947303017       -4.6942786301       38.5990550743  TIP3      935             0.0000000000
     25056      1127  TIP3      H1            -21.1013986005       -4.7202703331       38.9628990604  TIP3      935             0.0000000000
     25057      1127  TIP3      H2            -19.8235184486       -3.8881972593       39.0096640838  TIP3      935             0.0000000000
     25058      1128  TIP3      OH2           -18.7663301428       -5.6405510028       30.9344349031  TIP3      936             0.0000000000
     25059      1128  TIP3      H1            -17.9702255815       -6.0179673910       30.5200631105  TIP3      936             0.0000000000
     25060      1128  TIP3      H2            -18.6721450017       -4.6987764845       30.6863637332  TIP3      936             0.0000000000
     25061      1129  TIP3      OH2           -20.1971929232       -2.6909080526       33.1617210138  TIP3      937             0.0000000000
     25062      1129  TIP3      H1            -20.8862533509       -2.3529100807       33.7592348074  TIP3      937             0.0000000000
     25063      1129  TIP3      H2            -20.7622005838       -3.0916086986       32.4665733856  TIP3      937             0.0000000000
     25064      1130  TIP3      OH2           -20.7068124872       -9.8039353190       26.4605158348  TIP3      938             0.0000000000
     25065      1130  TIP3      H1            -20.8337821383      -10.7645453499       26.4641676544  TIP3      938             0.0000000000
     25066      1130  TIP3      H2            -20.9919202647       -9.5837590829       27.3662660681  TIP3      938             0.0000000000
     25067      1131  TIP3      OH2           -35.6758928049       -7.7438817275       30.4605780968  TIP3      939             0.0000000000
     25068      1131  TIP3      H1            -35.4694484736       -7.7855219371       29.5034936194  TIP3      939             0.0000000000
     25069      1131  TIP3      H2            -34.7977699345       -7.8539208357       30.8844597200  TIP3      939             0.0000000000
     25070      1132  TIP3      OH2           -19.8387462211       -7.8457116756       36.1755088769  TIP3      940             0.0000000000
     25071      1132  TIP3      H1            -19.2290367057       -8.6029621874       36.3075179313  TIP3      940             0.0000000000
     25072      1132  TIP3      H2            -19.2342909479       -7.0727012063       36.1720803168  TIP3      940             0.0000000000
     25073      1133  TIP3      OH2           -18.3370989212       -9.9679428917       36.8253820414  TIP3      941             0.0000000000
     25074      1133  TIP3      H1            -19.2200414733      -10.3668071500       36.6707651943  TIP3      941             0.0000000000
     25075      1133  TIP3      H2            -17.7667655415      -10.7509052781       36.7490305333  TIP3      941             0.0000000000
     25076      1134  TIP3      OH2           -21.0488147725      -12.2453512309       24.9328099134  TIP3      942             0.0000000000
     25077      1134  TIP3      H1            -20.7512598264      -13.1663045796       25.0858056548  TIP3      942             0.0000000000
     25078      1134  TIP3      H2            -20.2435027629      -11.8510169847       24.5725983781  TIP3      942             0.0000000000
     25079      1135  TIP3      OH2           -20.3919578412      -11.6900735817       30.3844006999  TIP3      943             0.0000000000
     25080      1135  TIP3      H1            -19.4325729047      -11.4559543312       30.3717720396  TIP3      943             0.0000000000
     25081      1135  TIP3      H2            -20.5810947267      -11.5423151584       31.3217833786  TIP3      943             0.0000000000
     25082      1136  TIP3      OH2           -20.3241118697      -10.9703487903       33.1817713801  TIP3      944             0.0000000000
     25083      1136  TIP3      H1            -21.2105956559      -10.6791252643       33.4845382012  TIP3      944             0.0000000000
     25084      1136  TIP3      H2            -19.8935587859      -10.1132387170       32.9490797286  TIP3      944             0.0000000000
     25085      1137  TIP3      OH2           -35.8023762883      -12.5639724756       36.6705577609  TIP3      945             0.0000000000
     25086      1137  TIP3      H1            -34.9176689816      -12.7424801495       37.0172461250  TIP3      945             0.0000000000
     25087      1137  TIP3      H2            -36.3807872577      -13.2408625668       37.1001991869  TIP3      945             0.0000000000
     25088      1138  TIP3      OH2           -18.0547452745      -16.9120831681       38.5038869427  TIP3      946             0.0000000000
     25089      1138  TIP3      H1            -17.6790612345      -17.5718648826       37.8962851335  TIP3      946             0.0000000000
     25090      1138  TIP3      H2            -17.9518447293      -16.0903779619       37.9761120902  TIP3      946             0.0000000000
     25091      1139  TIP3      OH2           -20.3759151921      -14.9693121650       24.9658423848  TIP3      947             0.0000000000
     25092      1139  TIP3      H1            -20.1525261313      -15.4000754406       25.8222822595  TIP3      947             0.0000000000
     25093      1139  TIP3      H2            -21.0010891036      -15.5718543573       24.5276622254  TIP3      947             0.0000000000
     25094      1140  TIP3      OH2           -34.8443383720      -14.1951783880       29.4957183178  TIP3      948             0.0000000000
     25095      1140  TIP3      H1            -34.3626506086      -14.9700568131       29.8340832156  TIP3      948             0.0000000000
     25096      1140  TIP3      H2            -34.3456538361      -13.4791068755       29.9215669326  TIP3      948             0.0000000000
     25097      1141  TIP3      OH2           -36.0165703257      -10.3811079421       30.9439622067  TIP3      949             0.0000000000
     25098      1141  TIP3      H1            -35.9819793378      -10.8096289313       30.0631993045  TIP3      949             0.0000000000
     25099      1141  TIP3      H2            -35.9381839256       -9.4660421759       30.6642290480  TIP3      949             0.0000000000
     25100      1142  TIP3      OH2           -18.5318962619      -14.8054007818       36.8626419563  TIP3      950             0.0000000000
     25101      1142  TIP3      H1            -19.4707419267      -14.5322827177       36.8101337016  TIP3      950             0.0000000000
     25102      1142  TIP3      H2            -18.5038444501      -15.3537352354       36.0638609203  TIP3      950             0.0000000000
     25103      1143  TIP3      OH2           -18.5252748386      -14.9179573320       21.5489473064  TIP3      951             0.0000000000
     25104      1143  TIP3      H1            -18.1444451394      -15.6297515447       21.0085184048  TIP3      951             0.0000000000
     25105      1143  TIP3      H2            -17.8599860823      -14.2263467089       21.5204284509  TIP3      951             0.0000000000
     25106      1144  TIP3      OH2           -35.7543982562      -14.8385935195       24.3236137816  TIP3      952             0.0000000000
     25107      1144  TIP3      H1            -36.6989868118      -14.6752411618       24.3538597014  TIP3      952             0.0000000000
     25108      1144  TIP3      H2            -35.4915281437      -14.2466508932       23.5762406627  TIP3      952             0.0000000000
     25109      1145  TIP3      OH2           -21.4804882344        0.1180269156       26.5621233195  TIP3      953             0.0000000000
     25110      1145  TIP3      H1            -20.8393103699       -0.2749563571       25.9682249396  TIP3      953             0.0000000000
     25111      1145  TIP3      H2            -20.9704185677        0.5432414729       27.2689234227  TIP3      953             0.0000000000
     25112      1146  TIP3      OH2            37.0279684862      -16.2859145795       33.1380104649  TIP3      954             0.0000000000
     25113      1146  TIP3      H1             36.2516828537      -16.4542898910       33.6990920014  TIP3      954             0.0000000000
     25114      1146  TIP3      H2             36.5475454172      -15.7288717293       32.5001459646  TIP3      954             0.0000000000
     25115      1147  TIP3      OH2           -34.0741731447       -2.9957008028       37.1261594621  TIP3      955             0.0000000000
     25116      1147  TIP3      H1            -34.9202923158       -2.8208679554       36.6971986944  TIP3      955             0.0000000000
     25117      1147  TIP3      H2            -34.3295602839       -3.0982838044       38.0436881951  TIP3      955             0.0000000000
     25118      1148  TIP3      OH2           -31.1071773586       -1.9957767028       33.4246571008  TIP3      956             0.0000000000
     25119      1148  TIP3      H1            -31.5056544600       -1.1621059389       33.1226557750  TIP3      956             0.0000000000
     25120      1148  TIP3      H2            -30.1996726575       -1.9087798009       33.0786533962  TIP3      956             0.0000000000
     25121      1149  TIP3      OH2           -26.8209863050       -0.5943366949       36.2946663982  TIP3      957             0.0000000000
     25122      1149  TIP3      H1            -26.6853100743       -0.9493598146       37.2030962746  TIP3      957             0.0000000000
     25123      1149  TIP3      H2            -25.9171838374       -0.2917675150       36.0552830071  TIP3      957             0.0000000000
     25124      1150  TIP3      OH2           -24.5258366652        0.6773794544       35.6039437224  TIP3      958             0.0000000000
     25125      1150  TIP3      H1            -23.8000607413        0.0846798112       35.3704489394  TIP3      958             0.0000000000
     25126      1150  TIP3      H2            -24.1580324751        1.1097288771       36.4040961739  TIP3      958             0.0000000000
     25127      1151  TIP3      OH2           -19.5133826182      -16.7151407195       34.7146502647  TIP3      959             0.0000000000
     25128      1151  TIP3      H1            -20.3410790861      -16.4130765680       34.2997159329  TIP3      959             0.0000000000
     25129      1151  TIP3      H2            -19.3447737111      -17.5370405736       34.1983344589  TIP3      959             0.0000000000
     25130      1152  TIP3      OH2           -33.6845326176        1.2246088355       33.4094182260  TIP3      960             0.0000000000
     25131      1152  TIP3      H1            -34.4348523485        1.7130122104       33.0155795745  TIP3      960             0.0000000000
     25132      1152  TIP3      H2            -34.0325181850        1.0309420453       34.2937457565  TIP3      960             0.0000000000
     25133      1153  TIP3      OH2           -31.2328513125        0.8064127975       32.4463503354  TIP3      961             0.0000000000
     25134      1153  TIP3      H1            -32.1297513130        0.9256163837       32.8455902816  TIP3      961             0.0000000000
     25135      1153  TIP3      H2            -31.2931423826        1.3976208491       31.6790077965  TIP3      961             0.0000000000
     25136      1154  TIP3      OH2           -26.5404823198        0.7108094431       31.6269445905  TIP3      962             0.0000000000
     25137      1154  TIP3      H1            -27.0036161406        1.2675339042       30.9838220306  TIP3      962             0.0000000000
     25138      1154  TIP3      H2            -26.4087424101        1.3399737599       32.3677352843  TIP3      962             0.0000000000
     25139      1155  TIP3      OH2           -24.2544766199       -0.4843693480       32.6634894749  TIP3      963             0.0000000000
     25140      1155  TIP3      H1            -25.1067980302       -0.2063977688       32.2901844634  TIP3      963             0.0000000000
     25141      1155  TIP3      H2            -23.7696251546        0.3538157979       32.5728393238  TIP3      963             0.0000000000
     25142      1156  TIP3      OH2           -21.6633989559        1.0928953412       32.8833931681  TIP3      964             0.0000000000
     25143      1156  TIP3      H1            -21.7243040994        2.0507559321       32.6524147396  TIP3      964             0.0000000000
     25144      1156  TIP3      H2            -21.4610542370        0.7201527405       32.0053106266  TIP3      964             0.0000000000
     25145      1157  TIP3      OH2           -34.3088039063       -0.1272589833       30.3210793330  TIP3      965             0.0000000000
     25146      1157  TIP3      H1            -34.3119603982       -0.5810005238       31.1896295863  TIP3      965             0.0000000000
     25147      1157  TIP3      H2            -33.4938803557       -0.5054997501       29.9324525938  TIP3      965             0.0000000000
     25148      1158  TIP3      OH2           -32.2099034263       -1.4149374919       28.9868259367  TIP3      966             0.0000000000
     25149      1158  TIP3      H1            -32.3694611523       -2.3535449429       29.2133807139  TIP3      966             0.0000000000
     25150      1158  TIP3      H2            -31.3450595341       -1.2647057378       29.4294875683  TIP3      966             0.0000000000
     25151      1159  TIP3      OH2           -29.5961091973       -0.9417308477       29.8647949988  TIP3      967             0.0000000000
     25152      1159  TIP3      H1            -29.4203209189       -1.8630523463       29.6008639887  TIP3      967             0.0000000000
     25153      1159  TIP3      H2            -29.5265462053       -0.9913846152       30.8292469720  TIP3      967             0.0000000000
     25154      1160  TIP3      OH2           -26.1504216047      -15.2990177593       28.9612706429  TIP3      968             0.0000000000
     25155      1160  TIP3      H1            -26.8047022487      -15.9294237807       29.2900825672  TIP3      968             0.0000000000
     25156      1160  TIP3      H2            -25.5435737615      -15.8241778610       28.4343655729  TIP3      968             0.0000000000
     25157      1161  TIP3      OH2           -20.9933916391      -17.2379334380       29.0574061846  TIP3      969             0.0000000000
     25158      1161  TIP3      H1            -20.3806381491      -16.6421092652       28.5520708999  TIP3      969             0.0000000000
     25159      1161  TIP3      H2            -21.8740619761      -16.8780048153       28.8349956036  TIP3      969             0.0000000000
     25160      1162  TIP3      OH2           -19.3028863877      -15.9957564441       27.3750954033  TIP3      970             0.0000000000
     25161      1162  TIP3      H1            -18.6266070517      -16.5671868499       26.9376694017  TIP3      970             0.0000000000
     25162      1162  TIP3      H2            -18.8141640589      -15.1473748955       27.4567562387  TIP3      970             0.0000000000
     25163      1163  TIP3      OH2           -33.8013317429      -16.7122989373       26.9324030865  TIP3      971             0.0000000000
     25164      1163  TIP3      H1            -34.5168924631      -16.8436729652       26.2747988829  TIP3      971             0.0000000000
     25165      1163  TIP3      H2            -33.2422010436      -17.4898527852       26.7324678324  TIP3      971             0.0000000000
     25166      1164  TIP3      OH2           -29.1319985609      -16.9014574090       26.6770038890  TIP3      972             0.0000000000
     25167      1164  TIP3      H1            -28.4135744511      -16.2492976437       26.5453853453  TIP3      972             0.0000000000
     25168      1164  TIP3      H2            -29.3744095562      -16.8488965999       27.6081006994  TIP3      972             0.0000000000
     25169      1165  TIP3      OH2           -23.6217948340      -16.7158476819       28.2692479590  TIP3      973             0.0000000000
     25170      1165  TIP3      H1            -23.5965354321      -16.6145126421       27.3033794928  TIP3      973             0.0000000000
     25171      1165  TIP3      H2            -23.9215782609      -17.6407982376       28.4003037692  TIP3      973             0.0000000000
     25172      1166  TIP3      OH2           -34.9846526216       -0.8567275405       23.6012497039  TIP3      974             0.0000000000
     25173      1166  TIP3      H1            -35.6439797281       -1.0220409404       22.8969670305  TIP3      974             0.0000000000
     25174      1166  TIP3      H2            -35.1899243712        0.0573887880       23.7351421492  TIP3      974             0.0000000000
     25175      1167  TIP3      OH2           -33.9221223274      -16.1013468654       36.3332908792  TIP3      975             0.0000000000
     25176      1167  TIP3      H1            -34.2596641728      -16.9473884911       36.6871653509  TIP3      975             0.0000000000
     25177      1167  TIP3      H2            -32.9951102883      -16.1618851463       36.6716427401  TIP3      975             0.0000000000
     25178      1168  TIP3      OH2           -31.8656758301      -16.7457749459       37.9324542265  TIP3      976             0.0000000000
     25179      1168  TIP3      H1            -30.9726134228      -17.0849120523       37.7255687290  TIP3      976             0.0000000000
     25180      1168  TIP3      H2            -32.2549808704      -17.5445324024       38.3385519235  TIP3      976             0.0000000000
     25181      1169  TIP3      OH2           -23.4649207728      -17.4505528777       38.0908500495  TIP3      977             0.0000000000
     25182      1169  TIP3      H1            -23.3711179802      -17.9225328515       38.9409914818  TIP3      977             0.0000000000
     25183      1169  TIP3      H2            -22.5469752284      -17.4842273835       37.7486810920  TIP3      977             0.0000000000
     25184      1170  TIP3      OH2           -20.2511384834       -1.3973480621       36.7212997824  TIP3      978             0.0000000000
     25185      1170  TIP3      H1            -21.0579346696       -1.5355979182       36.1781763977  TIP3      978             0.0000000000
     25186      1170  TIP3      H2            -20.3700532055       -0.4513976219       36.9410220016  TIP3      978             0.0000000000
     25187      1171  TIP3      OH2            -5.8188679112       -7.5341894255       26.7061838714  TIP3      979             0.0000000000
     25188      1171  TIP3      H1             -5.8076603279       -6.5493647208       26.6844293984  TIP3      979             0.0000000000
     25189      1171  TIP3      H2             -6.5542524868       -7.7236315898       26.1228402053  TIP3      979             0.0000000000
     25190      1172  TIP3      OH2            -6.9547552702       -8.2731470245       30.1854958532  TIP3      980             0.0000000000
     25191      1172  TIP3      H1             -6.9700521163       -8.9047275201       30.9204225142  TIP3      980             0.0000000000
     25192      1172  TIP3      H2             -7.3165842691       -8.7903142483       29.4498744088  TIP3      980             0.0000000000
     25193      1173  TIP3      OH2           -14.6046264368       -8.5919169951       31.7538101147  TIP3      981             0.0000000000
     25194      1173  TIP3      H1            -14.5187372788       -9.2765648481       32.4503976976  TIP3      981             0.0000000000
     25195      1173  TIP3      H2            -13.8564259897       -8.0183770653       31.9791066031  TIP3      981             0.0000000000
     25196      1174  TIP3      OH2            -3.2726499831       -5.3203541178       28.4894705155  TIP3      982             0.0000000000
     25197      1174  TIP3      H1             -3.6821104377       -6.0355239562       28.9867772034  TIP3      982             0.0000000000
     25198      1174  TIP3      H2             -3.2449025177       -4.6111060615       29.1603005632  TIP3      982             0.0000000000
     25199      1175  TIP3      OH2           -13.7232050523       -4.1282515497       30.2583413743  TIP3      983             0.0000000000
     25200      1175  TIP3      H1            -13.9692274359       -5.0248473809       29.9365966001  TIP3      983             0.0000000000
     25201      1175  TIP3      H2            -12.7531086803       -4.3019756990       30.3100826285  TIP3      983             0.0000000000
     25202      1176  TIP3      OH2           -17.0318982235      -10.5494406748       25.7380232027  TIP3      984             0.0000000000
     25203      1176  TIP3      H1            -17.4982154480       -9.7061522083       25.7412942923  TIP3      984             0.0000000000
     25204      1176  TIP3      H2            -17.6012769232      -11.1267528427       25.2128766999  TIP3      984             0.0000000000
     25205      1177  TIP3      OH2           -16.3182460176       -8.3623904056       27.8830775017  TIP3      985             0.0000000000
     25206      1177  TIP3      H1            -16.0563707155       -9.1888097576       28.3293616472  TIP3      985             0.0000000000
     25207      1177  TIP3      H2            -15.6174186840       -8.2336198638       27.2339953067  TIP3      985             0.0000000000
     25208      1178  TIP3      OH2            -6.1431908547       -0.1660717722       28.7473302711  TIP3      986             0.0000000000
     25209      1178  TIP3      H1             -5.4942967339       -0.8479904428       28.4423481363  TIP3      986             0.0000000000
     25210      1178  TIP3      H2             -6.3536193603       -0.5084619548       29.6160982602  TIP3      986             0.0000000000
     25211      1179  TIP3      OH2            -8.5791535738       -5.8714217930       30.6793303369  TIP3      987             0.0000000000
     25212      1179  TIP3      H1             -8.2417931244       -6.4934057344       30.0165327093  TIP3      987             0.0000000000
     25213      1179  TIP3      H2             -7.7683568035       -5.7092642963       31.1921150856  TIP3      987             0.0000000000
     25214      1180  TIP3      OH2             0.0140196239      -14.2030030408       31.3991091409  TIP3      988             0.0000000000
     25215      1180  TIP3      H1              0.1934712487      -13.6185686361       32.1670407916  TIP3      988             0.0000000000
     25216      1180  TIP3      H2              0.5888923804      -13.7872282416       30.7408503349  TIP3      988             0.0000000000
     25217      1181  TIP3      OH2            -5.4169547174      -11.3950193311       30.9745432318  TIP3      989             0.0000000000
     25218      1181  TIP3      H1             -5.2458585784      -12.3534402490       30.9898393793  TIP3      989             0.0000000000
     25219      1181  TIP3      H2             -5.5108170624      -11.2592520651       30.0152142229  TIP3      989             0.0000000000
     25220      1182  TIP3      OH2           -12.3127523951      -13.3108470406       28.1993288623  TIP3      990             0.0000000000
     25221      1182  TIP3      H1            -12.1889764457      -12.4721334702       27.7166216386  TIP3      990             0.0000000000
     25222      1182  TIP3      H2            -12.7068581707      -13.8830691702       27.5149548729  TIP3      990             0.0000000000
     25223      1183  TIP3      OH2            -4.5623939271      -13.1856612364       26.6069654897  TIP3      991             0.0000000000
     25224      1183  TIP3      H1             -3.8927901597      -13.5335009402       27.2490031987  TIP3      991             0.0000000000
     25225      1183  TIP3      H2             -3.9948296664      -12.6849879152       26.0039376524  TIP3      991             0.0000000000
     25226      1184  TIP3      OH2           -15.6707183010      -10.8986412342       28.9480933069  TIP3      992             0.0000000000
     25227      1184  TIP3      H1            -15.0025913186      -11.4441711297       29.4005671510  TIP3      992             0.0000000000
     25228      1184  TIP3      H2            -15.5640317527      -11.2136827875       28.0395693241  TIP3      992             0.0000000000
     25229      1185  TIP3      OH2           -10.4785306990       -9.3545392735       28.2168570922  TIP3      993             0.0000000000
     25230      1185  TIP3      H1             -9.8502448713       -9.9347864690       28.6766028496  TIP3      993             0.0000000000
     25231      1185  TIP3      H2            -11.0519336911      -10.0168537711       27.7857596645  TIP3      993             0.0000000000
     25232      1186  TIP3      OH2             0.4561436476      -12.8016567377       33.6783423892  TIP3      994             0.0000000000
     25233      1186  TIP3      H1             -0.1480844559      -12.0352136038       33.5658867147  TIP3      994             0.0000000000
     25234      1186  TIP3      H2              0.4911857977      -12.8813629158       34.6379652861  TIP3      994             0.0000000000
     25235      1187  TIP3      OH2           -13.3880381384      -14.4098052765       32.2450270664  TIP3      995             0.0000000000
     25236      1187  TIP3      H1            -13.6690538203      -13.8394936374       31.4977789687  TIP3      995             0.0000000000
     25237      1187  TIP3      H2            -14.0658783170      -14.1811889025       32.9272234517  TIP3      995             0.0000000000
     25238      1188  TIP3      OH2            -6.1282076560       -4.9549757947       25.7705373250  TIP3      996             0.0000000000
     25239      1188  TIP3      H1             -6.3658671850       -5.1578709932       24.8543615426  TIP3      996             0.0000000000
     25240      1188  TIP3      H2             -6.3928293289       -4.0090030736       25.8403262318  TIP3      996             0.0000000000
     25241      1189  TIP3      OH2           -10.8801048727       -6.7616049467       32.4849487666  TIP3      997             0.0000000000
     25242      1189  TIP3      H1            -11.5882194962       -6.1169795381       32.6977940014  TIP3      997             0.0000000000
     25243      1189  TIP3      H2            -10.1715900262       -6.1671277030       32.1929892604  TIP3      997             0.0000000000
     25244      1190  TIP3      OH2            -2.7731286535      -13.8661070353       28.5600825072  TIP3      998             0.0000000000
     25245      1190  TIP3      H1             -2.9654829240      -14.6435532849       29.0984964030  TIP3      998             0.0000000000
     25246      1190  TIP3      H2             -2.0832682081      -13.4367684360       29.0858874426  TIP3      998             0.0000000000
     25247      1191  TIP3      OH2           -13.8149098323      -12.5586905153       30.2796583581  TIP3      999             0.0000000000
     25248      1191  TIP3      H1            -13.1908951856      -11.8656909788       30.5899790871  TIP3      999             0.0000000000
     25249      1191  TIP3      H2            -13.2991852004      -12.9627019581       29.5379249232  TIP3      999             0.0000000000
     25250      1192  TIP3      OH2           -12.4473450563       -4.7677471166       33.2844442728  TIP3      1000            0.0000000000
     25251      1192  TIP3      H1            -12.4687172083       -3.8416429436       32.9808354077  TIP3      1000            0.0000000000
     25252      1192  TIP3      H2            -13.3068009871       -4.8475585388       33.7648519610  TIP3      1000            0.0000000000
     25253      1193  TIP3      OH2           -16.3569264599       -5.1075352140       24.1170209995  TIP3      1001            0.0000000000
     25254      1193  TIP3      H1            -16.5412410451       -4.7845217456       23.2280579292  TIP3      1001            0.0000000000
     25255      1193  TIP3      H2            -16.2680639473       -4.2859110476       24.6288639861  TIP3      1001            0.0000000000
     25256      1194  TIP3      OH2            -2.7415203899       -3.4791320168       30.8581765047  TIP3      1002            0.0000000000
     25257      1194  TIP3      H1             -3.7087942110       -3.3676968461       30.9759814513  TIP3      1002            0.0000000000
     25258      1194  TIP3      H2             -2.4710478823       -2.5640929706       30.6532527885  TIP3      1002            0.0000000000
     25259      1195  TIP3      OH2            -2.4166109336      -15.1974601647       32.2461695772  TIP3      1003            0.0000000000
     25260      1195  TIP3      H1             -3.1410959402      -14.5641593107       32.1522572155  TIP3      1003            0.0000000000
     25261      1195  TIP3      H2             -1.7035150671      -14.7795819464       31.7226373142  TIP3      1003            0.0000000000
     25262      1196  TIP3      OH2            -9.4397165688      -17.0678514931       29.7679831892  TIP3      1004            0.0000000000
     25263      1196  TIP3      H1             -9.5632079017      -18.0221080107       29.5976160741  TIP3      1004            0.0000000000
     25264      1196  TIP3      H2            -10.3417602610      -16.7757727725       29.9956072849  TIP3      1004            0.0000000000
     25265      1197  TIP3      OH2            -4.4793128572       -1.6912911118       27.4427494909  TIP3      1005            0.0000000000
     25266      1197  TIP3      H1             -4.0514231799       -2.4109966067       26.9305549258  TIP3      1005            0.0000000000
     25267      1197  TIP3      H2             -4.0684704191       -0.9040994301       27.0175571468  TIP3      1005            0.0000000000
     25268      1198  TIP3      OH2            -3.2492764783       -3.7680904243       25.9685289494  TIP3      1006            0.0000000000
     25269      1198  TIP3      H1             -3.5661438060       -4.4567625757       25.3594755302  TIP3      1006            0.0000000000
     25270      1198  TIP3      H2             -3.2308624780       -4.2586059561       26.8103023435  TIP3      1006            0.0000000000
     25271      1199  TIP3      OH2            -1.6542909101       -5.1718166884       34.4563375543  TIP3      1007            0.0000000000
     25272      1199  TIP3      H1             -1.5050320173       -5.8271174665       33.7389822878  TIP3      1007            0.0000000000
     25273      1199  TIP3      H2             -1.4450960754       -4.3310597081       34.0107317507  TIP3      1007            0.0000000000
     25274      1200  TIP3      OH2             0.2353849410       -8.8612076265       32.4994138915  TIP3      1008            0.0000000000
     25275      1200  TIP3      H1             -0.4219632918       -8.1374797403       32.5384947824  TIP3      1008            0.0000000000
     25276      1200  TIP3      H2              0.7312162967       -8.6278560686       31.6934599411  TIP3      1008            0.0000000000
     25277      1201  TIP3      OH2            -3.6881748357       -8.0593141937       25.1590478669  TIP3      1009            0.0000000000
     25278      1201  TIP3      H1             -4.4225724757       -7.8307332289       25.7738040164  TIP3      1009            0.0000000000
     25279      1201  TIP3      H2             -3.2242290579       -8.7628433269       25.6498791229  TIP3      1009            0.0000000000
     25280      1202  TIP3      OH2            -3.7763163628       -9.9092533373       34.2672607815  TIP3      1010            0.0000000000
     25281      1202  TIP3      H1             -3.7686751866       -9.0895121240       34.7889753646  TIP3      1010            0.0000000000
     25282      1202  TIP3      H2             -4.4054889962       -9.6170991231       33.5750354040  TIP3      1010            0.0000000000
     25283      1203  TIP3      OH2           -12.0694957914       -7.4124331907       27.0458171595  TIP3      1011            0.0000000000
     25284      1203  TIP3      H1            -12.4008285454       -7.7867426558       26.1885374170  TIP3      1011            0.0000000000
     25285      1203  TIP3      H2            -11.4880299701       -8.1169196543       27.4008314009  TIP3      1011            0.0000000000
     25286      1204  TIP3      OH2           -10.8121244297       -4.0403069273       29.7490140152  TIP3      1012            0.0000000000
     25287      1204  TIP3      H1            -10.7901170099       -4.5491060403       28.9292843292  TIP3      1012            0.0000000000
     25288      1204  TIP3      H2            -10.0100698329       -4.3755611426       30.1963632799  TIP3      1012            0.0000000000
     25289      1205  TIP3      OH2           -11.7628386981       -8.6696920016       30.7178533617  TIP3      1013            0.0000000000
     25290      1205  TIP3      H1            -11.2132852968       -8.5637618184       29.9190642177  TIP3      1013            0.0000000000
     25291      1205  TIP3      H2            -11.3761142442       -8.0036695672       31.3296329781  TIP3      1013            0.0000000000
     25292      1206  TIP3      OH2            -5.3639919544       -3.0890391213       31.4193710576  TIP3      1014            0.0000000000
     25293      1206  TIP3      H1             -5.6369464035       -2.4567745241       32.0882500232  TIP3      1014            0.0000000000
     25294      1206  TIP3      H2             -5.6022411305       -3.9451856548       31.8477973568  TIP3      1014            0.0000000000
     25295      1207  TIP3      OH2           -10.8141931098       -4.2444602664       35.4166796172  TIP3      1015            0.0000000000
     25296      1207  TIP3      H1            -11.2250046584       -3.5018869100       35.9070673611  TIP3      1015            0.0000000000
     25297      1207  TIP3      H2            -11.4853651869       -4.4384061423       34.7174766629  TIP3      1015            0.0000000000
     25298      1208  TIP3      OH2            -4.8716124491       -8.8140626871       22.8930768318  TIP3      1016            0.0000000000
     25299      1208  TIP3      H1             -4.2581109544       -8.7013753165       23.6460471376  TIP3      1016            0.0000000000
     25300      1208  TIP3      H2             -4.3996534769       -8.4345333847       22.1513283600  TIP3      1016            0.0000000000
     25301      1209  TIP3      OH2           -13.8700708018       -8.0779124298       34.5679098694  TIP3      1017            0.0000000000
     25302      1209  TIP3      H1            -13.8168863860       -7.4109824031       35.2781260840  TIP3      1017            0.0000000000
     25303      1209  TIP3      H2            -14.8125490654       -7.9898537123       34.3564624452  TIP3      1017            0.0000000000
     25304      1210  TIP3      OH2            -7.1263710347       -2.1662243930       26.3073422238  TIP3      1018            0.0000000000
     25305      1210  TIP3      H1             -6.6680425442       -1.8252107330       27.0806098452  TIP3      1018            0.0000000000
     25306      1210  TIP3      H2             -7.6681209800       -1.4165765057       26.0443973136  TIP3      1018            0.0000000000
     25307      1211  TIP3      OH2           -12.5655928055       -2.2002141822       36.1687333026  TIP3      1019            0.0000000000
     25308      1211  TIP3      H1            -12.6123093233       -2.3070932239       35.2078870755  TIP3      1019            0.0000000000
     25309      1211  TIP3      H2            -13.5014811372       -2.3319775706       36.4233712233  TIP3      1019            0.0000000000
     25310      1212  TIP3      OH2            -1.0851148450      -17.0723418298       22.7843839539  TIP3      1020            0.0000000000
     25311      1212  TIP3      H1             -2.0560889416      -17.0288382788       22.9167095719  TIP3      1020            0.0000000000
     25312      1212  TIP3      H2             -0.9653874832      -16.3209686851       22.1808513244  TIP3      1020            0.0000000000
     25313      1213  TIP3      OH2           -13.1268004256       -8.3708727376       24.7063459105  TIP3      1021            0.0000000000
     25314      1213  TIP3      H1            -13.3898076593       -7.6130846941       24.1465300342  TIP3      1021            0.0000000000
     25315      1213  TIP3      H2            -13.7882399739       -9.0255787603       24.4675389519  TIP3      1021            0.0000000000
     25316      1214  TIP3      OH2           -17.0296130871       -5.9585990555       33.5532314005  TIP3      1022            0.0000000000
     25317      1214  TIP3      H1            -17.4956308512       -6.0720781056       32.7079600817  TIP3      1022            0.0000000000
     25318      1214  TIP3      H2            -16.9537035549       -6.9037187400       33.7988633296  TIP3      1022            0.0000000000
     25319      1215  TIP3      OH2           -17.5940674278       -3.4533686684       30.0499866775  TIP3      1023            0.0000000000
     25320      1215  TIP3      H1            -16.6592942585       -3.7088660419       30.0885463781  TIP3      1023            0.0000000000
     25321      1215  TIP3      H2            -17.8297370535       -2.7042751181       30.6227167930  TIP3      1023            0.0000000000
     25322      1216  TIP3      OH2             0.9658680153       -2.5230340943       36.0407707226  TIP3      1024            0.0000000000
     25323      1216  TIP3      H1              0.8470673399       -3.4818771684       36.0106970422  TIP3      1024            0.0000000000
     25324      1216  TIP3      H2              0.0916386118       -2.2746889134       36.4241043671  TIP3      1024            0.0000000000
     25325      1217  TIP3      OH2            -8.0745642064       -2.9804755593       34.8977777437  TIP3      1025            0.0000000000
     25326      1217  TIP3      H1             -8.0165749117       -2.1394404690       35.4080840589  TIP3      1025            0.0000000000
     25327      1217  TIP3      H2             -8.9483032613       -3.3331780903       35.1457955567  TIP3      1025            0.0000000000
     25328      1218  TIP3      OH2           -14.0622419748       -0.3014363232       26.5582327318  TIP3      1026            0.0000000000
     25329      1218  TIP3      H1            -13.8474271206       -0.8011617238       27.3749450939  TIP3      1026            0.0000000000
     25330      1218  TIP3      H2            -14.8386520898       -0.8113103189       26.2719050609  TIP3      1026            0.0000000000
     25331      1219  TIP3      OH2            -4.8903336668       -0.0222154648       24.5915519276  TIP3      1027            0.0000000000
     25332      1219  TIP3      H1             -5.8548725540       -0.0101178858       24.5698153029  TIP3      1027            0.0000000000
     25333      1219  TIP3      H2             -4.6622494792       -0.8698293092       24.9801012226  TIP3      1027            0.0000000000
     25334      1220  TIP3      OH2            -1.8886289064      -11.0564699021       36.5072383727  TIP3      1028            0.0000000000
     25335      1220  TIP3      H1             -2.3642533224      -10.6054619117       35.7907088541  TIP3      1028            0.0000000000
     25336      1220  TIP3      H2             -1.9036510932      -11.9758859709       36.2023906391  TIP3      1028            0.0000000000
     25337      1221  TIP3      OH2           -14.7757005948       -4.6262205632       34.4983747307  TIP3      1029            0.0000000000
     25338      1221  TIP3      H1            -14.5267911349       -4.9976935961       35.3771038618  TIP3      1029            0.0000000000
     25339      1221  TIP3      H2            -15.6275752465       -5.0706740786       34.3123652262  TIP3      1029            0.0000000000
     25340      1222  TIP3      OH2           -12.0680520941      -16.1713793216       30.4579677475  TIP3      1030            0.0000000000
     25341      1222  TIP3      H1            -12.9723678142      -16.2995914771       30.0957100588  TIP3      1030            0.0000000000
     25342      1222  TIP3      H2            -12.2013870688      -15.3435898264       30.9473405659  TIP3      1030            0.0000000000
     25343      1223  TIP3      OH2            -7.4231731456      -16.5017234660       33.8256230653  TIP3      1031            0.0000000000
     25344      1223  TIP3      H1             -7.0335817718      -16.9316934010       34.6094086875  TIP3      1031            0.0000000000
     25345      1223  TIP3      H2             -8.3959711094      -16.6225345788       33.9665895814  TIP3      1031            0.0000000000
     25346      1224  TIP3      OH2            -4.1364135346      -12.6591727334       34.7249018745  TIP3      1032            0.0000000000
     25347      1224  TIP3      H1             -4.7016946760      -12.8741715370       35.5058919338  TIP3      1032            0.0000000000
     25348      1224  TIP3      H2             -4.3216720686      -11.7321297860       34.4961757095  TIP3      1032            0.0000000000
     25349      1225  TIP3      OH2           -11.9637898144      -11.1934571789       31.7186383746  TIP3      1033            0.0000000000
     25350      1225  TIP3      H1            -12.7033110720      -11.2079569330       32.3529534075  TIP3      1033            0.0000000000
     25351      1225  TIP3      H2            -12.0146921311      -10.2863214362       31.3428918121  TIP3      1033            0.0000000000
     25352      1226  TIP3      OH2           -12.0210800447      -11.1141810381       26.6055984251  TIP3      1034            0.0000000000
     25353      1226  TIP3      H1            -12.9676600329      -11.3251551167       26.4568829398  TIP3      1034            0.0000000000
     25354      1226  TIP3      H2            -11.6278667474      -11.3590168185       25.7608447128  TIP3      1034            0.0000000000
     25355      1227  TIP3      OH2            -7.4317233063      -10.3697663230       36.7857804075  TIP3      1035            0.0000000000
     25356      1227  TIP3      H1             -7.9573382658      -11.1449666607       37.0969437026  TIP3      1035            0.0000000000
     25357      1227  TIP3      H2             -6.5940399198      -10.4906557761       37.2629892028  TIP3      1035            0.0000000000
     25358      1228  TIP3      OH2            -5.4773704085      -11.0974910998       28.1897436463  TIP3      1036            0.0000000000
     25359      1228  TIP3      H1             -5.7130268434      -10.5172133593       27.4564081121  TIP3      1036            0.0000000000
     25360      1228  TIP3      H2             -5.3442620563      -11.9490891059       27.7238409665  TIP3      1036            0.0000000000
     25361      1229  TIP3      OH2           -14.3428563856      -10.9496828329       33.3935747579  TIP3      1037            0.0000000000
     25362      1229  TIP3      H1            -14.2612577707      -10.5412173330       34.2730888314  TIP3      1037            0.0000000000
     25363      1229  TIP3      H2            -14.7853079314      -11.7872882584       33.6032570032  TIP3      1037            0.0000000000
     25364      1230  TIP3      OH2           -17.6908680353      -13.8381403010       27.3863421378  TIP3      1038            0.0000000000
     25365      1230  TIP3      H1            -17.0097736446      -13.8603625263       28.0883383644  TIP3      1038            0.0000000000
     25366      1230  TIP3      H2            -17.2390549211      -14.2071476338       26.6062520695  TIP3      1038            0.0000000000
     25367      1231  TIP3      OH2            -6.2566277084       -9.5063475986       32.7468686784  TIP3      1039            0.0000000000
     25368      1231  TIP3      H1             -5.8753986215      -10.1923837319       32.1619460215  TIP3      1039            0.0000000000
     25369      1231  TIP3      H2             -6.7220285916      -10.0338105570       33.4206170454  TIP3      1039            0.0000000000
     25370      1232  TIP3      OH2            -9.4857278789      -13.4897246907       27.6254714513  TIP3      1040            0.0000000000
     25371      1232  TIP3      H1            -10.4171125770      -13.5571706909       27.9110887719  TIP3      1040            0.0000000000
     25372      1232  TIP3      H2             -8.9833727347      -13.7103066423       28.4237656317  TIP3      1040            0.0000000000
     25373      1233  TIP3      OH2           -14.6622652229      -11.9739674676       26.4554002846  TIP3      1041            0.0000000000
     25374      1233  TIP3      H1            -15.5468655844      -11.8221480989       26.0618503868  TIP3      1041            0.0000000000
     25375      1233  TIP3      H2            -14.3814314247      -12.8139799850       26.0526833831  TIP3      1041            0.0000000000
     25376      1234  TIP3      OH2            -5.0514297457      -14.3007037771       30.8181761006  TIP3      1042            0.0000000000
     25377      1234  TIP3      H1             -5.7298458936      -14.2432797230       31.5278784178  TIP3      1042            0.0000000000
     25378      1234  TIP3      H2             -5.5658659266      -14.5547017721       30.0337917946  TIP3      1042            0.0000000000
     25379      1235  TIP3      OH2            -1.8466097659        1.3478158637       37.1506499773  TIP3      1043            0.0000000000
     25380      1235  TIP3      H1             -1.5801106147        1.7318488372       36.2963938261  TIP3      1043            0.0000000000
     25381      1235  TIP3      H2             -1.1228210898        1.6681930157       37.7101638896  TIP3      1043            0.0000000000
     25382      1236  TIP3      OH2           -14.1599464554       -6.1983764344       36.7340508480  TIP3      1044            0.0000000000
     25383      1236  TIP3      H1            -13.4441282519       -5.9445921271       37.3365590092  TIP3      1044            0.0000000000
     25384      1236  TIP3      H2            -14.9397201499       -6.1036127349       37.3249525995  TIP3      1044            0.0000000000
     25385      1237  TIP3      OH2            -8.1623938383      -10.7631619050       29.4710686124  TIP3      1045            0.0000000000
     25386      1237  TIP3      H1             -7.5617814131      -11.3266651603       28.9736934575  TIP3      1045            0.0000000000
     25387      1237  TIP3      H2             -8.3262393588      -11.2997823786       30.2619155445  TIP3      1045            0.0000000000
     25388      1238  TIP3      OH2           -13.1827075310      -14.6026370304       25.8009142999  TIP3      1046            0.0000000000
     25389      1238  TIP3      H1            -13.4922105358      -15.5218751902       25.9534727827  TIP3      1046            0.0000000000
     25390      1238  TIP3      H2            -12.3214119935      -14.7608122009       25.4066962656  TIP3      1046            0.0000000000
     25391      1239  TIP3      OH2            -9.5312159214      -12.4486545846       31.8952109330  TIP3      1047            0.0000000000
     25392      1239  TIP3      H1            -10.3545602360      -11.9272964542       31.9813256941  TIP3      1047            0.0000000000
     25393      1239  TIP3      H2             -8.9754593127      -12.0930386089       32.6154920814  TIP3      1047            0.0000000000
     25394      1240  TIP3      OH2            -8.9781748019       -6.1282917915       23.5823484294  TIP3      1048            0.0000000000
     25395      1240  TIP3      H1             -9.6984084934       -6.6977601989       23.2757763695  TIP3      1048            0.0000000000
     25396      1240  TIP3      H2             -9.1494705771       -6.1082880303       24.5382335078  TIP3      1048            0.0000000000
     25397      1241  TIP3      OH2            -1.7544183948       -7.0185522520       32.3926091871  TIP3      1049            0.0000000000
     25398      1241  TIP3      H1             -1.1923527771       -6.5352536016       31.7598151282  TIP3      1049            0.0000000000
     25399      1241  TIP3      H2             -2.6149558842       -6.9743039813       31.9289423198  TIP3      1049            0.0000000000
     25400      1242  TIP3      OH2            -7.4499888014       -5.9505053606       34.8345769919  TIP3      1050            0.0000000000
     25401      1242  TIP3      H1             -7.7997413071       -6.3808294824       35.6217061182  TIP3      1050            0.0000000000
     25402      1242  TIP3      H2             -7.7065729134       -5.0294438557       34.9416201128  TIP3      1050            0.0000000000
     25403      1243  TIP3      OH2           -13.8217864214       -6.8020441775       29.3979496309  TIP3      1051            0.0000000000
     25404      1243  TIP3      H1            -13.1652698897       -6.9187989056       28.6813909845  TIP3      1051            0.0000000000
     25405      1243  TIP3      H2            -13.7958104468       -7.6746276757       29.8353275667  TIP3      1051            0.0000000000
     25406      1244  TIP3      OH2            -6.8006076695       -4.7332501478       22.6702666969  TIP3      1052            0.0000000000
     25407      1244  TIP3      H1             -7.1842549421       -3.8756411836       22.9549724581  TIP3      1052            0.0000000000
     25408      1244  TIP3      H2             -7.5462480723       -5.3563865867       22.8128291546  TIP3      1052            0.0000000000
     25409      1245  TIP3      OH2           -16.8418183059       -8.4213341696       34.6499391241  TIP3      1053            0.0000000000
     25410      1245  TIP3      H1            -16.6746216088       -8.8648503306       35.5002845980  TIP3      1053            0.0000000000
     25411      1245  TIP3      H2            -17.4628345018       -9.0321450047       34.2111923240  TIP3      1053            0.0000000000
     25412      1246  TIP3      OH2            -9.8321942211       -8.8540648135       36.8198024973  TIP3      1054            0.0000000000
     25413      1246  TIP3      H1            -10.1506532886       -9.1718501375       35.9642349034  TIP3      1054            0.0000000000
     25414      1246  TIP3      H2             -8.9106398401       -9.1871486119       36.8253434263  TIP3      1054            0.0000000000
     25415      1247  TIP3      OH2            -5.1430758632       -3.5279789973       34.7831149779  TIP3      1055            0.0000000000
     25416      1247  TIP3      H1             -6.0685105335       -3.3499300311       34.5489104431  TIP3      1055            0.0000000000
     25417      1247  TIP3      H2             -5.1768667392       -3.2348809986       35.7137532285  TIP3      1055            0.0000000000
     25418      1248  TIP3      OH2             0.5385332132      -11.3387878648       23.1812426055  TIP3      1056            0.0000000000
     25419      1248  TIP3      H1             -0.0581462184      -11.6368351356       22.4588254191  TIP3      1056            0.0000000000
     25420      1248  TIP3      H2              0.6086369368      -10.3939661183       22.9178656868  TIP3      1056            0.0000000000
     25421      1249  TIP3      OH2             0.5112646670       -5.4854883117       35.9744958336  TIP3      1057            0.0000000000
     25422      1249  TIP3      H1             -0.3815982531       -5.2654150075       35.6100670722  TIP3      1057            0.0000000000
     25423      1249  TIP3      H2              1.0570282458       -5.5378008135       35.1627085296  TIP3      1057            0.0000000000
     25424      1250  TIP3      OH2            -1.0695400141       -2.5710338320       23.6115519155  TIP3      1058            0.0000000000
     25425      1250  TIP3      H1             -1.5824591837       -3.3408564369       23.8802401284  TIP3      1058            0.0000000000
     25426      1250  TIP3      H2             -0.9796905639       -2.6448256274       22.6392071828  TIP3      1058            0.0000000000
     25427      1251  TIP3      OH2            -3.9780191110       -7.7019292117       30.6694549415  TIP3      1059            0.0000000000
     25428      1251  TIP3      H1             -4.9185017234       -7.9123482390       30.5612972307  TIP3      1059            0.0000000000
     25429      1251  TIP3      H2             -3.5484285648       -8.4638201913       30.2353225027  TIP3      1059            0.0000000000
     25430      1252  TIP3      OH2           -11.4467612913       -3.3789135455       26.7851255930  TIP3      1060            0.0000000000
     25431      1252  TIP3      H1            -10.9411988956       -2.5863302362       26.5615077366  TIP3      1060            0.0000000000
     25432      1252  TIP3      H2            -12.3158439834       -3.1575687849       26.4333083552  TIP3      1060            0.0000000000
     25433      1253  TIP3      OH2           -15.7507415196       -8.4652093809       21.3523449774  TIP3      1061            0.0000000000
     25434      1253  TIP3      H1            -15.0910123655       -7.8661150587       21.7264558359  TIP3      1061            0.0000000000
     25435      1253  TIP3      H2            -16.5886769979       -8.1487964756       21.6351856814  TIP3      1061            0.0000000000
     25436      1254  TIP3      OH2           -10.0376013367       -5.7038504078       26.3231398043  TIP3      1062            0.0000000000
     25437      1254  TIP3      H1            -10.3621085352       -4.7851263674       26.3831929755  TIP3      1062            0.0000000000
     25438      1254  TIP3      H2            -10.7691100974       -6.1962073079       26.7407776967  TIP3      1062            0.0000000000
     25439      1255  TIP3      OH2            -9.5875137575       -1.5244149227       32.7086625330  TIP3      1063            0.0000000000
     25440      1255  TIP3      H1             -9.1266461045       -0.7205535928       32.4206738998  TIP3      1063            0.0000000000
     25441      1255  TIP3      H2             -8.9743295849       -1.8699082747       33.3811136682  TIP3      1063            0.0000000000
     25442      1256  TIP3      OH2           -11.3530493151       -0.7053374299       25.8522275888  TIP3      1064            0.0000000000
     25443      1256  TIP3      H1            -12.3132803765       -0.5803998563       25.9590593104  TIP3      1064            0.0000000000
     25444      1256  TIP3      H2            -10.9861386384        0.1363145636       26.1797546238  TIP3      1064            0.0000000000
     25445      1257  TIP3      OH2            -6.0760313382       -5.5296382379       32.3187581988  TIP3      1065            0.0000000000
     25446      1257  TIP3      H1             -6.3949291968       -5.7181674866       33.2261081651  TIP3      1065            0.0000000000
     25447      1257  TIP3      H2             -5.4311050299       -6.2358902243       32.1532313959  TIP3      1065            0.0000000000
     25448      1258  TIP3      OH2            -3.2501149515       -0.9432852525       34.8084094954  TIP3      1066            0.0000000000
     25449      1258  TIP3      H1             -3.9416175669       -1.4393271687       34.3316902861  TIP3      1066            0.0000000000
     25450      1258  TIP3      H2             -3.0695859032       -0.2430539613       34.1463668934  TIP3      1066            0.0000000000
     25451      1259  TIP3      OH2           -15.1897597147      -13.6920021591       34.1965726678  TIP3      1067            0.0000000000
     25452      1259  TIP3      H1            -16.0974572473      -13.3378315797       34.1792833920  TIP3      1067            0.0000000000
     25453      1259  TIP3      H2            -15.3033709424      -14.5354498751       34.6612362728  TIP3      1067            0.0000000000
     25454      1260  TIP3      OH2            -2.9472188311       -5.8599152505       23.7053622585  TIP3      1068            0.0000000000
     25455      1260  TIP3      H1             -3.1724162990       -6.6448489553       24.2347811845  TIP3      1068            0.0000000000
     25456      1260  TIP3      H2             -1.9869232885       -5.7930626813       23.8245556952  TIP3      1068            0.0000000000
     25457      1261  TIP3      OH2           -15.4984054555       -1.8895052229       32.8128921429  TIP3      1069            0.0000000000
     25458      1261  TIP3      H1            -15.1777799397       -2.8107675302       32.8518161573  TIP3      1069            0.0000000000
     25459      1261  TIP3      H2            -15.2549188618       -1.5854789607       33.7039635912  TIP3      1069            0.0000000000
     25460      1262  TIP3      OH2           -10.8996124519       -3.8324321192       22.3379646648  TIP3      1070            0.0000000000
     25461      1262  TIP3      H1            -10.5780688441       -4.3701965405       23.0826637702  TIP3      1070            0.0000000000
     25462      1262  TIP3      H2            -10.7175944609       -2.9269663375       22.6712619123  TIP3      1070            0.0000000000
     25463      1263  TIP3      OH2           -14.2787817397       -6.5857927408       22.8542079561  TIP3      1071            0.0000000000
     25464      1263  TIP3      H1            -14.9874594700       -6.2108779358       23.4046080591  TIP3      1071            0.0000000000
     25465      1263  TIP3      H2            -13.8180177930       -5.7787933077       22.5753124623  TIP3      1071            0.0000000000
     25466      1264  TIP3      OH2            -6.4552673185      -13.9118464938       33.1592138091  TIP3      1072            0.0000000000
     25467      1264  TIP3      H1             -5.7440707971      -13.8547422871       33.8060845723  TIP3      1072            0.0000000000
     25468      1264  TIP3      H2             -6.8428813111      -14.7874279475       33.3653990312  TIP3      1072            0.0000000000
     25469      1265  TIP3      OH2            -8.0197842673       -2.1639462092       23.0096401020  TIP3      1073            0.0000000000
     25470      1265  TIP3      H1             -8.8066770295       -1.6272436433       23.1513857842  TIP3      1073            0.0000000000
     25471      1265  TIP3      H2             -7.4324896970       -1.6138213932       22.4588083340  TIP3      1073            0.0000000000
     25472      1266  TIP3      OH2            -7.9343732985      -11.5706488132       34.2613397487  TIP3      1074            0.0000000000
     25473      1266  TIP3      H1             -7.8578146831      -11.0125673646       35.0594317163  TIP3      1074            0.0000000000
     25474      1266  TIP3      H2             -7.2699412011      -12.2648087818       34.3557219356  TIP3      1074            0.0000000000
     25475      1267  TIP3      OH2            -7.6323844219      -15.3607703208       25.8812494856  TIP3      1075            0.0000000000
     25476      1267  TIP3      H1             -7.9640517663      -14.8741010045       26.6535664249  TIP3      1075            0.0000000000
     25477      1267  TIP3      H2             -6.8547849021      -14.8978270912       25.5922659734  TIP3      1075            0.0000000000
     25478      1268  TIP3      OH2           -10.7223803442       -1.1183595455       23.0626698476  TIP3      1076            0.0000000000
     25479      1268  TIP3      H1            -10.4626251727       -0.3222032787       22.5878089387  TIP3      1076            0.0000000000
     25480      1268  TIP3      H2            -10.8742865266       -0.8111024479       23.9789236053  TIP3      1076            0.0000000000
     25481      1269  TIP3      OH2            -1.7552608554      -13.7021788847       35.1138378708  TIP3      1077            0.0000000000
     25482      1269  TIP3      H1             -2.6819606512      -13.3857929793       34.9801742968  TIP3      1077            0.0000000000
     25483      1269  TIP3      H2             -1.4537637140      -13.7153095206       34.1885416748  TIP3      1077            0.0000000000
     25484      1270  TIP3      OH2            -3.1434369702       -9.9136864513       29.1344236830  TIP3      1078            0.0000000000
     25485      1270  TIP3      H1             -3.9543465949      -10.3780893828       28.8587371133  TIP3      1078            0.0000000000
     25486      1270  TIP3      H2             -2.6459699713      -10.6003834668       29.6331217846  TIP3      1078            0.0000000000
     25487      1271  TIP3      OH2           -13.6679995580       -4.0550105568       21.8014854850  TIP3      1079            0.0000000000
     25488      1271  TIP3      H1            -13.0812509840       -3.3172355443       22.0113268957  TIP3      1079            0.0000000000
     25489      1271  TIP3      H2            -13.2885044655       -4.4250791832       21.0059113740  TIP3      1079            0.0000000000
     25490      1272  TIP3      OH2            -2.0780804517       -0.6503099756       30.7851659079  TIP3      1080            0.0000000000
     25491      1272  TIP3      H1             -2.1662407683        0.0286366885       30.0872594291  TIP3      1080            0.0000000000
     25492      1272  TIP3      H2             -1.1137927874       -0.6002208626       30.9569773462  TIP3      1080            0.0000000000
     25493      1273  TIP3      OH2           -14.5850381464      -16.5329090849       29.5923582867  TIP3      1081            0.0000000000
     25494      1273  TIP3      H1            -14.7803798711      -16.5143474037       28.6298913265  TIP3      1081            0.0000000000
     25495      1273  TIP3      H2            -14.9988673061      -17.3856194172       29.8435401255  TIP3      1081            0.0000000000
     25496      1274  TIP3      OH2           -15.6474122571       -2.5816149210       25.7182963258  TIP3      1082            0.0000000000
     25497      1274  TIP3      H1            -16.5065509317       -2.1486258620       25.6901392361  TIP3      1082            0.0000000000
     25498      1274  TIP3      H2            -15.1247728195       -2.1561298094       25.0265630768  TIP3      1082            0.0000000000
     25499      1275  TIP3      OH2           -16.4273940193        0.0446176940       37.0201499827  TIP3      1083            0.0000000000
     25500      1275  TIP3      H1            -15.8207366660       -0.1606627478       37.7576209905  TIP3      1083            0.0000000000
     25501      1275  TIP3      H2            -16.8288877382       -0.8206486628       36.8347052543  TIP3      1083            0.0000000000
     25502      1276  TIP3      OH2           -11.7412159704       -1.0405066789       38.6197115387  TIP3      1084            0.0000000000
     25503      1276  TIP3      H1            -10.9882245325       -1.5398911685       38.9588129767  TIP3      1084            0.0000000000
     25504      1276  TIP3      H2            -11.7701785042       -1.3219746064       37.6872974803  TIP3      1084            0.0000000000
     25505      1277  TIP3      OH2            -5.2414451029       -2.6567127444       37.3770364339  TIP3      1085            0.0000000000
     25506      1277  TIP3      H1             -5.5563812414       -3.5441079351       37.6514691160  TIP3      1085            0.0000000000
     25507      1277  TIP3      H2             -4.4724681518       -2.5379675187       37.9692562386  TIP3      1085            0.0000000000
     25508      1278  TIP3      OH2           -16.5144905474       -6.1876809275       38.0161288680  TIP3      1086            0.0000000000
     25509      1278  TIP3      H1            -16.3486857974       -7.0994181148       37.7148585907  TIP3      1086            0.0000000000
     25510      1278  TIP3      H2            -17.2601724742       -5.9338140217       37.4482708082  TIP3      1086            0.0000000000
     25511      1279  TIP3      OH2            -9.7981223663       -6.1982968824       37.4007523875  TIP3      1087            0.0000000000
     25512      1279  TIP3      H1            -10.1319992436       -5.8868263087       36.5369921346  TIP3      1087            0.0000000000
     25513      1279  TIP3      H2             -9.7238470986       -7.1769655931       37.2920551941  TIP3      1087            0.0000000000
     25514      1280  TIP3      OH2            -4.1017058239       -6.3396299562       34.7929123881  TIP3      1088            0.0000000000
     25515      1280  TIP3      H1             -3.3137150670       -5.7569588942       34.7308472911  TIP3      1088            0.0000000000
     25516      1280  TIP3      H2             -4.8017068951       -5.6716694961       34.8284698145  TIP3      1088            0.0000000000
     25517      1281  TIP3      OH2           -15.5929155616       -8.9623981753       37.3950703872  TIP3      1089            0.0000000000
     25518      1281  TIP3      H1            -15.1757209690       -9.8254392906       37.3048793334  TIP3      1089            0.0000000000
     25519      1281  TIP3      H2            -15.8267970575       -8.9566005599       38.3372032049  TIP3      1089            0.0000000000
     25520      1282  TIP3      OH2           -11.6954304230      -10.0182162846       34.7488067347  TIP3      1090            0.0000000000
     25521      1282  TIP3      H1            -12.2916986751       -9.2967982739       35.0057587409  TIP3      1090            0.0000000000
     25522      1282  TIP3      H2            -11.2977035195       -9.6495404555       33.9415354757  TIP3      1090            0.0000000000
     25523      1283  TIP3      OH2            -6.6209511736       -7.4481788237       38.0864100576  TIP3      1091            0.0000000000
     25524      1283  TIP3      H1             -5.6643314137       -7.4615140777       37.9624892238  TIP3      1091            0.0000000000
     25525      1283  TIP3      H2             -6.7926824946       -8.2150605012       38.6559650356  TIP3      1091            0.0000000000
     25526      1284  TIP3      OH2            -0.6170417875       -7.2534769751       20.0820058102  TIP3      1092            0.0000000000
     25527      1284  TIP3      H1             -0.7639184945       -7.6684559036       19.2366440088  TIP3      1092            0.0000000000
     25528      1284  TIP3      H2             -0.4388129973       -6.3267712350       19.8779166966  TIP3      1092            0.0000000000
     25529      1285  TIP3      OH2           -11.2874892946      -12.6384714235       35.8062107273  TIP3      1093            0.0000000000
     25530      1285  TIP3      H1            -11.1725100959      -13.3486890255       35.1473405051  TIP3      1093            0.0000000000
     25531      1285  TIP3      H2            -11.3335701311      -11.8287367533       35.2573447085  TIP3      1093            0.0000000000
     25532      1286  TIP3      OH2           -10.8858130561      -14.2555465946       33.3609328223  TIP3      1094            0.0000000000
     25533      1286  TIP3      H1            -10.3768838012      -13.7971639415       32.6495022416  TIP3      1094            0.0000000000
     25534      1286  TIP3      H2            -11.7789337717      -14.3361523116       32.9551777996  TIP3      1094            0.0000000000
     25535      1287  TIP3      OH2            -9.3473843894       -8.7656856983       33.6024309333  TIP3      1095            0.0000000000
     25536      1287  TIP3      H1             -8.5923733572       -8.9318629011       33.0321870844  TIP3      1095            0.0000000000
     25537      1287  TIP3      H2             -9.7120207649       -7.9324405056       33.2663688646  TIP3      1095            0.0000000000
     25538      1288  TIP3      OH2            -4.9498365208      -11.0184425648       38.5720841793  TIP3      1096            0.0000000000
     25539      1288  TIP3      H1             -4.7146455981      -11.9523578308       38.4738188236  TIP3      1096            0.0000000000
     25540      1288  TIP3      H2             -4.0857496162      -10.5734854758       38.5982289220  TIP3      1096            0.0000000000
     25541      1289  TIP3      OH2            -3.6089501564       -8.2220474310       36.7322618276  TIP3      1097            0.0000000000
     25542      1289  TIP3      H1             -3.8615149785       -7.5014467450       36.1144492528  TIP3      1097            0.0000000000
     25543      1289  TIP3      H2             -2.6520522581       -8.2539337705       36.5428717299  TIP3      1097            0.0000000000
     25544      1290  TIP3      OH2           -12.8271201359      -11.3884470532       37.7266149412  TIP3      1098            0.0000000000
     25545      1290  TIP3      H1            -13.5964766204      -11.9663325087       37.5591789922  TIP3      1098            0.0000000000
     25546      1290  TIP3      H2            -12.1732252180      -11.7582924486       37.1054640912  TIP3      1098            0.0000000000
     25547      1291  TIP3      OH2           -10.0911047681      -16.8153863336       33.7368532016  TIP3      1099            0.0000000000
     25548      1291  TIP3      H1            -10.2832575236      -15.8549462756       33.6461244595  TIP3      1099            0.0000000000
     25549      1291  TIP3      H2            -10.8499279287      -17.1947705939       33.2630947455  TIP3      1099            0.0000000000
     25550      1292  TIP3      OH2            -8.8269364085      -12.4889079080       37.3783764721  TIP3      1100            0.0000000000
     25551      1292  TIP3      H1             -9.1411655512      -12.7242641628       38.2733802933  TIP3      1100            0.0000000000
     25552      1292  TIP3      H2             -9.6073172740      -12.6942617561       36.8361694257  TIP3      1100            0.0000000000
     25553      1293  TIP3      OH2            -6.1052101657      -13.3479327088       36.4670689170  TIP3      1101            0.0000000000
     25554      1293  TIP3      H1             -7.0701000623      -13.2942354587       36.5765063385  TIP3      1101            0.0000000000
     25555      1293  TIP3      H2             -5.8410204588      -13.9882349164       37.1555877144  TIP3      1101            0.0000000000
     25556      1294  TIP3      OH2            -4.5239666516      -14.7284492919       38.3675177153  TIP3      1102            0.0000000000
     25557      1294  TIP3      H1             -4.5777940742      -15.7070937946       38.3988599395  TIP3      1102            0.0000000000
     25558      1294  TIP3      H2             -4.7722641740      -14.4357949750       39.2663013757  TIP3      1102            0.0000000000
     25559      1295  TIP3      OH2           -14.7520776892      -13.4505169125       37.4825648825  TIP3      1103            0.0000000000
     25560      1295  TIP3      H1            -14.5011005422      -14.1876749056       36.8985985766  TIP3      1103            0.0000000000
     25561      1295  TIP3      H2            -14.8374174374      -13.9000226780       38.3467653180  TIP3      1103            0.0000000000
     25562      1296  TIP3      OH2            -9.8761430647      -17.4153039178       36.4451981537  TIP3      1104            0.0000000000
     25563      1296  TIP3      H1             -9.2257671953      -18.1470288280       36.4489847477  TIP3      1104            0.0000000000
     25564      1296  TIP3      H2             -9.9936296598      -17.2895457115       35.4846175321  TIP3      1104            0.0000000000
     25565      1297  TIP3      OH2            -9.5153510094      -15.8100381970       38.5634515988  TIP3      1105            0.0000000000
     25566      1297  TIP3      H1             -9.6953086570      -16.3233948780       37.7359446348  TIP3      1105            0.0000000000
     25567      1297  TIP3      H2            -10.1217296311      -15.0520849314       38.4648998488  TIP3      1105            0.0000000000
     25568      1298  TIP3      OH2           -17.7368019693        1.0583334796       26.1302389934  TIP3      1106            0.0000000000
     25569      1298  TIP3      H1            -18.4727950915        0.5706491993       25.7439084174  TIP3      1106            0.0000000000
     25570      1298  TIP3      H2            -17.4581607130        0.4512554699       26.8460625271  TIP3      1106            0.0000000000
     25571      1299  TIP3      OH2           -16.8281627855       -0.8187964631       28.0588089646  TIP3      1107            0.0000000000
     25572      1299  TIP3      H1            -17.2817160036       -1.6631865692       28.2095979893  TIP3      1107            0.0000000000
     25573      1299  TIP3      H2            -16.7137334326       -0.4379092170       28.9423527054  TIP3      1107            0.0000000000
     25574      1300  TIP3      OH2             0.6433964688       -0.0099911517       30.9796809622  TIP3      1108            0.0000000000
     25575      1300  TIP3      H1              0.6732859600        0.1507879673       31.9389097795  TIP3      1108            0.0000000000
     25576      1300  TIP3      H2              1.3464331111        0.5737696580       30.6768232774  TIP3      1108            0.0000000000
     25577      1301  TIP3      OH2             0.2160238196       -0.4149218884       33.9245621699  TIP3      1109            0.0000000000
     25578      1301  TIP3      H1             -0.2551499964       -1.1844348122       33.5440007746  TIP3      1109            0.0000000000
     25579      1301  TIP3      H2              0.7024425070       -0.8608169160       34.6377818380  TIP3      1109            0.0000000000
     25580      1302  TIP3      OH2            -1.3398193342       -4.6936156570       38.5992327068  TIP3      1110            0.0000000000
     25581      1302  TIP3      H1             -2.2462709156       -4.7200066013       38.9634436406  TIP3      1110            0.0000000000
     25582      1302  TIP3      H2             -0.9674781053       -3.8876337935       39.0096459525  TIP3      1110            0.0000000000
     25583      1303  TIP3      OH2            -0.0151441315       -6.4123178452       24.0373640233  TIP3      1111            0.0000000000
     25584      1303  TIP3      H1              0.8361436458       -5.9857856179       24.2341254732  TIP3      1111            0.0000000000
     25585      1303  TIP3      H2             -0.0257652348       -7.1206940253       24.7179035805  TIP3      1111            0.0000000000
     25586      1304  TIP3      OH2             0.3433460208       -8.2854087809       25.9159879193  TIP3      1112            0.0000000000
     25587      1304  TIP3      H1             -0.4172931975       -8.7931329819       26.2837787972  TIP3      1112            0.0000000000
     25588      1304  TIP3      H2              0.9316727893       -8.1594202339       26.6883316412  TIP3      1112            0.0000000000
     25589      1305  TIP3      OH2             0.0919925579       -5.5930843656       30.9019909062  TIP3      1113            0.0000000000
     25590      1305  TIP3      H1              0.9068079243       -5.9694701354       30.5229093590  TIP3      1113            0.0000000000
     25591      1305  TIP3      H2              0.2370836801       -4.6401105574       30.7323253763  TIP3      1113            0.0000000000
     25592      1306  TIP3      OH2            -1.3478929989       -2.6871888750       33.1687530655  TIP3      1114            0.0000000000
     25593      1306  TIP3      H1             -2.0379957750       -2.3451013282       33.7573258000  TIP3      1114            0.0000000000
     25594      1306  TIP3      H2             -1.8969829673       -3.0900596127       32.4623403865  TIP3      1114            0.0000000000
     25595      1307  TIP3      OH2             0.5810640178       -8.5098016929       22.3122520040  TIP3      1115            0.0000000000
     25596      1307  TIP3      H1              0.1068553990       -8.0895120760       21.5730806240  TIP3      1115            0.0000000000
     25597      1307  TIP3      H2              0.6012045453       -7.7803169704       22.9557318833  TIP3      1115            0.0000000000
     25598      1308  TIP3      OH2            -0.9576143262      -11.2695361625       20.8377303080  TIP3      1116            0.0000000000
     25599      1308  TIP3      H1             -0.9617726682      -10.5610080734       20.1962809130  TIP3      1116            0.0000000000
     25600      1308  TIP3      H2             -1.2436489110      -12.0547777367       20.3462933648  TIP3      1116            0.0000000000
     25601      1309  TIP3      OH2            -1.8573442471       -9.8001762243       26.4901482324  TIP3      1117            0.0000000000
     25602      1309  TIP3      H1             -2.0078654383      -10.7584145898       26.4165430550  TIP3      1117            0.0000000000
     25603      1309  TIP3      H2             -2.1684550440       -9.6068402654       27.3911679102  TIP3      1117            0.0000000000
     25604      1310  TIP3      OH2           -16.8373553835       -7.6882449826       30.5322119646  TIP3      1118            0.0000000000
     25605      1310  TIP3      H1            -16.6726213781       -7.8225477305       29.5730543968  TIP3      1118            0.0000000000
     25606      1310  TIP3      H2            -15.9575386951       -7.9295797662       30.8901745607  TIP3      1118            0.0000000000
     25607      1311  TIP3      OH2            -0.9827108194       -7.8464346300       36.1754957755  TIP3      1119            0.0000000000
     25608      1311  TIP3      H1             -0.3732495488       -8.6035735502       36.3071616704  TIP3      1119            0.0000000000
     25609      1311  TIP3      H2             -0.3781651875       -7.0741327384       36.1796222026  TIP3      1119            0.0000000000
     25610      1312  TIP3      OH2             0.5189951352       -9.9679164749       36.8257561692  TIP3      1120            0.0000000000
     25611      1312  TIP3      H1             -0.3639750178      -10.3665683378       36.6707998924  TIP3      1120            0.0000000000
     25612      1312  TIP3      H2              1.0892812503      -10.7507309045       36.7487376640  TIP3      1120            0.0000000000
     25613      1313  TIP3      OH2            -2.1677026866      -12.2384627626       24.9933708532  TIP3      1121            0.0000000000
     25614      1313  TIP3      H1             -1.8646742730      -13.1710389254       25.0419450757  TIP3      1121            0.0000000000
     25615      1313  TIP3      H2             -1.4065150462      -11.8227598194       24.5650677850  TIP3      1121            0.0000000000
     25616      1314  TIP3      OH2            -1.5363183587      -11.6863982631       30.3867636625  TIP3      1122            0.0000000000
     25617      1314  TIP3      H1             -0.5754096952      -11.4576323830       30.3738958417  TIP3      1122            0.0000000000
     25618      1314  TIP3      H2             -1.7245689737      -11.5485864391       31.3269040385  TIP3      1122            0.0000000000
     25619      1315  TIP3      OH2            -1.4694083324      -10.9673517337       33.1696044595  TIP3      1123            0.0000000000
     25620      1315  TIP3      H1             -2.3538265343      -10.6786476858       33.4837019086  TIP3      1123            0.0000000000
     25621      1315  TIP3      H2             -1.0366741678      -10.1084575671       32.9458581192  TIP3      1123            0.0000000000
     25622      1316  TIP3      OH2           -17.2178410577      -12.4255341160       36.7054232938  TIP3      1124            0.0000000000
     25623      1316  TIP3      H1            -16.2808716475      -12.6412080246       36.8913009125  TIP3      1124            0.0000000000
     25624      1316  TIP3      H2            -17.6763305191      -13.2518511781       36.9721337920  TIP3      1124            0.0000000000
     25625      1317  TIP3      OH2             0.8007750871      -16.8995803976       38.5071382679  TIP3      1125            0.0000000000
     25626      1317  TIP3      H1              1.1529402008      -17.5627338349       37.8866332311  TIP3      1125            0.0000000000
     25627      1317  TIP3      H2              0.9039439787      -16.0873004793       37.9723492801  TIP3      1125            0.0000000000
     25628      1318  TIP3      OH2            -1.5304138241      -14.9411402048       25.0253778481  TIP3      1126            0.0000000000
     25629      1318  TIP3      H1             -1.2791849011      -15.3950236882       25.8572221831  TIP3      1126            0.0000000000
     25630      1318  TIP3      H2             -2.1038609203      -15.5933470127       24.5648042071  TIP3      1126            0.0000000000
     25631      1319  TIP3      OH2           -16.0201346806      -14.1374441429       29.5486382874  TIP3      1127            0.0000000000
     25632      1319  TIP3      H1            -15.5612545967      -14.9650290370       29.8038565683  TIP3      1127            0.0000000000
     25633      1319  TIP3      H2            -15.4686451337      -13.4481664157       29.9412076871  TIP3      1127            0.0000000000
     25634      1320  TIP3      OH2           -17.7358735793      -11.1380281856       30.5875048529  TIP3      1128            0.0000000000
     25635      1320  TIP3      H1            -17.1763198639      -11.3848287980       29.8230858636  TIP3      1128            0.0000000000
     25636      1320  TIP3      H2            -17.2711767925      -10.3314020606       30.8517738607  TIP3      1128            0.0000000000
     25637      1321  TIP3      OH2             0.3232334107      -14.8048471779       36.8626764311  TIP3      1129            0.0000000000
     25638      1321  TIP3      H1             -0.6131212598      -14.5325145528       36.8025830251  TIP3      1129            0.0000000000
     25639      1321  TIP3      H2              0.3570599511      -15.3551010852       36.0654772251  TIP3      1129            0.0000000000
     25640      1322  TIP3      OH2           -17.3880450336      -14.8812881040       24.6660709948  TIP3      1130            0.0000000000
     25641      1322  TIP3      H1            -18.3292758865      -14.7010746902       24.5139285076  TIP3      1130            0.0000000000
     25642      1322  TIP3      H2            -16.9568371843      -14.4003281655       23.9653546597  TIP3      1130            0.0000000000
     25643      1323  TIP3      OH2            -2.6156981876        0.0644461894       26.6185267528  TIP3      1131            0.0000000000
     25644      1323  TIP3      H1             -1.9402279983       -0.2178616646       25.9699023793  TIP3      1131            0.0000000000
     25645      1323  TIP3      H2             -2.0967237767        0.5818924650       27.2442609625  TIP3      1131            0.0000000000
     25646      1324  TIP3      OH2           -17.4242777008      -16.2263939500       32.9498217298  TIP3      1132            0.0000000000
     25647      1324  TIP3      H1            -18.0911874852      -16.4170402243       33.6343292588  TIP3      1132            0.0000000000
     25648      1324  TIP3      H2            -17.8805302776      -15.5502876697       32.4124912224  TIP3      1132            0.0000000000
     25649      1325  TIP3      OH2           -15.1858881458       -3.0320655367       37.1170980273  TIP3      1133            0.0000000000
     25650      1325  TIP3      H1            -16.0276642106       -2.8119960356       36.6837775313  TIP3      1133            0.0000000000
     25651      1325  TIP3      H2            -15.4508709786       -3.1011060172       38.0378182650  TIP3      1133            0.0000000000
     25652      1326  TIP3      OH2           -12.3196007845       -2.0339765114       33.3393042990  TIP3      1134            0.0000000000
     25653      1326  TIP3      H1            -12.5789879381       -1.1187763812       33.1672295055  TIP3      1134            0.0000000000
     25654      1326  TIP3      H2            -11.3707423112       -1.9445557583       33.0969506894  TIP3      1134            0.0000000000
     25655      1327  TIP3      OH2            -7.9635289086       -0.5946798050       36.3000488331  TIP3      1135            0.0000000000
     25656      1327  TIP3      H1             -7.8177879060       -0.9445128979       37.2102048518  TIP3      1135            0.0000000000
     25657      1327  TIP3      H2             -7.0614162086       -0.2912395588       36.0539953024  TIP3      1135            0.0000000000
     25658      1328  TIP3      OH2            -5.6776412381        0.6728723915       35.6089909959  TIP3      1136            0.0000000000
     25659      1328  TIP3      H1             -4.9447330120        0.0896909274       35.3698077038  TIP3      1136            0.0000000000
     25660      1328  TIP3      H2             -5.3014399537        1.1119061448       36.4022463429  TIP3      1136            0.0000000000
     25661      1329  TIP3      OH2            -0.6583011389      -16.7130541836       34.7150816560  TIP3      1137            0.0000000000
     25662      1329  TIP3      H1             -1.4852539385      -16.4127796986       34.2995223581  TIP3      1137            0.0000000000
     25663      1329  TIP3      H2             -0.4896890573      -17.5360068786       34.1980995038  TIP3      1137            0.0000000000
     25664      1330  TIP3      OH2           -14.8999386094        1.1812101921       33.3349520571  TIP3      1138            0.0000000000
     25665      1330  TIP3      H1            -15.6094567858        1.7579683157       33.0171699097  TIP3      1138            0.0000000000
     25666      1330  TIP3      H2            -15.1455403763        1.0406056225       34.2661398864  TIP3      1138            0.0000000000
     25667      1331  TIP3      OH2           -12.4234727804        0.7110207677       32.4408324445  TIP3      1139            0.0000000000
     25668      1331  TIP3      H1            -13.2803806115        0.9229667123       32.8869483157  TIP3      1139            0.0000000000
     25669      1331  TIP3      H2            -12.3956119484        1.3966312745       31.7608429757  TIP3      1139            0.0000000000
     25670      1332  TIP3      OH2            -7.6913183796        0.6991902314       31.6417559418  TIP3      1140            0.0000000000
     25671      1332  TIP3      H1             -8.1181275693        1.2670831818       30.9894939136  TIP3      1140            0.0000000000
     25672      1332  TIP3      H2             -7.5431602083        1.3330380604       32.3752255473  TIP3      1140            0.0000000000
     25673      1333  TIP3      OH2            -5.3984756726       -0.4841533068       32.6642061940  TIP3      1141            0.0000000000
     25674      1333  TIP3      H1             -6.2509030983       -0.2069610712       32.2911293349  TIP3      1141            0.0000000000
     25675      1333  TIP3      H2             -4.9107227347        0.3522703774       32.5686825582  TIP3      1141            0.0000000000
     25676      1334  TIP3      OH2            -2.8161784423        1.0853141557       32.8796461774  TIP3      1142            0.0000000000
     25677      1334  TIP3      H1             -2.8673731431        2.0465411313       32.6526588018  TIP3      1142            0.0000000000
     25678      1334  TIP3      H2             -2.5976157479        0.7129026527       32.0025489369  TIP3      1142            0.0000000000
     25679      1335  TIP3      OH2           -15.3939000409       -0.1549692813       30.3189543732  TIP3      1143            0.0000000000
     25680      1335  TIP3      H1            -15.3911826945       -0.3919374195       31.2759730823  TIP3      1143            0.0000000000
     25681      1335  TIP3      H2            -14.5378690157       -0.4777735772       29.9425160590  TIP3      1143            0.0000000000
     25682      1336  TIP3      OH2           -13.3671085801       -1.3953372123       29.0495970936  TIP3      1144            0.0000000000
     25683      1336  TIP3      H1            -13.4478578106       -2.3598684205       29.1677834326  TIP3      1144            0.0000000000
     25684      1336  TIP3      H2            -12.4599636721       -1.2843575874       29.4213331162  TIP3      1144            0.0000000000
     25685      1337  TIP3      OH2           -10.7652362971       -0.9405028104       29.8781471418  TIP3      1145            0.0000000000
     25686      1337  TIP3      H1            -10.5465996813       -1.8537114039       29.6011312299  TIP3      1145            0.0000000000
     25687      1337  TIP3      H2            -10.6463144861       -1.0117703445       30.8372899941  TIP3      1145            0.0000000000
     25688      1338  TIP3      OH2            -7.2496865935      -15.2617842646       28.9764631332  TIP3      1146            0.0000000000
     25689      1338  TIP3      H1             -7.9354694363      -15.9018511660       29.2396404906  TIP3      1146            0.0000000000
     25690      1338  TIP3      H2             -6.7312017738      -15.8325742041       28.3924175686  TIP3      1146            0.0000000000
     25691      1339  TIP3      OH2            -2.1239122694      -17.2317943177       29.0664528138  TIP3      1147            0.0000000000
     25692      1339  TIP3      H1             -1.5269561680      -16.6378453261       28.5456790230  TIP3      1147            0.0000000000
     25693      1339  TIP3      H2             -3.0212664486      -16.9002212496       28.8329632017  TIP3      1147            0.0000000000
     25694      1340  TIP3      OH2            -0.4634749974      -15.9898090709       27.3371245242  TIP3      1148            0.0000000000
     25695      1340  TIP3      H1              0.2258394284      -16.5702986350       26.9309500620  TIP3      1148            0.0000000000
     25696      1340  TIP3      H2              0.0414968035      -15.1540798044       27.4608777149  TIP3      1148            0.0000000000
     25697      1341  TIP3      OH2           -14.9104198871      -16.6365984041       26.8449650799  TIP3      1149            0.0000000000
     25698      1341  TIP3      H1            -15.7150471809      -16.8687997461       26.3426579669  TIP3      1149            0.0000000000
     25699      1341  TIP3      H2            -14.4418145690      -17.4965201890       26.7854080809  TIP3      1149            0.0000000000
     25700      1342  TIP3      OH2           -16.0339216313      -16.8549292960       22.6658571039  TIP3      1150            0.0000000000
     25701      1342  TIP3      H1            -15.7202761228      -16.2774571538       21.9746320167  TIP3      1150            0.0000000000
     25702      1342  TIP3      H2            -16.7215907767      -16.3583164318       23.1295788577  TIP3      1150            0.0000000000
     25703      1343  TIP3      OH2           -10.4598180156      -16.5901703411       26.6449958267  TIP3      1151            0.0000000000
     25704      1343  TIP3      H1             -9.4979027797      -16.4624414898       26.5358572028  TIP3      1151            0.0000000000
     25705      1343  TIP3      H2            -10.4337546217      -16.9882057991       27.5163507033  TIP3      1151            0.0000000000
     25706      1344  TIP3      OH2            -4.6707477405      -16.7196436121       28.2486054391  TIP3      1152            0.0000000000
     25707      1344  TIP3      H1             -4.8065500169      -16.6172642511       27.2999650363  TIP3      1152            0.0000000000
     25708      1344  TIP3      H2             -5.1074253274      -17.6073853101       28.3957161961  TIP3      1152            0.0000000000
     25709      1345  TIP3      OH2            -3.4612257986      -16.6593275952       23.9626930584  TIP3      1153            0.0000000000
     25710      1345  TIP3      H1             -4.1974102767      -16.0888024502       23.7152719446  TIP3      1153            0.0000000000
     25711      1345  TIP3      H2             -3.8849783598      -17.5315049995       24.1495803009  TIP3      1153            0.0000000000
     25712      1346  TIP3      OH2            -0.6642488294       -0.1380199439       24.6227182603  TIP3      1154            0.0000000000
     25713      1346  TIP3      H1             -0.8535184535       -0.9184544372       24.0452800684  TIP3      1154            0.0000000000
     25714      1346  TIP3      H2             -0.7030771880        0.5940534929       23.9602452336  TIP3      1154            0.0000000000
     25715      1347  TIP3      OH2           -15.0126064489      -16.1269896346       36.2995767048  TIP3      1155            0.0000000000
     25716      1347  TIP3      H1            -15.3935023808      -16.9261448738       36.7156606284  TIP3      1155            0.0000000000
     25717      1347  TIP3      H2            -14.1032229796      -16.1761141746       36.6911057386  TIP3      1155            0.0000000000
     25718      1348  TIP3      OH2           -12.9857054082      -16.7133426048       37.9016346609  TIP3      1156            0.0000000000
     25719      1348  TIP3      H1            -12.1063065692      -17.1027259819       37.7336999226  TIP3      1156            0.0000000000
     25720      1348  TIP3      H2            -13.3915024206      -17.4974164867       38.3519514582  TIP3      1156            0.0000000000
     25721      1349  TIP3      OH2            -4.5985223653      -17.4375374523       38.1015141777  TIP3      1157            0.0000000000
     25722      1349  TIP3      H1             -4.5112727568      -17.9236347508       38.9436298788  TIP3      1157            0.0000000000
     25723      1349  TIP3      H2             -3.6874901688      -17.4849377433       37.7487348592  TIP3      1157            0.0000000000
     25724      1350  TIP3      OH2            -1.3982788164       -1.3987766422       36.7232771457  TIP3      1158            0.0000000000
     25725      1350  TIP3      H1             -2.2025912989       -1.5349877141       36.1767161042  TIP3      1158            0.0000000000
     25726      1350  TIP3      H2             -1.5146564897       -0.4517884050       36.9404327655  TIP3      1158            0.0000000000
     25727      1351  TIP3      OH2            13.0727975500       -7.5098268013       26.6949173114  TIP3      1159            0.0000000000
     25728      1351  TIP3      H1             13.0474094214       -6.5290672422       26.6807165258  TIP3      1159            0.0000000000
     25729      1351  TIP3      H2             12.3006719173       -7.7413524669       26.1799084152  TIP3      1159            0.0000000000
     25730      1352  TIP3      OH2            11.8969443966       -8.2661794491       30.1887410241  TIP3      1160            0.0000000000
     25731      1352  TIP3      H1             11.8840054014       -8.9096323734       30.9136957371  TIP3      1160            0.0000000000
     25732      1352  TIP3      H2             11.5434943722       -8.7770904334       29.4416995784  TIP3      1160            0.0000000000
     25733      1353  TIP3      OH2             4.2539509765       -8.5895574396       31.7564122169  TIP3      1161            0.0000000000
     25734      1353  TIP3      H1              4.3371170730       -9.2776509637       32.4502355672  TIP3      1161            0.0000000000
     25735      1353  TIP3      H2              5.0033217861       -8.0192416634       31.9809508813  TIP3      1161            0.0000000000
     25736      1354  TIP3      OH2            15.5870043718       -5.3194878829       28.4865767020  TIP3      1162            0.0000000000
     25737      1354  TIP3      H1             15.1731709231       -6.0350686310       28.9786242756  TIP3      1162            0.0000000000
     25738      1354  TIP3      H2             15.6143574686       -4.6149964174       29.1573862813  TIP3      1162            0.0000000000
     25739      1355  TIP3      OH2             5.1799094656       -4.1407289526       30.2566026132  TIP3      1163            0.0000000000
     25740      1355  TIP3      H1              4.8706999624       -5.0114312588       29.9412076703  TIP3      1163            0.0000000000
     25741      1355  TIP3      H2              6.1356181090       -4.3238427851       30.3039447079  TIP3      1163            0.0000000000
     25742      1356  TIP3      OH2             1.8275382577      -10.5722325455       25.7662764234  TIP3      1164            0.0000000000
     25743      1356  TIP3      H1              1.3772100759       -9.7109032764       25.6874989244  TIP3      1164            0.0000000000
     25744      1356  TIP3      H2              1.2674594358      -11.1179014085       25.1970893059  TIP3      1164            0.0000000000
     25745      1357  TIP3      OH2             2.5360723067       -8.3585150002       27.8963339340  TIP3      1165            0.0000000000
     25746      1357  TIP3      H1              2.8079607538       -9.1813881868       28.3465651267  TIP3      1165            0.0000000000
     25747      1357  TIP3      H2              3.2271440731       -8.2538106032       27.2226828266  TIP3      1165            0.0000000000
     25748      1358  TIP3      OH2            12.7103986104       -0.1565140021       28.7311796634  TIP3      1166            0.0000000000
     25749      1358  TIP3      H1             13.3564455343       -0.8470527497       28.4407981579  TIP3      1166            0.0000000000
     25750      1358  TIP3      H2             12.4906120093       -0.4966724925       29.5977776160  TIP3      1166            0.0000000000
     25751      1359  TIP3      OH2            10.2765786847       -5.8708262320       30.6776604448  TIP3      1167            0.0000000000
     25752      1359  TIP3      H1             10.6131103234       -6.4915338886       30.0129137385  TIP3      1167            0.0000000000
     25753      1359  TIP3      H2             11.0875116072       -5.7101912419       31.1913338428  TIP3      1167            0.0000000000
     25754      1360  TIP3      OH2            18.8554929335      -14.1984485886       31.4033908788  TIP3      1168            0.0000000000
     25755      1360  TIP3      H1             19.0512200063      -13.6206632214       32.1725015424  TIP3      1168            0.0000000000
     25756      1360  TIP3      H2             19.4419495584      -13.7885871554       30.7513765590  TIP3      1168            0.0000000000
     25757      1361  TIP3      OH2            13.4435400747      -11.3992796117       30.9907326602  TIP3      1169            0.0000000000
     25758      1361  TIP3      H1             13.6114863578      -12.3580281473       30.9953302235  TIP3      1169            0.0000000000
     25759      1361  TIP3      H2             13.3407275233      -11.2576704334       30.0297329853  TIP3      1169            0.0000000000
     25760      1362  TIP3      OH2             6.5549266180      -13.3105280678       28.2051691247  TIP3      1170            0.0000000000
     25761      1362  TIP3      H1              6.6682147953      -12.4741146861       27.7167861433  TIP3      1170            0.0000000000
     25762      1362  TIP3      H2              6.1589330853      -13.8814493521       27.5128553434  TIP3      1170            0.0000000000
     25763      1363  TIP3      OH2            14.3143701627      -13.2249696057       26.5944081584  TIP3      1171            0.0000000000
     25764      1363  TIP3      H1             14.9753510750      -13.5469142846       27.2484501404  TIP3      1171            0.0000000000
     25765      1363  TIP3      H2             14.8570799702      -12.6687092183       26.0119908304  TIP3      1171            0.0000000000
     25766      1364  TIP3      OH2             3.1821023778      -10.8987232729       28.9394680381  TIP3      1172            0.0000000000
     25767      1364  TIP3      H1              3.8514097027      -11.4425375467       29.3946593241  TIP3      1172            0.0000000000
     25768      1364  TIP3      H2              3.2872767546      -11.2118509483       28.0276088515  TIP3      1172            0.0000000000
     25769      1365  TIP3      OH2             8.3600364400       -9.3408245086       28.2394942595  TIP3      1173            0.0000000000
     25770      1365  TIP3      H1              9.0076225602       -9.9266999689       28.6653846821  TIP3      1173            0.0000000000
     25771      1365  TIP3      H2              7.8221484270      -10.0011670555       27.7573192043  TIP3      1173            0.0000000000
     25772      1366  TIP3      OH2            19.3118950373      -12.8034194385       33.6885981563  TIP3      1174            0.0000000000
     25773      1366  TIP3      H1             18.7076612830      -12.0367000439       33.5697627130  TIP3      1174            0.0000000000
     25774      1366  TIP3      H2             19.3446706118      -12.8796532718       34.6475389154  TIP3      1174            0.0000000000
     25775      1367  TIP3      OH2             5.4678755823      -14.4093208050       32.2451049125  TIP3      1175            0.0000000000
     25776      1367  TIP3      H1              5.1845820526      -13.8391047941       31.4990094549  TIP3      1175            0.0000000000
     25777      1367  TIP3      H2              4.7899763095      -14.1812956276       32.9271668384  TIP3      1175            0.0000000000
     25778      1368  TIP3      OH2            12.7583215724       -4.9288581131       25.7949050337  TIP3      1176            0.0000000000
     25779      1368  TIP3      H1             12.4948102481       -5.1711128834       24.9072639468  TIP3      1176            0.0000000000
     25780      1368  TIP3      H2             12.4447617123       -3.9939720307       25.8516150471  TIP3      1176            0.0000000000
     25781      1369  TIP3      OH2             7.9792368923       -6.7630221924       32.4813765722  TIP3      1177            0.0000000000
     25782      1369  TIP3      H1              7.2744422751       -6.1203951660       32.7048910874  TIP3      1177            0.0000000000
     25783      1369  TIP3      H2              8.6869147048       -6.1663966624       32.1925505327  TIP3      1177            0.0000000000
     25784      1370  TIP3      OH2            16.1021652591      -13.8814700654       28.5785894104  TIP3      1178            0.0000000000
     25785      1370  TIP3      H1             15.8761034811      -14.6560524204       29.1016661977  TIP3      1178            0.0000000000
     25786      1370  TIP3      H2             16.7555547097      -13.4440048634       29.1495093084  TIP3      1178            0.0000000000
     25787      1371  TIP3      OH2             5.0353646560      -12.5527641257       30.2817846410  TIP3      1179            0.0000000000
     25788      1371  TIP3      H1              5.6629309720      -11.8635402470       30.5948874620  TIP3      1179            0.0000000000
     25789      1371  TIP3      H2              5.5515138896      -12.9634756997       29.5434767924  TIP3      1179            0.0000000000
     25790      1372  TIP3      OH2             6.4286061741       -4.7620705643       33.3055480877  TIP3      1180            0.0000000000
     25791      1372  TIP3      H1              6.3789516903       -3.8472927309       32.9674419579  TIP3      1180            0.0000000000
     25792      1372  TIP3      H2              5.5456390782       -4.8416295618       33.7478074619  TIP3      1180            0.0000000000
     25793      1373  TIP3      OH2             2.4524985249       -5.1169989895       24.1208609747  TIP3      1181            0.0000000000
     25794      1373  TIP3      H1              2.2015077837       -4.8199346010       23.2234097814  TIP3      1181            0.0000000000
     25795      1373  TIP3      H2              2.5716290593       -4.2797528183       24.6056308279  TIP3      1181            0.0000000000
     25796      1374  TIP3      OH2            16.1160407892       -3.4794762417       30.8568795887  TIP3      1182            0.0000000000
     25797      1374  TIP3      H1             15.1475846266       -3.3679104174       30.9765838858  TIP3      1182            0.0000000000
     25798      1374  TIP3      H2             16.3850864070       -2.5639455013       30.6534602194  TIP3      1182            0.0000000000
     25799      1375  TIP3      OH2            16.4278763944      -15.2008128311       32.2517180528  TIP3      1183            0.0000000000
     25800      1375  TIP3      H1             15.7102586015      -14.5622450408       32.1535515140  TIP3      1183            0.0000000000
     25801      1375  TIP3      H2             17.1483698016      -14.7825953710       31.7369391343  TIP3      1183            0.0000000000
     25802      1376  TIP3      OH2             9.4039891151      -17.0747245944       29.7116170781  TIP3      1184            0.0000000000
     25803      1376  TIP3      H1              9.2610028980      -18.0378036054       29.6349360075  TIP3      1184            0.0000000000
     25804      1376  TIP3      H2              8.5254211024      -16.7698229996       30.0172343547  TIP3      1184            0.0000000000
     25805      1377  TIP3      OH2            14.3880321932       -1.6862708658       27.4642763037  TIP3      1185            0.0000000000
     25806      1377  TIP3      H1             14.8050318680       -2.4087002164       26.9496624990  TIP3      1185            0.0000000000
     25807      1377  TIP3      H2             14.8048968649       -0.9046195625       27.0461435667  TIP3      1185            0.0000000000
     25808      1378  TIP3      OH2            15.5960597548       -3.7586869832       25.9655103528  TIP3      1186            0.0000000000
     25809      1378  TIP3      H1             15.3232032414       -4.4549679438       25.3460985741  TIP3      1186            0.0000000000
     25810      1378  TIP3      H2             15.6275700090       -4.2560440972       26.8039840887  TIP3      1186            0.0000000000
     25811      1379  TIP3      OH2            17.2021000802       -5.1716438922       34.4567377478  TIP3      1187            0.0000000000
     25812      1379  TIP3      H1             17.3504052876       -5.8268065003       33.7389124272  TIP3      1187            0.0000000000
     25813      1379  TIP3      H2             17.4101104346       -4.3300143684       34.0120022922  TIP3      1187            0.0000000000
     25814      1380  TIP3      OH2            19.0921355363       -8.8607212881       32.5003684506  TIP3      1188            0.0000000000
     25815      1380  TIP3      H1             18.4339575038       -8.1378363487       32.5395592543  TIP3      1188            0.0000000000
     25816      1380  TIP3      H2             19.5850231811       -8.6267071112       31.6931012239  TIP3      1188            0.0000000000
     25817      1381  TIP3      OH2            15.1277966799       -8.0541961890       25.1370488832  TIP3      1189            0.0000000000
     25818      1381  TIP3      H1             14.4077820130       -7.8231923622       25.7675584445  TIP3      1189            0.0000000000
     25819      1381  TIP3      H2             15.6231053784       -8.7295154204       25.6468798179  TIP3      1189            0.0000000000
     25820      1382  TIP3      OH2            15.0796498644       -9.9090182677       34.2670148344  TIP3      1190            0.0000000000
     25821      1382  TIP3      H1             15.0869499699       -9.0890473267       34.7883902964  TIP3      1190            0.0000000000
     25822      1382  TIP3      H2             14.4502296412       -9.6173113318       33.5748067492  TIP3      1190            0.0000000000
     25823      1383  TIP3      OH2             6.7771102488       -7.4140072881       27.0567699694  TIP3      1191            0.0000000000
     25824      1383  TIP3      H1              6.4419171769       -7.8067036132       26.2155200437  TIP3      1191            0.0000000000
     25825      1383  TIP3      H2              7.3669333007       -8.1158027319       27.4053512471  TIP3      1191            0.0000000000
     25826      1384  TIP3      OH2             8.0774297322       -4.0283567850       29.7535443777  TIP3      1192            0.0000000000
     25827      1384  TIP3      H1              8.0658823069       -4.5449610084       28.9385464685  TIP3      1192            0.0000000000
     25828      1384  TIP3      H2              8.8676303493       -4.3896455833       30.1944994479  TIP3      1192            0.0000000000
     25829      1385  TIP3      OH2             7.0915706693       -8.6690637459       30.7193795713  TIP3      1193            0.0000000000
     25830      1385  TIP3      H1              7.6407864605       -8.5667865342       29.9184375737  TIP3      1193            0.0000000000
     25831      1385  TIP3      H2              7.4814610865       -8.0034088404       31.3291840850  TIP3      1193            0.0000000000
     25832      1386  TIP3      OH2            13.5127636107       -3.0956451409       31.4314168984  TIP3      1194            0.0000000000
     25833      1386  TIP3      H1             13.2244777593       -2.4613287048       32.0944867880  TIP3      1194            0.0000000000
     25834      1386  TIP3      H2             13.2526224413       -3.9494114629       31.8496237175  TIP3      1194            0.0000000000
     25835      1387  TIP3      OH2             8.0443889628       -4.2374208300       35.4159409871  TIP3      1195            0.0000000000
     25836      1387  TIP3      H1              7.6294011969       -3.4985315379       35.9062432332  TIP3      1195            0.0000000000
     25837      1387  TIP3      H2              7.3720980010       -4.4373616019       34.7187027329  TIP3      1195            0.0000000000
     25838      1388  TIP3      OH2            13.9759699748       -8.8377646165       22.8407817692  TIP3      1196            0.0000000000
     25839      1388  TIP3      H1             14.5713789931       -8.6870313458       23.6069719701  TIP3      1196            0.0000000000
     25840      1388  TIP3      H2             14.4498316832       -8.4157108115       22.0906783802  TIP3      1196            0.0000000000
     25841      1389  TIP3      OH2             4.9865227441       -8.0781430904       34.5682470641  TIP3      1197            0.0000000000
     25842      1389  TIP3      H1              5.0391592425       -7.4102076869       35.2777257821  TIP3      1197            0.0000000000
     25843      1389  TIP3      H2              4.0441492365       -7.9897666148       34.3563669844  TIP3      1197            0.0000000000
     25844      1390  TIP3      OH2            11.7351690483       -2.1620042454       26.2578197977  TIP3      1198            0.0000000000
     25845      1390  TIP3      H1             12.1608614217       -1.8605286997       27.0717658442  TIP3      1198            0.0000000000
     25846      1390  TIP3      H2             11.1824903000       -1.4006336310       26.0369465264  TIP3      1198            0.0000000000
     25847      1391  TIP3      OH2             6.2913075347       -2.2036480656       36.1626753209  TIP3      1199            0.0000000000
     25848      1391  TIP3      H1              6.2298584031       -2.3020036879       35.1971289789  TIP3      1199            0.0000000000
     25849      1391  TIP3      H2              5.3615218666       -2.3372003542       36.4305153923  TIP3      1199            0.0000000000
     25850      1392  TIP3      OH2             5.7454341816       -8.3740711273       24.6883584416  TIP3      1200            0.0000000000
     25851      1392  TIP3      H1              5.4650235068       -7.6040204238       24.1392177468  TIP3      1200            0.0000000000
     25852      1392  TIP3      H2              5.0671041243       -9.0201642552       24.4737217013  TIP3      1200            0.0000000000
     25853      1393  TIP3      OH2            18.8277104632       -2.7523830327       21.0813518909  TIP3      1201            0.0000000000
     25854      1393  TIP3      H1             19.0282602608       -1.8311558595       21.2004593060  TIP3      1201            0.0000000000
     25855      1393  TIP3      H2             19.7282517720       -3.1465026223       21.0214206331  TIP3      1201            0.0000000000
     25856      1394  TIP3      OH2             1.8162573693       -5.9634630285       33.5759646878  TIP3      1202            0.0000000000
     25857      1394  TIP3      H1              1.3771235626       -6.0436857435       32.7093594279  TIP3      1202            0.0000000000
     25858      1394  TIP3      H2              1.9017597511       -6.9116213247       33.7887252478  TIP3      1202            0.0000000000
     25859      1395  TIP3      OH2             1.5808763569       -3.2260037989       30.3470737882  TIP3      1203            0.0000000000
     25860      1395  TIP3      H1              2.5393622656       -3.3433292823       30.3287972687  TIP3      1203            0.0000000000
     25861      1395  TIP3      H2              1.4990056177       -2.4094151800       30.8533018450  TIP3      1203            0.0000000000
     25862      1396  TIP3      OH2            19.8233796179       -2.5203606324       36.0407760412  TIP3      1204            0.0000000000
     25863      1396  TIP3      H1             19.7035460069       -3.4809785440       36.0104535924  TIP3      1204            0.0000000000
     25864      1396  TIP3      H2             18.9480162054       -2.2745730324       36.4241378514  TIP3      1204            0.0000000000
     25865      1397  TIP3      OH2            10.7773770606       -2.9840454188       34.8995774563  TIP3      1205            0.0000000000
     25866      1397  TIP3      H1             10.8362779296       -2.1417014339       35.4085540965  TIP3      1205            0.0000000000
     25867      1397  TIP3      H2              9.9049109295       -3.3433473782       35.1513574341  TIP3      1205            0.0000000000
     25868      1398  TIP3      OH2            11.2429323925        0.7627789329       24.7107201920  TIP3      1206            0.0000000000
     25869      1398  TIP3      H1             11.1229067856        0.7004521919       23.7451556693  TIP3      1206            0.0000000000
     25870      1398  TIP3      H2             11.2450681120        1.7257328487       24.8719975046  TIP3      1206            0.0000000000
     25871      1399  TIP3      OH2             4.8559585624       -0.3538197276       26.5580041801  TIP3      1207            0.0000000000
     25872      1399  TIP3      H1              5.0098625552       -0.7890856067       27.4239193283  TIP3      1207            0.0000000000
     25873      1399  TIP3      H2              4.0144843303       -0.7565266647       26.3027830569  TIP3      1207            0.0000000000
     25874      1400  TIP3      OH2            14.1919654073       -0.0557425089       21.6652500088  TIP3      1208            0.0000000000
     25875      1400  TIP3      H1             14.7007777961       -0.7786280666       21.2214870307  TIP3      1208            0.0000000000
     25876      1400  TIP3      H2             14.2950848124       -0.2908335374       22.6031602727  TIP3      1208            0.0000000000
     25877      1401  TIP3      OH2            13.9581173634       -0.0889207043       24.4716255613  TIP3      1209            0.0000000000
     25878      1401  TIP3      H1             12.9935122574       -0.0363309759       24.6254677035  TIP3      1209            0.0000000000
     25879      1401  TIP3      H2             14.2096878916       -0.8387201474       25.0282295270  TIP3      1209            0.0000000000
     25880      1402  TIP3      OH2            16.9673791476      -11.0564819791       36.5070814156  TIP3      1210            0.0000000000
     25881      1402  TIP3      H1             16.4916303174      -10.6053898195       35.7906921355  TIP3      1210            0.0000000000
     25882      1402  TIP3      H2             16.9526067813      -11.9756930718       36.2014406600  TIP3      1210            0.0000000000
     25883      1403  TIP3      OH2             4.1078097579       -4.6469257767       34.5119502520  TIP3      1211            0.0000000000
     25884      1403  TIP3      H1              4.3290370612       -5.0113299141       35.3938975965  TIP3      1211            0.0000000000
     25885      1403  TIP3      H2              3.2380716385       -5.0446202340       34.2996855250  TIP3      1211            0.0000000000
     25886      1404  TIP3      OH2             6.7872132499      -16.1663375002       30.4521829318  TIP3      1212            0.0000000000
     25887      1404  TIP3      H1              5.8827291453      -16.2989038610       30.0936587990  TIP3      1212            0.0000000000
     25888      1404  TIP3      H2              6.6524598764      -15.3417802528       30.9456429708  TIP3      1212            0.0000000000
     25889      1405  TIP3      OH2            11.4318477644      -16.5077265608       33.8221227588  TIP3      1213            0.0000000000
     25890      1405  TIP3      H1             11.8238828786      -16.9300438806       34.6092054358  TIP3      1213            0.0000000000
     25891      1405  TIP3      H2             10.4596812628      -16.6227437597       33.9689870756  TIP3      1213            0.0000000000
     25892      1406  TIP3      OH2            14.7198639425      -12.6593222626       34.7221194560  TIP3      1214            0.0000000000
     25893      1406  TIP3      H1             14.1547812506      -12.8738543393       35.5050313981  TIP3      1214            0.0000000000
     25894      1406  TIP3      H2             14.5342773156      -11.7317722694       34.4958739072  TIP3      1214            0.0000000000
     25895      1407  TIP3      OH2            15.5574726872       -7.9488161985       20.6105956354  TIP3      1215            0.0000000000
     25896      1407  TIP3      H1             15.4478752618       -8.0420516765       19.6481306978  TIP3      1215            0.0000000000
     25897      1407  TIP3      H2             16.3077615256       -7.3546252703       20.6456744663  TIP3      1215            0.0000000000
     25898      1408  TIP3      OH2             6.8925719680      -11.1942179847       31.7208201860  TIP3      1216            0.0000000000
     25899      1408  TIP3      H1              6.1517920120      -11.2080614506       32.3534279071  TIP3      1216            0.0000000000
     25900      1408  TIP3      H2              6.8416400447      -10.2878441657       31.3430524751  TIP3      1216            0.0000000000
     25901      1409  TIP3      OH2             6.8376126817      -11.0893078094       26.5797487210  TIP3      1217            0.0000000000
     25902      1409  TIP3      H1              5.8996756810      -11.3454436032       26.4535024261  TIP3      1217            0.0000000000
     25903      1409  TIP3      H2              7.2221235126      -11.3920843734       25.7347476990  TIP3      1217            0.0000000000
     25904      1410  TIP3      OH2            12.3653918580      -10.5716910069       25.3284630368  TIP3      1218            0.0000000000
     25905      1410  TIP3      H1             11.9801555565       -9.7727339450       24.9721294512  TIP3      1218            0.0000000000
     25906      1410  TIP3      H2             13.0854588766      -10.7596054320       24.6863958726  TIP3      1218            0.0000000000
     25907      1411  TIP3      OH2            11.4240903128      -10.3703448925       36.7858389416  TIP3      1219            0.0000000000
     25908      1411  TIP3      H1             10.8986032755      -11.1455890319       37.0971210981  TIP3      1219            0.0000000000
     25909      1411  TIP3      H2             12.2618823814      -10.4908464495       37.2629507737  TIP3      1219            0.0000000000
     25910      1412  TIP3      OH2            13.4013578534      -11.0909773189       28.1886226033  TIP3      1220            0.0000000000
     25911      1412  TIP3      H1             13.1303833603      -10.5351863992       27.4407551960  TIP3      1220            0.0000000000
     25912      1412  TIP3      H2             13.5096127920      -11.9441855295       27.7254093959  TIP3      1220            0.0000000000
     25913      1413  TIP3      OH2             4.5105734574      -10.9498652885       33.3939427689  TIP3      1221            0.0000000000
     25914      1413  TIP3      H1              4.5942802998      -10.5417757985       34.2733509457  TIP3      1221            0.0000000000
     25915      1413  TIP3      H2              4.0708451985      -11.7886269125       33.6051455302  TIP3      1221            0.0000000000
     25916      1414  TIP3      OH2             1.1681146073      -13.8437960836       27.3781565533  TIP3      1222            0.0000000000
     25917      1414  TIP3      H1              1.8493746567      -13.8794127001       28.0801790309  TIP3      1222            0.0000000000
     25918      1414  TIP3      H2              1.6212336592      -14.2169750567       26.5984114602  TIP3      1222            0.0000000000
     25919      1415  TIP3      OH2             2.4999834176      -13.0960881820       22.7823437473  TIP3      1223            0.0000000000
     25920      1415  TIP3      H1              2.9374613922      -12.4794914512       22.1733784957  TIP3      1223            0.0000000000
     25921      1415  TIP3      H2              1.7302148019      -12.5392077201       23.0334394239  TIP3      1223            0.0000000000
     25922      1416  TIP3      OH2            12.5991380872       -9.5061206381       32.7472578214  TIP3      1224            0.0000000000
     25923      1416  TIP3      H1             12.9812065155      -10.1922314729       32.1632606525  TIP3      1224            0.0000000000
     25924      1416  TIP3      H2             12.1339145296      -10.0336962481       33.4208533229  TIP3      1224            0.0000000000
     25925      1417  TIP3      OH2             9.3919007985      -13.5244379747       27.5948844770  TIP3      1225            0.0000000000
     25926      1417  TIP3      H1              8.4545195140      -13.5218268366       27.8894608420  TIP3      1225            0.0000000000
     25927      1417  TIP3      H2              9.8819685911      -13.7012935727       28.4109263029  TIP3      1225            0.0000000000
     25928      1418  TIP3      OH2             4.2049205823      -11.9765668494       26.4483036756  TIP3      1226            0.0000000000
     25929      1418  TIP3      H1              3.3128547401      -11.8379996134       26.0647478462  TIP3      1226            0.0000000000
     25930      1418  TIP3      H2              4.4827628241      -12.8319810077       26.0793813387  TIP3      1226            0.0000000000
     25931      1419  TIP3      OH2             7.8349231028      -11.8989853132       24.0861027011  TIP3      1227            0.0000000000
     25932      1419  TIP3      H1              8.7949778055      -11.8522246317       24.2646942865  TIP3      1227            0.0000000000
     25933      1419  TIP3      H2              7.6493839730      -11.2140564176       23.4457645759  TIP3      1227            0.0000000000
     25934      1420  TIP3      OH2            13.8051163550      -14.2924886597       30.8273445892  TIP3      1228            0.0000000000
     25935      1420  TIP3      H1             13.1227399763      -14.2424285312       31.5314345334  TIP3      1228            0.0000000000
     25936      1420  TIP3      H2             13.2989713899      -14.5476698331       30.0425591443  TIP3      1228            0.0000000000
     25937      1421  TIP3      OH2            17.0049221137        1.3424962304       37.1576391129  TIP3      1229            0.0000000000
     25938      1421  TIP3      H1             17.2687495465        1.7123284401       36.2994603116  TIP3      1229            0.0000000000
     25939      1421  TIP3      H2             17.7318271126        1.6644741787       37.7118457263  TIP3      1229            0.0000000000
     25940      1422  TIP3      OH2             4.6865647206       -6.1822022810       36.7229838247  TIP3      1230            0.0000000000
     25941      1422  TIP3      H1              5.4067311995       -5.9366379976       37.3266521976  TIP3      1230            0.0000000000
     25942      1422  TIP3      H2              3.9135220228       -6.1015699552       37.3236541855  TIP3      1230            0.0000000000
     25943      1423  TIP3      OH2            10.6869454911      -10.7685171081       29.4603662154  TIP3      1231            0.0000000000
     25944      1423  TIP3      H1             11.2915958334      -11.3180918834       28.9515791668  TIP3      1231            0.0000000000
     25945      1423  TIP3      H2             10.5368992961      -11.3073238768       30.2518189199  TIP3      1231            0.0000000000
     25946      1424  TIP3      OH2             5.6934524862      -14.6183226757       25.9113380332  TIP3      1232            0.0000000000
     25947      1424  TIP3      H1              5.3891565734      -15.5458842044       25.8865252250  TIP3      1232            0.0000000000
     25948      1424  TIP3      H2              6.5007660994      -14.6896787305       25.3818796195  TIP3      1232            0.0000000000
     25949      1425  TIP3      OH2             9.3250050550      -12.4453927102       31.8917348890  TIP3      1233            0.0000000000
     25950      1425  TIP3      H1              8.5000681967      -11.9257747595       31.9807055320  TIP3      1233            0.0000000000
     25951      1425  TIP3      H2              9.8800319203      -12.0925180051       32.6141329681  TIP3      1233            0.0000000000
     25952      1426  TIP3      OH2            17.1018751239       -7.0186454531       32.3924694841  TIP3      1234            0.0000000000
     25953      1426  TIP3      H1             17.6635219411       -6.5350505108       31.7596722031  TIP3      1234            0.0000000000
     25954      1426  TIP3      H2             16.2409804381       -6.9743516892       31.9292028258  TIP3      1234            0.0000000000
     25955      1427  TIP3      OH2            11.4060662212       -5.9506835502       34.8349590593  TIP3      1235            0.0000000000
     25956      1427  TIP3      H1             11.0586380753       -6.3809710533       35.6231399406  TIP3      1235            0.0000000000
     25957      1427  TIP3      H2             11.1491048815       -5.0295827732       34.9418987362  TIP3      1235            0.0000000000
     25958      1428  TIP3      OH2            14.4400791405      -11.4669665508       23.5198148904  TIP3      1236            0.0000000000
     25959      1428  TIP3      H1             15.3674610754      -11.6439379304       23.7762019882  TIP3      1236            0.0000000000
     25960      1428  TIP3      H2             14.5271981117      -10.7573252087       22.8650534568  TIP3      1236            0.0000000000
     25961      1429  TIP3      OH2             5.0310751488       -6.8225245758       29.3877079649  TIP3      1237            0.0000000000
     25962      1429  TIP3      H1              5.7033367606       -6.9087376132       28.6828603816  TIP3      1237            0.0000000000
     25963      1429  TIP3      H2              5.0851189524       -7.6827677302       29.8425589019  TIP3      1237            0.0000000000
     25964      1430  TIP3      OH2             2.0133625547       -8.4250884164       34.6513118399  TIP3      1238            0.0000000000
     25965      1430  TIP3      H1              2.1829889611       -8.8694837233       35.5048699004  TIP3      1238            0.0000000000
     25966      1430  TIP3      H2              1.3926805016       -9.0343092637       34.2121983664  TIP3      1238            0.0000000000
     25967      1431  TIP3      OH2             9.0251884880       -8.8632564627       36.8261337445  TIP3      1239            0.0000000000
     25968      1431  TIP3      H1              8.7062245648       -9.1730833530       35.9673719543  TIP3      1239            0.0000000000
     25969      1431  TIP3      H2              9.9490067247       -9.1887738104       36.8253490510  TIP3      1239            0.0000000000
     25970      1432  TIP3      OH2            13.7127402678       -3.5278797711       34.7832813907  TIP3      1240            0.0000000000
     25971      1432  TIP3      H1             12.7874769953       -3.3500679118       34.5489108378  TIP3      1240            0.0000000000
     25972      1432  TIP3      H2             13.6791432917       -3.2349221612       35.7139071465  TIP3      1240            0.0000000000
     25973      1433  TIP3      OH2            19.3668851918       -5.4847443816       35.9750096156  TIP3      1241            0.0000000000
     25974      1433  TIP3      H1             18.4740964979       -5.2653149633       35.6100402853  TIP3      1241            0.0000000000
     25975      1433  TIP3      H2             19.9122930808       -5.5379492386       35.1631328109  TIP3      1241            0.0000000000
     25976      1434  TIP3      OH2            17.6492732514       -2.5079501718       23.5559473134  TIP3      1242            0.0000000000
     25977      1434  TIP3      H1             17.3281196578       -3.3452030267       23.9057169100  TIP3      1242            0.0000000000
     25978      1434  TIP3      H2             17.9824104711       -2.7428349489       22.6673474749  TIP3      1242            0.0000000000
     25979      1435  TIP3      OH2            14.8774340342       -7.7045354269       30.6777225108  TIP3      1243            0.0000000000
     25980      1435  TIP3      H1             13.9377892794       -7.9117374399       30.5625242315  TIP3      1243            0.0000000000
     25981      1435  TIP3      H2             15.3079387735       -8.4629992188       30.2368954571  TIP3      1243            0.0000000000
     25982      1436  TIP3      OH2             7.3896199145       -3.3721257702       26.7832921319  TIP3      1244            0.0000000000
     25983      1436  TIP3      H1              7.9038614982       -2.5756180928       26.5648638976  TIP3      1244            0.0000000000
     25984      1436  TIP3      H2              6.5168603044       -3.1325406101       26.4517880935  TIP3      1244            0.0000000000
     25985      1437  TIP3      OH2             8.8373919344       -5.7154383552       26.3374364414  TIP3      1245            0.0000000000
     25986      1437  TIP3      H1              8.5092674407       -4.7955227982       26.3751366848  TIP3      1245            0.0000000000
     25987      1437  TIP3      H2              8.0841851591       -6.1994143198       26.7279525364  TIP3      1245            0.0000000000
     25988      1438  TIP3      OH2             9.2597716734       -1.5218480568       32.7060337767  TIP3      1246            0.0000000000
     25989      1438  TIP3      H1              9.7220968750       -0.7181557336       32.4153491384  TIP3      1246            0.0000000000
     25990      1438  TIP3      H2              9.8778212274       -1.8651652755       33.3771852686  TIP3      1246            0.0000000000
     25991      1439  TIP3      OH2             7.4855183878       -0.7367056910       25.8578922308  TIP3      1247            0.0000000000
     25992      1439  TIP3      H1              6.5293448015       -0.5763269879       25.9772236665  TIP3      1247            0.0000000000
     25993      1439  TIP3      H2              7.8602430600        0.1122562879       26.1557471639  TIP3      1247            0.0000000000
     25994      1440  TIP3      OH2            12.7791684116       -5.5301154827       32.3186375802  TIP3      1248            0.0000000000
     25995      1440  TIP3      H1             12.4610060283       -5.7183588237       33.2262156246  TIP3      1248            0.0000000000
     25996      1440  TIP3      H2             13.4249172718       -6.2358708996       32.1533457106  TIP3      1248            0.0000000000
     25997      1441  TIP3      OH2            15.1137010129       -4.4188347759       21.4828393683  TIP3      1249            0.0000000000
     25998      1441  TIP3      H1             15.3998136727       -4.9661588584       22.2293338333  TIP3      1249            0.0000000000
     25999      1441  TIP3      H2             14.1757453138       -4.6464311113       21.4165633437  TIP3      1249            0.0000000000
     26000      1442  TIP3      OH2            15.6051616911       -0.9432523230       34.8075539078  TIP3      1250            0.0000000000
     26001      1442  TIP3      H1             14.9120631257       -1.4371743652       34.3298709199  TIP3      1250            0.0000000000
     26002      1442  TIP3      H2             15.7864203570       -0.2431054949       34.1462815857  TIP3      1250            0.0000000000
     26003      1443  TIP3      OH2             3.6632736294      -13.6893686914       34.1974988553  TIP3      1251            0.0000000000
     26004      1443  TIP3      H1              2.7568347903      -13.3374663079       34.1792264511  TIP3      1251            0.0000000000
     26005      1443  TIP3      H2              3.5519674230      -14.5343434053       34.6612987008  TIP3      1251            0.0000000000
     26006      1444  TIP3      OH2            15.8977203766       -5.8146227186       23.6852046513  TIP3      1252            0.0000000000
     26007      1444  TIP3      H1             15.6792234943       -6.6240397176       24.1917322866  TIP3      1252            0.0000000000
     26008      1444  TIP3      H2             16.8702978373       -5.7912599128       23.7916279883  TIP3      1252            0.0000000000
     26009      1445  TIP3      OH2             3.2745051466       -1.9064345814       32.6280189725  TIP3      1253            0.0000000000
     26010      1445  TIP3      H1              3.5808458652       -2.8261036623       32.6335555784  TIP3      1253            0.0000000000
     26011      1445  TIP3      H2              3.5387555157       -1.6144394386       33.5076610011  TIP3      1253            0.0000000000
     26012      1446  TIP3      OH2             4.6135149306       -6.6121029555       22.9540840373  TIP3      1254            0.0000000000
     26013      1446  TIP3      H1              3.8401115250       -6.2203743937       23.3846050259  TIP3      1254            0.0000000000
     26014      1446  TIP3      H2              5.0748309168       -5.8746294709       22.5305207284  TIP3      1254            0.0000000000
     26015      1447  TIP3      OH2            12.3948667377      -13.9160971147       33.1649453367  TIP3      1255            0.0000000000
     26016      1447  TIP3      H1             13.1111347789      -13.8562165741       33.8062313659  TIP3      1255            0.0000000000
     26017      1447  TIP3      H2             12.0123959041      -14.7929631891       33.3678869356  TIP3      1255            0.0000000000
     26018      1448  TIP3      OH2            13.2047618572      -14.3580930757       24.2026185319  TIP3      1256            0.0000000000
     26019      1448  TIP3      H1             13.3580895750      -13.7951164513       23.4352614307  TIP3      1256            0.0000000000
     26020      1448  TIP3      H2             13.7229606232      -13.9086649461       24.8868382199  TIP3      1256            0.0000000000
     26021      1449  TIP3      OH2            10.8321601646       -2.1784971538       23.0662338663  TIP3      1257            0.0000000000
     26022      1449  TIP3      H1              9.9785079260       -1.6982711007       23.1194412093  TIP3      1257            0.0000000000
     26023      1449  TIP3      H2             11.3365489585       -1.6643177883       22.4250791417  TIP3      1257            0.0000000000
     26024      1450  TIP3      OH2            10.3130948645      -12.5020683570       25.0409729929  TIP3      1258            0.0000000000
     26025      1450  TIP3      H1             11.1702136482      -12.0428161057       25.1367753186  TIP3      1258            0.0000000000
     26026      1450  TIP3      H2             10.0859462481      -12.7449192058       25.9632517566  TIP3      1258            0.0000000000
     26027      1451  TIP3      OH2            10.9242146121      -11.5699846795       34.2611366889  TIP3      1259            0.0000000000
     26028      1451  TIP3      H1             10.9980520915      -11.0126386742       35.0592576984  TIP3      1259            0.0000000000
     26029      1451  TIP3      H2             11.5860414273      -12.2647744795       34.3556143651  TIP3      1259            0.0000000000
     26030      1452  TIP3      OH2            11.2174688805      -15.5284164275       25.9352194240  TIP3      1260            0.0000000000
     26031      1452  TIP3      H1             10.8986983548      -14.8924684624       26.5996438734  TIP3      1260            0.0000000000
     26032      1452  TIP3      H2             11.9154078831      -14.9863071152       25.4964380761  TIP3      1260            0.0000000000
     26033      1453  TIP3      OH2             8.2188045911       -1.1380351013       23.0917760880  TIP3      1261            0.0000000000
     26034      1453  TIP3      H1              8.3441839207       -0.3369030136       22.5404180474  TIP3      1261            0.0000000000
     26035      1453  TIP3      H2              7.9480638939       -0.7761589683       23.9522292567  TIP3      1261            0.0000000000
     26036      1454  TIP3      OH2            17.0995652293      -13.7029641443       35.1051999535  TIP3      1262            0.0000000000
     26037      1454  TIP3      H1             16.1729420520      -13.3852936548       34.9760866359  TIP3      1262            0.0000000000
     26038      1454  TIP3      H2             17.4016703390      -13.7148875621       34.1814534675  TIP3      1262            0.0000000000
     26039      1455  TIP3      OH2            15.7014213548       -9.9024517023       29.1521435087  TIP3      1263            0.0000000000
     26040      1455  TIP3      H1             14.8967323001      -10.3641842248       28.8476677586  TIP3      1263            0.0000000000
     26041      1455  TIP3      H2             16.1963220320      -10.5988525386       29.6328158887  TIP3      1263            0.0000000000
     26042      1456  TIP3      OH2             3.4465905825      -11.2990920484       20.8740303031  TIP3      1264            0.0000000000
     26043      1456  TIP3      H1              3.4549484004      -10.3375269384       20.9945027601  TIP3      1264            0.0000000000
     26044      1456  TIP3      H2              2.5727019519      -11.4712005638       20.5045227446  TIP3      1264            0.0000000000
     26045      1457  TIP3      OH2            16.7781326739       -0.6505360005       30.7855671938  TIP3      1265            0.0000000000
     26046      1457  TIP3      H1             16.6899207321        0.0276566854       30.0874855103  TIP3      1265            0.0000000000
     26047      1457  TIP3      H2             17.7425794465       -0.6010870310       30.9570458784  TIP3      1265            0.0000000000
     26048      1458  TIP3      OH2             4.2691069317      -16.5324272896       29.5938610519  TIP3      1266            0.0000000000
     26049      1458  TIP3      H1              4.0772745577      -16.5160147018       28.6293275172  TIP3      1266            0.0000000000
     26050      1458  TIP3      H2              3.8567495729      -17.3867833791       29.8410260837  TIP3      1266            0.0000000000
     26051      1459  TIP3      OH2             3.1770260559       -2.6134889486       25.6775808057  TIP3      1267            0.0000000000
     26052      1459  TIP3      H1              2.3493561088       -2.1163965703       25.7143923541  TIP3      1267            0.0000000000
     26053      1459  TIP3      H2              3.7367654084       -2.1236195722       25.0704033648  TIP3      1267            0.0000000000
     26054      1460  TIP3      OH2             2.4276347492        0.0410152194       37.0185638210  TIP3      1268            0.0000000000
     26055      1460  TIP3      H1              3.0342704452       -0.1594995567       37.7575871503  TIP3      1268            0.0000000000
     26056      1460  TIP3      H2              2.0297952302       -0.8284435645       36.8373811143  TIP3      1268            0.0000000000
     26057      1461  TIP3      OH2             7.1124828711       -1.0395389648       38.6262528844  TIP3      1269            0.0000000000
     26058      1461  TIP3      H1              7.8684949516       -1.5402396055       38.9600392563  TIP3      1269            0.0000000000
     26059      1461  TIP3      H2              7.0854518878       -1.3199231295       37.6902075916  TIP3      1269            0.0000000000
     26060      1462  TIP3      OH2            13.6146509128       -2.6566243957       37.3770759833  TIP3      1270            0.0000000000
     26061      1462  TIP3      H1             13.2996165109       -3.5440414077       37.6514660803  TIP3      1270            0.0000000000
     26062      1462  TIP3      H2             14.3834180357       -2.5380723052       37.9696483447  TIP3      1270            0.0000000000
     26063      1463  TIP3      OH2            15.8592038242       -1.7199373908       20.3200086756  TIP3      1271            0.0000000000
     26064      1463  TIP3      H1             16.0491060092       -2.6048409589       20.6852630288  TIP3      1271            0.0000000000
     26065      1463  TIP3      H2             16.5554439548       -1.5570780001       19.6895839876  TIP3      1271            0.0000000000
     26066      1464  TIP3      OH2             2.3401372798       -6.1874713555       38.0158631125  TIP3      1272            0.0000000000
     26067      1464  TIP3      H1              2.5068128442       -7.0989292686       37.7142813700  TIP3      1272            0.0000000000
     26068      1464  TIP3      H2              1.6006261634       -5.9295752387       37.4410816459  TIP3      1272            0.0000000000
     26069      1465  TIP3      OH2             9.0584311610       -6.1979382116       37.4000603285  TIP3      1273            0.0000000000
     26070      1465  TIP3      H1              8.7230417780       -5.8862624823       36.5368791710  TIP3      1273            0.0000000000
     26071      1465  TIP3      H2              9.1321961565       -7.1763421870       37.2920983183  TIP3      1273            0.0000000000
     26072      1466  TIP3      OH2            14.7543348152       -6.3396264454       34.7929590320  TIP3      1274            0.0000000000
     26073      1466  TIP3      H1             15.5422741479       -5.7569343326       34.7308132126  TIP3      1274            0.0000000000
     26074      1466  TIP3      H2             14.0547816790       -5.6716451893       34.8286301684  TIP3      1274            0.0000000000
     26075      1467  TIP3      OH2             3.2645881076       -8.9612481633       37.3961620034  TIP3      1275            0.0000000000
     26076      1467  TIP3      H1              3.6802304809       -9.8248328426       37.3049352452  TIP3      1275            0.0000000000
     26077      1467  TIP3      H2              3.0291435909       -8.9563396786       38.3379447062  TIP3      1275            0.0000000000
     26078      1468  TIP3      OH2             7.1604361660      -10.0181503273       34.7487918060  TIP3      1276            0.0000000000
     26079      1468  TIP3      H1              6.5642662983       -9.2966404907       35.0057785793  TIP3      1276            0.0000000000
     26080      1468  TIP3      H2              7.5584234483       -9.6500703811       33.9415687593  TIP3      1276            0.0000000000
     26081      1469  TIP3      OH2            12.2350000881       -7.4483134561       38.0861546400  TIP3      1277            0.0000000000
     26082      1469  TIP3      H1             13.1917911034       -7.4613431286       37.9628392133  TIP3      1277            0.0000000000
     26083      1469  TIP3      H2             12.0633987420       -8.2150132471       38.6560195282  TIP3      1277            0.0000000000
     26084      1470  TIP3      OH2             7.5664438096      -12.6400937162       35.8065255141  TIP3      1278            0.0000000000
     26085      1470  TIP3      H1              7.6836274171      -13.3487060884       35.1471197247  TIP3      1278            0.0000000000
     26086      1470  TIP3      H2              7.5224169957      -11.8289461481       35.2577016614  TIP3      1278            0.0000000000
     26087      1471  TIP3      OH2             7.9712268112      -14.2574980456       33.3611840066  TIP3      1279            0.0000000000
     26088      1471  TIP3      H1              8.4792045904      -13.7921080552       32.6543472700  TIP3      1279            0.0000000000
     26089      1471  TIP3      H2              7.0775564848      -14.3355642250       32.9552682344  TIP3      1279            0.0000000000
     26090      1472  TIP3      OH2             9.5075168167       -8.7668092752       33.6025206109  TIP3      1280            0.0000000000
     26091      1472  TIP3      H1             10.2639574510       -8.9324847710       33.0312506590  TIP3      1280            0.0000000000
     26092      1472  TIP3      H2              9.1441730796       -7.9322705377       33.2659018405  TIP3      1280            0.0000000000
     26093      1473  TIP3      OH2            13.9055187005      -11.0180212221       38.5691647981  TIP3      1281            0.0000000000
     26094      1473  TIP3      H1             14.1407815224      -11.9521048641       38.4737293468  TIP3      1281            0.0000000000
     26095      1473  TIP3      H2             14.7693720821      -10.5733174563       38.5984921981  TIP3      1281            0.0000000000
     26096      1474  TIP3      OH2            15.2458075394       -8.2237195511       36.7305497020  TIP3      1282            0.0000000000
     26097      1474  TIP3      H1             14.9945244726       -7.5013540117       36.1144054162  TIP3      1282            0.0000000000
     26098      1474  TIP3      H2             16.2042855035       -8.2537706129       36.5424761325  TIP3      1282            0.0000000000
     26099      1475  TIP3      OH2             6.0286940011      -11.3883576819       37.7272854893  TIP3      1283            0.0000000000
     26100      1475  TIP3      H1              5.2594560517      -11.9660523656       37.5587626440  TIP3      1283            0.0000000000
     26101      1475  TIP3      H2              6.6829119191      -11.7579923415       37.1054024516  TIP3      1283            0.0000000000
     26102      1476  TIP3      OH2             8.7609459173      -16.8206791551       33.7470040579  TIP3      1284            0.0000000000
     26103      1476  TIP3      H1              8.5772682624      -15.8568602489       33.6507410408  TIP3      1284            0.0000000000
     26104      1476  TIP3      H2              8.0106432525      -17.1875205754       33.2474092576  TIP3      1284            0.0000000000
     26105      1477  TIP3      OH2            10.0298428143      -12.4911772215       37.3780543849  TIP3      1285            0.0000000000
     26106      1477  TIP3      H1              9.7149450669      -12.7244080332       38.2730902198  TIP3      1285            0.0000000000
     26107      1477  TIP3      H2              9.2485990327      -12.6943630062       36.8364698725  TIP3      1285            0.0000000000
     26108      1478  TIP3      OH2            12.7512473450      -13.3462693650       36.4687821491  TIP3      1286            0.0000000000
     26109      1478  TIP3      H1             11.7859816814      -13.2941201981       36.5764957824  TIP3      1286            0.0000000000
     26110      1478  TIP3      H2             13.0149148740      -13.9882706264       37.1558496363  TIP3      1286            0.0000000000
     26111      1479  TIP3      OH2            14.3325375593      -14.7282924419       38.3673059296  TIP3      1287            0.0000000000
     26112      1479  TIP3      H1             14.2847042570      -15.7063772261       38.3976465429  TIP3      1287            0.0000000000
     26113      1479  TIP3      H2             14.0840396167      -14.4364003359       39.2663475256  TIP3      1287            0.0000000000
     26114      1480  TIP3      OH2             4.1041257265      -13.4530544520       37.4839699349  TIP3      1288            0.0000000000
     26115      1480  TIP3      H1              4.3551250040      -14.1876735868       36.8965101771  TIP3      1288            0.0000000000
     26116      1480  TIP3      H2              4.0156928081      -13.9006730020       38.3470786685  TIP3      1288            0.0000000000
     26117      1481  TIP3      OH2             8.9736417530      -17.4270623485       36.4495769289  TIP3      1289            0.0000000000
     26118      1481  TIP3      H1              9.6533360652      -18.1304360810       36.4330067289  TIP3      1289            0.0000000000
     26119      1481  TIP3      H2              8.8592142141      -17.2847952209       35.4894140008  TIP3      1289            0.0000000000
     26120      1482  TIP3      OH2             9.3359162414      -15.8146223980       38.5663694347  TIP3      1290            0.0000000000
     26121      1482  TIP3      H1              9.1624421378      -16.3201943588       37.7336019079  TIP3      1290            0.0000000000
     26122      1482  TIP3      H2              8.7365272508      -15.0499891791       38.4657479697  TIP3      1290            0.0000000000
     26123      1483  TIP3      OH2             8.8204101502        1.1891787091       21.7756532032  TIP3      1291            0.0000000000
     26124      1483  TIP3      H1              9.7952653828        1.1541364445       21.7679175483  TIP3      1291            0.0000000000
     26125      1483  TIP3      H2              8.6026720856        1.7198612679       21.0096475292  TIP3      1291            0.0000000000
     26126      1484  TIP3      OH2             2.4143847351       -4.3274812779       21.2227127311  TIP3      1292            0.0000000000
     26127      1484  TIP3      H1              3.3554932396       -4.2040361022       21.3827825147  TIP3      1292            0.0000000000
     26128      1484  TIP3      H2              2.4364334405       -4.9639243607       20.4961167814  TIP3      1292            0.0000000000
     26129      1485  TIP3      OH2             1.1228669394        1.0681569576       26.1865390300  TIP3      1293            0.0000000000
     26130      1485  TIP3      H1              0.4255487093        0.5863033794       25.6835411334  TIP3      1293            0.0000000000
     26131      1485  TIP3      H2              1.4090288644        0.4095548983       26.8405560337  TIP3      1293            0.0000000000
     26132      1486  TIP3      OH2             1.9737896133       -0.8169061809       28.0627512326  TIP3      1294            0.0000000000
     26133      1486  TIP3      H1              1.5998715622       -1.6860551578       28.2639814463  TIP3      1294            0.0000000000
     26134      1486  TIP3      H2              2.1838425365       -0.4747970937       28.9480583671  TIP3      1294            0.0000000000
     26135      1487  TIP3      OH2            19.4970826234       -0.0092655402       30.9791563083  TIP3      1295            0.0000000000
     26136      1487  TIP3      H1             19.5280238139        0.1455635409       31.9385397665  TIP3      1295            0.0000000000
     26137      1487  TIP3      H2             20.2028227858        0.5692841010       30.6733818824  TIP3      1295            0.0000000000
     26138      1488  TIP3      OH2            19.0690409904       -0.4142628130       33.9270919737  TIP3      1296            0.0000000000
     26139      1488  TIP3      H1             18.6006425326       -1.1847741282       33.5444815238  TIP3      1296            0.0000000000
     26140      1488  TIP3      H2             19.5584101286       -0.8609380863       34.6381231498  TIP3      1296            0.0000000000
     26141      1489  TIP3      OH2            17.5174466764       -4.6952728806       38.5993784788  TIP3      1297            0.0000000000
     26142      1489  TIP3      H1             16.6105937079       -4.7206343676       38.9627094541  TIP3      1297            0.0000000000
     26143      1489  TIP3      H2             17.8884944522       -3.8883440137       39.0089696722  TIP3      1297            0.0000000000
     26144      1490  TIP3      OH2            18.8258297481       -6.4012904376       24.0242918759  TIP3      1298            0.0000000000
     26145      1490  TIP3      H1             19.6500757439       -5.9341479228       24.1993412301  TIP3      1298            0.0000000000
     26146      1490  TIP3      H2             18.8462111612       -7.1084484204       24.7040135733  TIP3      1298            0.0000000000
     26147      1491  TIP3      OH2            19.2060151255       -8.3116993503       25.8942492647  TIP3      1299            0.0000000000
     26148      1491  TIP3      H1             18.4590124435       -8.8146357450       26.2717814250  TIP3      1299            0.0000000000
     26149      1491  TIP3      H2             19.8005345619       -8.1909834920       26.6535161766  TIP3      1299            0.0000000000
     26150      1492  TIP3      OH2            18.9484677247       -5.5929094790       30.9017826413  TIP3      1300            0.0000000000
     26151      1492  TIP3      H1             19.7615225995       -5.9693659646       30.5199475319  TIP3      1300            0.0000000000
     26152      1492  TIP3      H2             19.0935901644       -4.6394611015       30.7333145617  TIP3      1300            0.0000000000
     26153      1493  TIP3      OH2            17.5097603413       -2.6870456414       33.1674990766  TIP3      1301            0.0000000000
     26154      1493  TIP3      H1             16.8175463147       -2.3454470698       33.7571117078  TIP3      1301            0.0000000000
     26155      1493  TIP3      H2             16.9611251839       -3.0889161555       32.4598704154  TIP3      1301            0.0000000000
     26156      1494  TIP3      OH2            19.4820768354       -8.4497814298       22.3018060107  TIP3      1302            0.0000000000
     26157      1494  TIP3      H1             18.9356712836       -8.0836654086       21.6143843453  TIP3      1302            0.0000000000
     26158      1494  TIP3      H2             19.4472059153       -7.7434053325       22.9659692472  TIP3      1302            0.0000000000
     26159      1495  TIP3      OH2            16.9485076360       -9.7778858794       26.4798054041  TIP3      1303            0.0000000000
     26160      1495  TIP3      H1             16.8618599777      -10.7464826199       26.4275842538  TIP3      1303            0.0000000000
     26161      1495  TIP3      H2             16.6602697118       -9.5835721891       27.3858625584  TIP3      1303            0.0000000000
     26162      1496  TIP3      OH2             2.0176612095       -7.7271963133       30.5468428678  TIP3      1304            0.0000000000
     26163      1496  TIP3      H1              2.1940973721       -7.8089583721       29.5844440023  TIP3      1304            0.0000000000
     26164      1496  TIP3      H2              2.9113814752       -7.9061782638       30.8981403409  TIP3      1304            0.0000000000
     26165      1497  TIP3      OH2            17.8732307255       -7.8471553777       36.1751597429  TIP3      1305            0.0000000000
     26166      1497  TIP3      H1             18.4832636744       -8.6039944128       36.3073365093  TIP3      1305            0.0000000000
     26167      1497  TIP3      H2             18.4774023613       -7.0745707271       36.1796069337  TIP3      1305            0.0000000000
     26168      1498  TIP3      OH2            19.3750718033       -9.9681523628       36.8258520413  TIP3      1306            0.0000000000
     26169      1498  TIP3      H1             18.4920187921      -10.3666899353       36.6707485075  TIP3      1306            0.0000000000
     26170      1498  TIP3      H2             19.9452374721      -10.7510441209       36.7489302217  TIP3      1306            0.0000000000
     26171      1499  TIP3      OH2            16.6944905760      -12.2329309467       24.9690607745  TIP3      1307            0.0000000000
     26172      1499  TIP3      H1             17.0015103059      -13.1682473410       25.0234313298  TIP3      1307            0.0000000000
     26173      1499  TIP3      H2             17.4594591715      -11.8318915826       24.5279807332  TIP3      1307            0.0000000000
     26174      1500  TIP3      OH2            17.3307316355      -11.6989328821       30.3785355779  TIP3      1308            0.0000000000
     26175      1500  TIP3      H1             18.2886169624      -11.4577355282       30.3708732876  TIP3      1308            0.0000000000
     26176      1500  TIP3      H2             17.1255514809      -11.5464346652       31.3172319700  TIP3      1308            0.0000000000
     26177      1501  TIP3      OH2            17.3883669084      -10.9686078677       33.1730536488  TIP3      1309            0.0000000000
     26178      1501  TIP3      H1             16.5030335924      -10.6809814599       33.4835968869  TIP3      1309            0.0000000000
     26179      1501  TIP3      H2             17.8192154822      -10.1083110296       32.9460311749  TIP3      1309            0.0000000000
     26180      1502  TIP3      OH2             1.6384931389      -12.4237790427       36.7055110229  TIP3      1310            0.0000000000
     26181      1502  TIP3      H1              2.5750537280      -12.6408270198       36.8908386882  TIP3      1310            0.0000000000
     26182      1502  TIP3      H2              1.1781885219      -13.2490759659       36.9673182213  TIP3      1310            0.0000000000
     26183      1503  TIP3      OH2            19.6575329200      -16.9016679681       38.5066965834  TIP3      1311            0.0000000000
     26184      1503  TIP3      H1             20.0099885425      -17.5628846257       37.8861504302  TIP3      1311            0.0000000000
     26185      1503  TIP3      H2             19.7594832240      -16.0872313924       37.9745252309  TIP3      1311            0.0000000000
     26186      1504  TIP3      OH2            17.2856416719      -14.9291962781       25.0423899306  TIP3      1312            0.0000000000
     26187      1504  TIP3      H1             17.5586831662      -15.4275894345       25.8313457160  TIP3      1312            0.0000000000
     26188      1504  TIP3      H2             16.7563153570      -15.5800042463       24.5347583588  TIP3      1312            0.0000000000
     26189      1505  TIP3      OH2             2.8344558448      -14.1374143535       29.5477816917  TIP3      1313            0.0000000000
     26190      1505  TIP3      H1              3.2960494381      -14.9635961702       29.8042070702  TIP3      1313            0.0000000000
     26191      1505  TIP3      H2              3.3863809610      -13.4437558096       29.9337593338  TIP3      1313            0.0000000000
     26192      1506  TIP3      OH2             1.1181117707      -11.1353739779       30.5835330270  TIP3      1314            0.0000000000
     26193      1506  TIP3      H1              1.6821449855      -11.3865662285       29.8239244346  TIP3      1314            0.0000000000
     26194      1506  TIP3      H2              1.5864161206      -10.3322855368       30.8534961368  TIP3      1314            0.0000000000
     26195      1507  TIP3      OH2            19.1795015648      -14.8040172671       36.8615004173  TIP3      1315            0.0000000000
     26196      1507  TIP3      H1             18.2428449141      -14.5324825342       36.8055709768  TIP3      1315            0.0000000000
     26197      1507  TIP3      H2             19.2119799729      -15.3551667063       36.0650768085  TIP3      1315            0.0000000000
     26198      1508  TIP3      OH2             1.4879895457      -14.8385042135       24.6763099815  TIP3      1316            0.0000000000
     26199      1508  TIP3      H1              0.5416168131      -14.6940298923       24.5185500004  TIP3      1316            0.0000000000
     26200      1508  TIP3      H2              1.9012479950      -14.4115992139       23.9049932786  TIP3      1316            0.0000000000
     26201      1509  TIP3      OH2            16.2285513344        0.0740505975       26.5945691184  TIP3      1317            0.0000000000
     26202      1509  TIP3      H1             16.9113100438       -0.2241963449       25.9656814578  TIP3      1317            0.0000000000
     26203      1509  TIP3      H2             16.7424237793        0.5719670645       27.2472131708  TIP3      1317            0.0000000000
     26204      1510  TIP3      OH2             1.4319215442      -16.2269777116       32.9509578687  TIP3      1318            0.0000000000
     26205      1510  TIP3      H1              0.7642767116      -16.4164292060       33.6332634919  TIP3      1318            0.0000000000
     26206      1510  TIP3      H2              0.9751303453      -15.5506182747       32.4110145143  TIP3      1318            0.0000000000
     26207      1511  TIP3      OH2             3.6728416935       -3.0324229906       37.1149778436  TIP3      1319            0.0000000000
     26208      1511  TIP3      H1              2.8356036738       -2.8054316342       36.6761816722  TIP3      1319            0.0000000000
     26209      1511  TIP3      H2              3.4029787574       -3.1002516474       38.0342910977  TIP3      1319            0.0000000000
     26210      1512  TIP3      OH2             6.5713005503       -2.0159576332       33.3949403583  TIP3      1320            0.0000000000
     26211      1512  TIP3      H1              6.2427156445       -1.1487024419       33.1211039997  TIP3      1320            0.0000000000
     26212      1512  TIP3      H2              7.4979167057       -1.9332443656       33.0890341349  TIP3      1320            0.0000000000
     26213      1513  TIP3      OH2            10.8924920036       -0.5944721759       36.2960212299  TIP3      1321            0.0000000000
     26214      1513  TIP3      H1             11.0299397285       -0.9478279284       37.2049547348  TIP3      1321            0.0000000000
     26215      1513  TIP3      H2             11.7952841232       -0.2913989137       36.0548284595  TIP3      1321            0.0000000000
     26216      1514  TIP3      OH2            13.1844121833        0.6858500513       35.6038510315  TIP3      1322            0.0000000000
     26217      1514  TIP3      H1             13.9103195214        0.0875369560       35.3711792168  TIP3      1322            0.0000000000
     26218      1514  TIP3      H2             13.5549564823        1.1106500847       36.4071525870  TIP3      1322            0.0000000000
     26219      1515  TIP3      OH2            18.1974141126      -16.7138530930       34.7182185422  TIP3      1323            0.0000000000
     26220      1515  TIP3      H1             17.3682099100      -16.4162286869       34.3068162100  TIP3      1323            0.0000000000
     26221      1515  TIP3      H2             18.3663617579      -17.5356045175       34.1992420930  TIP3      1323            0.0000000000
     26222      1516  TIP3      OH2             3.9955288521        1.2165129273       33.3860013574  TIP3      1324            0.0000000000
     26223      1516  TIP3      H1              3.2641057882        1.7185467119       32.9914743519  TIP3      1324            0.0000000000
     26224      1516  TIP3      H2              3.6852420900        1.0277007195       34.2833205033  TIP3      1324            0.0000000000
     26225      1517  TIP3      OH2             6.4634294021        0.7949335009       32.4609028110  TIP3      1325            0.0000000000
     26226      1517  TIP3      H1              5.5715027819        0.9466165607       32.8542153798  TIP3      1325            0.0000000000
     26227      1517  TIP3      H2              6.4096225063        1.3851682690       31.6866421966  TIP3      1325            0.0000000000
     26228      1518  TIP3      OH2            11.1731994427        0.7089448301       31.6273306601  TIP3      1326            0.0000000000
     26229      1518  TIP3      H1             10.7073672306        1.2638181015       30.9839918250  TIP3      1326            0.0000000000
     26230      1518  TIP3      H2             11.3016281049        1.3394710772       32.3668863745  TIP3      1326            0.0000000000
     26231      1519  TIP3      OH2            13.4579230918       -0.4838629091       32.6633587836  TIP3      1327            0.0000000000
     26232      1519  TIP3      H1             12.6052829504       -0.2060243730       32.2902236045  TIP3      1327            0.0000000000
     26233      1519  TIP3      H2             13.9439832988        0.3531701119       32.5684449588  TIP3      1327            0.0000000000
     26234      1520  TIP3      OH2            16.0585885916        1.0988621901       32.8850893443  TIP3      1328            0.0000000000
     26235      1520  TIP3      H1             15.9902510092        2.0547180135       32.6518673163  TIP3      1328            0.0000000000
     26236      1520  TIP3      H2             16.2586885532        0.7155748558       32.0069065800  TIP3      1328            0.0000000000
     26237      1521  TIP3      OH2             3.4577197689       -0.1318939367       30.3325736214  TIP3      1329            0.0000000000
     26238      1521  TIP3      H1              3.3734780804       -0.5932214871       31.1938791402  TIP3      1329            0.0000000000
     26239      1521  TIP3      H2              4.2707860629       -0.5124344739       29.9428537305  TIP3      1329            0.0000000000
     26240      1522  TIP3      OH2             5.5318613245       -1.4231934758       28.9863161354  TIP3      1330            0.0000000000
     26241      1522  TIP3      H1              5.3678500944       -2.3563950621       29.2195844129  TIP3      1330            0.0000000000
     26242      1522  TIP3      H2              6.3876362957       -1.2662909014       29.4376299876  TIP3      1330            0.0000000000
     26243      1523  TIP3      OH2             8.1382172398       -0.9355312908       29.8690497435  TIP3      1331            0.0000000000
     26244      1523  TIP3      H1              8.2889469461       -1.8586959448       29.5980332328  TIP3      1331            0.0000000000
     26245      1523  TIP3      H2              8.1643973052       -1.0133625206       30.8334679469  TIP3      1331            0.0000000000
     26246      1524  TIP3      OH2            11.5908309065      -15.2741030830       28.9860278787  TIP3      1332            0.0000000000
     26247      1524  TIP3      H1             10.9190429805      -15.9155155530       29.2769181135  TIP3      1332            0.0000000000
     26248      1524  TIP3      H2             12.1447641113      -15.8188066229       28.4153309301  TIP3      1332            0.0000000000
     26249      1525  TIP3      OH2            16.7128174846      -17.2400257280       29.0753891942  TIP3      1333            0.0000000000
     26250      1525  TIP3      H1             17.3293212716      -16.6475818307       28.5756971570  TIP3      1333            0.0000000000
     26251      1525  TIP3      H2             15.8301551818      -16.8811496509       28.8334999838  TIP3      1333            0.0000000000
     26252      1526  TIP3      OH2            18.3946851985      -15.9908800515       27.3856554768  TIP3      1334            0.0000000000
     26253      1526  TIP3      H1             19.0756737621      -16.5503790937       26.9217043173  TIP3      1334            0.0000000000
     26254      1526  TIP3      H2             18.8928807874      -15.1771996773       27.5016827413  TIP3      1334            0.0000000000
     26255      1527  TIP3      OH2             3.9546201907      -16.6682667244       26.8586090854  TIP3      1335            0.0000000000
     26256      1527  TIP3      H1              3.1646108224      -16.8657387055       26.3186377672  TIP3      1335            0.0000000000
     26257      1527  TIP3      H2              4.4266350742      -17.5196650359       26.7616369300  TIP3      1335            0.0000000000
     26258      1528  TIP3      OH2             2.7519114909      -16.8926057805       22.6559649287  TIP3      1336            0.0000000000
     26259      1528  TIP3      H1              3.1881845802      -16.3228773853       21.9906753231  TIP3      1336            0.0000000000
     26260      1528  TIP3      H2              2.1228083367      -16.3169672435       23.0883039359  TIP3      1336            0.0000000000
     26261      1529  TIP3      OH2             8.4218541821      -16.7406217185       26.6330740463  TIP3      1337            0.0000000000
     26262      1529  TIP3      H1              9.3261981031      -16.3895924905       26.5455184830  TIP3      1337            0.0000000000
     26263      1529  TIP3      H2              8.3972281319      -16.9545628413       27.5650478022  TIP3      1337            0.0000000000
     26264      1530  TIP3      OH2            14.1462691627      -16.7245751473       28.2547577509  TIP3      1338            0.0000000000
     26265      1530  TIP3      H1             14.1022715928      -16.6165319093       27.2959827616  TIP3      1338            0.0000000000
     26266      1530  TIP3      H2             13.7589951870      -17.6247474807       28.3841294141  TIP3      1338            0.0000000000
     26267      1531  TIP3      OH2            15.4248249881      -16.7078818277       23.9729316882  TIP3      1339            0.0000000000
     26268      1531  TIP3      H1             14.7020181143      -16.0819396823       23.8019405300  TIP3      1339            0.0000000000
     26269      1531  TIP3      H2             14.9606959806      -17.5492043509       24.1643309988  TIP3      1339            0.0000000000
     26270      1532  TIP3      OH2             9.5743366350      -14.7160853621       23.4431930777  TIP3      1340            0.0000000000
     26271      1532  TIP3      H1              9.7927860826      -15.3105140642       24.1706427008  TIP3      1340            0.0000000000
     26272      1532  TIP3      H2              9.6244921467      -13.8724123297       23.9267966337  TIP3      1340            0.0000000000
     26273      1533  TIP3      OH2            11.4881896270        0.3428886454       21.8547495538  TIP3      1341            0.0000000000
     26274      1533  TIP3      H1             12.4330248247        0.5744177155       21.7213720755  TIP3      1341            0.0000000000
     26275      1533  TIP3      H2             11.2959687757       -0.1654040475       21.0307439915  TIP3      1341            0.0000000000
     26276      1534  TIP3      OH2            18.2064915922       -0.1178331851       24.6261347377  TIP3      1342            0.0000000000
     26277      1534  TIP3      H1             17.9973146590       -0.9192293431       24.0851541461  TIP3      1342            0.0000000000
     26278      1534  TIP3      H2             18.1383288657        0.5990670552       23.9544046402  TIP3      1342            0.0000000000
     26279      1535  TIP3      OH2             3.8444514747      -16.1171140184       36.2969900152  TIP3      1343            0.0000000000
     26280      1535  TIP3      H1              3.4554008561      -16.9145544380       36.7029868105  TIP3      1343            0.0000000000
     26281      1535  TIP3      H2              4.7530042762      -16.1614995343       36.6784535923  TIP3      1343            0.0000000000
     26282      1536  TIP3      OH2             5.8431633466      -16.7345432593       37.9436654907  TIP3      1344            0.0000000000
     26283      1536  TIP3      H1              6.7360021120      -17.0717337206       37.7254598606  TIP3      1344            0.0000000000
     26284      1536  TIP3      H2              5.4712408480      -17.5430012649       38.3455524560  TIP3      1344            0.0000000000
     26285      1537  TIP3      OH2            14.2472332541      -17.4507171686       38.0903348427  TIP3      1345            0.0000000000
     26286      1537  TIP3      H1             14.3411149465      -17.9224737025       38.9405327917  TIP3      1345            0.0000000000
     26287      1537  TIP3      H2             15.1651707077      -17.4834977011       37.7478960894  TIP3      1345            0.0000000000
     26288      1538  TIP3      OH2            17.4580498516       -1.3984230225       36.7229447883  TIP3      1346            0.0000000000
     26289      1538  TIP3      H1             16.6534871000       -1.5354535925       36.1769647909  TIP3      1346            0.0000000000
     26290      1538  TIP3      H2             17.3403764075       -0.4522377258       36.9415561570  TIP3      1346            0.0000000000
     26291      1539  TIP3      OH2            31.9106389071       -7.5388961435       26.6911438382  TIP3      1347            0.0000000000
     26292      1539  TIP3      H1             31.9169156022       -6.5544724187       26.6944332369  TIP3      1347            0.0000000000
     26293      1539  TIP3      H2             31.1489960702       -7.7390826305       26.1512333581  TIP3      1347            0.0000000000
     26294      1540  TIP3      OH2            30.7591051301       -8.2692308763       30.1832906126  TIP3      1348            0.0000000000
     26295      1540  TIP3      H1             30.7419328988       -8.9051506054       30.9143610873  TIP3      1348            0.0000000000
     26296      1540  TIP3      H2             30.4209379768       -8.7896430500       29.4370584169  TIP3      1348            0.0000000000
     26297      1541  TIP3      OH2            23.1170352083       -8.5902430481       31.7458160076  TIP3      1349            0.0000000000
     26298      1541  TIP3      H1             23.1929495438       -9.2745143443       32.4445639599  TIP3      1349            0.0000000000
     26299      1541  TIP3      H2             23.8610644771       -8.0175983639       31.9793548378  TIP3      1349            0.0000000000
     26300      1542  TIP3      OH2            34.4579741571       -5.3367719516       28.4829710174  TIP3      1350            0.0000000000
     26301      1542  TIP3      H1             34.0510252052       -6.0504197510       28.9879223846  TIP3      1350            0.0000000000
     26302      1542  TIP3      H2             34.4838575775       -4.6253296830       29.1435426320  TIP3      1350            0.0000000000
     26303      1543  TIP3      OH2            24.0341073536       -4.1436421989       30.2536365300  TIP3      1351            0.0000000000
     26304      1543  TIP3      H1             23.7207720863       -5.0097563261       29.9285151997  TIP3      1351            0.0000000000
     26305      1543  TIP3      H2             24.9893624279       -4.3267050659       30.3039889492  TIP3      1351            0.0000000000
     26306      1544  TIP3      OH2            21.3839468677       -8.3810129549       27.8694335094  TIP3      1352            0.0000000000
     26307      1544  TIP3      H1             21.6646446543       -9.1859827996       28.3474683794  TIP3      1352            0.0000000000
     26308      1544  TIP3      H2             22.0932844706       -8.2500665938       27.2298706271  TIP3      1352            0.0000000000
     26309      1545  TIP3      OH2            31.5750073988       -0.1445317348       28.7189261527  TIP3      1353            0.0000000000
     26310      1545  TIP3      H1             32.1831571875       -0.8597787987       28.4127253748  TIP3      1353            0.0000000000
     26311      1545  TIP3      H2             31.3342926410       -0.5018568961       29.5785568270  TIP3      1353            0.0000000000
     26312      1546  TIP3      OH2            29.1431555890       -5.8563588386       30.6656245508  TIP3      1354            0.0000000000
     26313      1546  TIP3      H1             29.4712935099       -6.5056619224       30.0235042020  TIP3      1354            0.0000000000
     26314      1546  TIP3      H2             29.9530668519       -5.6990987136       31.1822683808  TIP3      1354            0.0000000000
     26315      1547  TIP3      OH2            32.3113479658      -11.3920846670       30.9837222640  TIP3      1355            0.0000000000
     26316      1547  TIP3      H1             32.4766530174      -12.3529300780       30.9755422321  TIP3      1355            0.0000000000
     26317      1547  TIP3      H2             32.2138907325      -11.2478431868       30.0230257822  TIP3      1355            0.0000000000
     26318      1548  TIP3      OH2            25.3986459908      -13.3018605844       28.2012849964  TIP3      1356            0.0000000000
     26319      1548  TIP3      H1             25.5612369313      -12.4765164248       27.7109976654  TIP3      1356            0.0000000000
     26320      1548  TIP3      H2             25.0396932306      -13.8963964313       27.5332180979  TIP3      1356            0.0000000000
     26321      1549  TIP3      OH2            33.1595720837      -13.1992310982       26.6067319749  TIP3      1357            0.0000000000
     26322      1549  TIP3      H1             33.8221045550      -13.5365270221       27.2584941569  TIP3      1357            0.0000000000
     26323      1549  TIP3      H2             33.7367185931      -12.6829710768       26.0317450895  TIP3      1357            0.0000000000
     26324      1550  TIP3      OH2            22.0650882134      -10.8661565163       28.9282531637  TIP3      1358            0.0000000000
     26325      1550  TIP3      H1             22.6983899956      -11.4332402965       29.4094261264  TIP3      1358            0.0000000000
     26326      1550  TIP3      H2             22.1085615094      -11.2352878443       28.0462338818  TIP3      1358            0.0000000000
     26327      1551  TIP3      OH2            27.2018929793       -9.3417267633       28.2464060918  TIP3      1359            0.0000000000
     26328      1551  TIP3      H1             27.8650153557       -9.9201838496       28.6663046222  TIP3      1359            0.0000000000
     26329      1551  TIP3      H2             26.6785931857      -10.0044366706       27.7585573466  TIP3      1359            0.0000000000
     26330      1552  TIP3      OH2            24.3339025105      -14.4039593917       32.2605150402  TIP3      1360            0.0000000000
     26331      1552  TIP3      H1             24.0470957499      -13.8344101149       31.5211546721  TIP3      1360            0.0000000000
     26332      1552  TIP3      H2             23.6407469572      -14.1853050209       32.9290678435  TIP3      1360            0.0000000000
     26333      1553  TIP3      OH2            31.5705281377       -4.9664053001       25.7711772971  TIP3      1361            0.0000000000
     26334      1553  TIP3      H1             31.3309659560       -5.1776083749       24.8634446302  TIP3      1361            0.0000000000
     26335      1553  TIP3      H2             31.3492793030       -4.0247781894       25.8774238859  TIP3      1361            0.0000000000
     26336      1554  TIP3      OH2            26.8362178846       -6.7680870010       32.4837451336  TIP3      1362            0.0000000000
     26337      1554  TIP3      H1             26.1320481173       -6.1238835540       32.7042185046  TIP3      1362            0.0000000000
     26338      1554  TIP3      H2             27.5415346176       -6.1677649760       32.1957633189  TIP3      1362            0.0000000000
     26339      1555  TIP3      OH2            34.6595880394      -13.8990206887       28.6813832610  TIP3      1363            0.0000000000
     26340      1555  TIP3      H1             34.6673070621      -14.7013918241       29.2036047052  TIP3      1363            0.0000000000
     26341      1555  TIP3      H2             35.4299439298      -13.4417017870       29.0829758904  TIP3      1363            0.0000000000
     26342      1556  TIP3      OH2            23.8693527274      -12.5374673248       30.2316507426  TIP3      1364            0.0000000000
     26343      1556  TIP3      H1             24.5060864511      -11.8761665614       30.5868314596  TIP3      1364            0.0000000000
     26344      1556  TIP3      H2             24.4245900457      -12.9885347436       29.5491701166  TIP3      1364            0.0000000000
     26345      1557  TIP3      OH2            25.2818938643       -4.7634119417       33.3026800229  TIP3      1365            0.0000000000
     26346      1557  TIP3      H1             25.2350318429       -3.8487843526       32.9668249552  TIP3      1365            0.0000000000
     26347      1557  TIP3      H2             24.4011487138       -4.8417752854       33.7473265263  TIP3      1365            0.0000000000
     26348      1558  TIP3      OH2            34.7750301298       -3.5545812583       30.9652374973  TIP3      1366            0.0000000000
     26349      1558  TIP3      H1             33.8185621057       -3.3463799772       31.0019527775  TIP3      1366            0.0000000000
     26350      1558  TIP3      H2             35.1510484358       -2.7131107074       30.6428123046  TIP3      1366            0.0000000000
     26351      1559  TIP3      OH2            35.1044994094      -15.0830945449       31.9689807872  TIP3      1367            0.0000000000
     26352      1559  TIP3      H1             34.4085296928      -14.4097244464       32.1120969393  TIP3      1367            0.0000000000
     26353      1559  TIP3      H2             35.8602323199      -14.5567716558       31.6819521918  TIP3      1367            0.0000000000
     26354      1560  TIP3      OH2            28.2721418830      -17.0860601921       29.7133891208  TIP3      1368            0.0000000000
     26355      1560  TIP3      H1             28.1093061334      -18.0444148668       29.6327904545  TIP3      1368            0.0000000000
     26356      1560  TIP3      H2             27.4011018286      -16.7729922867       30.0325538098  TIP3      1368            0.0000000000
     26357      1561  TIP3      OH2            33.1331794075       -1.7779742609       27.4396903510  TIP3      1369            0.0000000000
     26358      1561  TIP3      H1             33.6753819142       -2.4456212258       26.9775164413  TIP3      1369            0.0000000000
     26359      1561  TIP3      H2             33.5952417943       -0.9667566931       27.1232060923  TIP3      1369            0.0000000000
     26360      1562  TIP3      OH2            34.3711718630       -3.7551408340       25.9882651582  TIP3      1370            0.0000000000
     26361      1562  TIP3      H1             34.2227977266       -4.4764762479       25.3566519055  TIP3      1370            0.0000000000
     26362      1562  TIP3      H2             34.4967547743       -4.2761361936       26.8090337645  TIP3      1370            0.0000000000
     26363      1563  TIP3      OH2            35.8021947637       -5.0368778543       34.5787760737  TIP3      1371            0.0000000000
     26364      1563  TIP3      H1             36.0792640113       -5.7339903871       33.9524455087  TIP3      1371            0.0000000000
     26365      1563  TIP3      H2             36.2100366805       -4.2774376557       34.1217480718  TIP3      1371            0.0000000000
     26366      1564  TIP3      OH2            33.9687379295       -8.0750206320       25.0880620569  TIP3      1372            0.0000000000
     26367      1564  TIP3      H1             33.2861822486       -7.8179809941       25.7445248123  TIP3      1372            0.0000000000
     26368      1564  TIP3      H2             34.4622446604       -8.7056300742       25.6636800468  TIP3      1372            0.0000000000
     26369      1565  TIP3      OH2            33.9516702283       -9.8939678769       34.2366272114  TIP3      1373            0.0000000000
     26370      1565  TIP3      H1             33.9029238359       -9.0957232054       34.7872868624  TIP3      1373            0.0000000000
     26371      1565  TIP3      H2             33.3104530025       -9.6257916577       33.5525479393  TIP3      1373            0.0000000000
     26372      1566  TIP3      OH2            25.6113072061       -7.4086664530       27.0599194007  TIP3      1374            0.0000000000
     26373      1566  TIP3      H1             25.2974327958       -7.8223640924       26.2336548337  TIP3      1374            0.0000000000
     26374      1566  TIP3      H2             26.2296417953       -8.0927996117       27.4070172608  TIP3      1374            0.0000000000
     26375      1567  TIP3      OH2            26.9347084069       -4.0328865106       29.7346168142  TIP3      1375            0.0000000000
     26376      1567  TIP3      H1             26.9249212021       -4.5623687415       28.9304673833  TIP3      1375            0.0000000000
     26377      1567  TIP3      H2             27.7189646397       -4.3861277799       30.1952727559  TIP3      1375            0.0000000000
     26378      1568  TIP3      OH2            25.9509200910       -8.6676696886       30.7233392292  TIP3      1376            0.0000000000
     26379      1568  TIP3      H1             26.5059900304       -8.5593279326       29.9276767500  TIP3      1376            0.0000000000
     26380      1568  TIP3      H2             26.3344789398       -8.0021408714       31.3351135815  TIP3      1376            0.0000000000
     26381      1569  TIP3      OH2            32.2806782371       -3.0760755641       31.3979502904  TIP3      1377            0.0000000000
     26382      1569  TIP3      H1             32.0914080991       -2.4573950902       32.1066772151  TIP3      1377            0.0000000000
     26383      1569  TIP3      H2             32.1043000850       -3.9460614757       31.8292884690  TIP3      1377            0.0000000000
     26384      1570  TIP3      OH2            26.9000976084       -4.2374757887       35.4153518542  TIP3      1378            0.0000000000
     26385      1570  TIP3      H1             26.4854873920       -3.4986333390       35.9060531176  TIP3      1378            0.0000000000
     26386      1570  TIP3      H2             26.2275687558       -4.4373196058       34.7184700304  TIP3      1378            0.0000000000
     26387      1571  TIP3      OH2            23.8422527928       -8.0773046610       34.5676778896  TIP3      1379            0.0000000000
     26388      1571  TIP3      H1             23.8950516810       -7.4098168235       35.2774049932  TIP3      1379            0.0000000000
     26389      1571  TIP3      H2             22.8992883631       -7.9903762087       34.3583827139  TIP3      1379            0.0000000000
     26390      1572  TIP3      OH2            25.1474622039       -2.2033303041       36.1626660096  TIP3      1380            0.0000000000
     26391      1572  TIP3      H1             25.0859398309       -2.3020759418       35.1971144144  TIP3      1380            0.0000000000
     26392      1572  TIP3      H2             24.2179549888       -2.3376725010       36.4310625968  TIP3      1380            0.0000000000
     26393      1573  TIP3      OH2            24.6370407225       -8.3710497035       24.6375360501  TIP3      1381            0.0000000000
     26394      1573  TIP3      H1             24.2721986100       -7.6130489386       24.1728011890  TIP3      1381            0.0000000000
     26395      1573  TIP3      H2             23.9455923390       -9.0335479192       24.5004127620  TIP3      1381            0.0000000000
     26396      1574  TIP3      OH2            20.6720225610       -5.9632215250       33.5763581671  TIP3      1382            0.0000000000
     26397      1574  TIP3      H1             20.2322925976       -6.0451332065       32.7102070127  TIP3      1382            0.0000000000
     26398      1574  TIP3      H2             20.7577528173       -6.9121099271       33.7891048105  TIP3      1382            0.0000000000
     26399      1575  TIP3      OH2            20.4359561530       -3.2303935519       30.3704555810  TIP3      1383            0.0000000000
     26400      1575  TIP3      H1             21.3937513431       -3.3422370035       30.3174845669  TIP3      1383            0.0000000000
     26401      1575  TIP3      H2             20.3595323900       -2.4026690432       30.8585203319  TIP3      1383            0.0000000000
     26402      1576  TIP3      OH2            29.6337964900       -2.9842513805       34.8997782263  TIP3      1384            0.0000000000
     26403      1576  TIP3      H1             29.6920831708       -2.1414006701       35.4078376867  TIP3      1384            0.0000000000
     26404      1576  TIP3      H2             28.7612419221       -3.3436684052       35.1510478849  TIP3      1384            0.0000000000
     26405      1577  TIP3      OH2            30.1046850029        0.7571386501       24.6893933730  TIP3      1385            0.0000000000
     26406      1577  TIP3      H1             29.9765278343        0.7716350944       23.7476992236  TIP3      1385            0.0000000000
     26407      1577  TIP3      H2             30.1052995203        1.7152219433       24.9091432221  TIP3      1385            0.0000000000
     26408      1578  TIP3      OH2            23.7206420170       -0.3563220496       26.5437806599  TIP3      1386            0.0000000000
     26409      1578  TIP3      H1             23.8583733252       -0.7740662733       27.4227161269  TIP3      1386            0.0000000000
     26410      1578  TIP3      H2             22.8770731382       -0.7769762779       26.2917381572  TIP3      1386            0.0000000000
     26411      1579  TIP3      OH2            32.7938462132       -0.0836918726       24.4901443715  TIP3      1387            0.0000000000
     26412      1579  TIP3      H1             31.8439283502       -0.0115694384       24.6863301152  TIP3      1387            0.0000000000
     26413      1579  TIP3      H2             33.0686342877       -0.8453938788       25.0159779169  TIP3      1387            0.0000000000
     26414      1580  TIP3      OH2            35.3257714207      -10.8817714795       36.5401276409  TIP3      1388            0.0000000000
     26415      1580  TIP3      H1             35.2886302154      -10.5326821235       35.6456788524  TIP3      1388            0.0000000000
     26416      1580  TIP3      H2             35.8632806160      -11.7075175018       36.3865245638  TIP3      1388            0.0000000000
     26417      1581  TIP3      OH2            22.9591229520       -4.6404053940       34.5041294020  TIP3      1389            0.0000000000
     26418      1581  TIP3      H1             23.1800601419       -5.0069963449       35.3850269013  TIP3      1389            0.0000000000
     26419      1581  TIP3      H2             22.0917681553       -5.0443666186       34.2969058970  TIP3      1389            0.0000000000
     26420      1582  TIP3      OH2            25.6451605109      -16.1672896703       30.4651957272  TIP3      1390            0.0000000000
     26421      1582  TIP3      H1             24.7435576043      -16.3039425191       30.0955673384  TIP3      1390            0.0000000000
     26422      1582  TIP3      H2             25.5072821256      -15.3385048184       30.9534740317  TIP3      1390            0.0000000000
     26423      1583  TIP3      OH2            30.2905894956      -16.5123048832       33.8206779504  TIP3      1391            0.0000000000
     26424      1583  TIP3      H1             30.6850758098      -16.9239311051       34.6117596497  TIP3      1391            0.0000000000
     26425      1583  TIP3      H2             29.3173759120      -16.6237249071       33.9684769549  TIP3      1391            0.0000000000
     26426      1584  TIP3      OH2            33.5030251131      -12.7022697779       34.6606893719  TIP3      1392            0.0000000000
     26427      1584  TIP3      H1             33.0199004659      -12.8728147889       35.5032320459  TIP3      1392            0.0000000000
     26428      1584  TIP3      H2             33.4269958217      -11.7455866768       34.5277859641  TIP3      1392            0.0000000000
     26429      1585  TIP3      OH2            25.7314826933      -11.2072766635       31.6944624975  TIP3      1393            0.0000000000
     26430      1585  TIP3      H1             25.0094304637      -11.2093779170       32.3501099982  TIP3      1393            0.0000000000
     26431      1585  TIP3      H2             25.7072526140      -10.2838326727       31.3561301208  TIP3      1393            0.0000000000
     26432      1586  TIP3      OH2            25.7007821965      -11.1129451195       26.5845668016  TIP3      1394            0.0000000000
     26433      1586  TIP3      H1             24.7753210573      -11.3056806996       26.3960722531  TIP3      1394            0.0000000000
     26434      1586  TIP3      H2             26.1026174316      -11.3870325325       25.7336060499  TIP3      1394            0.0000000000
     26435      1587  TIP3      OH2            31.2079908043      -10.5890555040       25.3063792446  TIP3      1395            0.0000000000
     26436      1587  TIP3      H1             30.8259820619       -9.7559924119       25.0195700015  TIP3      1395            0.0000000000
     26437      1587  TIP3      H2             31.9536779933      -10.7587189721       24.7069438527  TIP3      1395            0.0000000000
     26438      1588  TIP3      OH2            30.2916152459      -10.3682254051       36.7925859209  TIP3      1396            0.0000000000
     26439      1588  TIP3      H1             29.7738737542      -11.1500366036       37.0959111203  TIP3      1396            0.0000000000
     26440      1588  TIP3      H2             31.1348717272      -10.4917623668       37.2627959756  TIP3      1396            0.0000000000
     26441      1589  TIP3      OH2            32.2193251463      -11.0714996408       28.2050577019  TIP3      1397            0.0000000000
     26442      1589  TIP3      H1             32.0071731489      -10.5280709951       27.4305052908  TIP3      1397            0.0000000000
     26443      1589  TIP3      H2             32.3658047195      -11.9367651078       27.7674307026  TIP3      1397            0.0000000000
     26444      1590  TIP3      OH2            23.3665309471      -10.9509192061       33.3940928928  TIP3      1398            0.0000000000
     26445      1590  TIP3      H1             23.4503979718      -10.5415707777       34.2730455606  TIP3      1398            0.0000000000
     26446      1590  TIP3      H2             22.9276253946      -11.7902201605       33.6059734452  TIP3      1398            0.0000000000
     26447      1591  TIP3      OH2            26.7773396284      -13.4404450511       20.3868293965  TIP3      1399            0.0000000000
     26448      1591  TIP3      H1             26.2681826687      -14.0420642538       20.9390721493  TIP3      1399            0.0000000000
     26449      1591  TIP3      H2             26.1223014878      -13.2395240989       19.6904511585  TIP3      1399            0.0000000000
     26450      1592  TIP3      OH2            31.4407697455       -9.5147319725       32.7421494278  TIP3      1400            0.0000000000
     26451      1592  TIP3      H1             31.8384964816      -10.2071249477       32.1708746315  TIP3      1400            0.0000000000
     26452      1592  TIP3      H2             30.9789417419      -10.0374162519       33.4213393451  TIP3      1400            0.0000000000
     26453      1593  TIP3      OH2            28.2523168030      -13.5509113038       27.5765245578  TIP3      1401            0.0000000000
     26454      1593  TIP3      H1             27.3319372647      -13.5121690669       27.8904901396  TIP3      1401            0.0000000000
     26455      1593  TIP3      H2             28.7437389667      -13.6934066579       28.4006238359  TIP3      1401            0.0000000000
     26456      1594  TIP3      OH2            26.6745760796      -11.9221679180       24.0752523208  TIP3      1402            0.0000000000
     26457      1594  TIP3      H1             27.6319196727      -11.8598936494       24.2467245904  TIP3      1402            0.0000000000
     26458      1594  TIP3      H2             26.5217329046      -11.2718306511       23.3778179492  TIP3      1402            0.0000000000
     26459      1595  TIP3      OH2            32.5919884454      -14.2902985128       30.8371239824  TIP3      1403            0.0000000000
     26460      1595  TIP3      H1             31.9260494669      -14.2469854369       31.5473145792  TIP3      1403            0.0000000000
     26461      1595  TIP3      H2             32.1027376454      -14.5336065961       30.0385456612  TIP3      1403            0.0000000000
     26462      1596  TIP3      OH2            35.7705569198        1.3956873490       37.1865311704  TIP3      1404            0.0000000000
     26463      1596  TIP3      H1             36.1092414300        1.7227886488       36.3385670877  TIP3      1404            0.0000000000
     26464      1596  TIP3      H2             36.5196044948        1.6517549553       37.7510213273  TIP3      1404            0.0000000000
     26465      1597  TIP3      OH2            23.5420902407       -6.1813591866       36.7220056842  TIP3      1405            0.0000000000
     26466      1597  TIP3      H1             24.2627198071       -5.9371853477       37.3260257766  TIP3      1405            0.0000000000
     26467      1597  TIP3      H2             22.7698410664       -6.1022114374       37.3239263339  TIP3      1405            0.0000000000
     26468      1598  TIP3      OH2            29.5383335188      -10.7702526666       29.4605520575  TIP3      1406            0.0000000000
     26469      1598  TIP3      H1             30.1641817180      -11.3096614251       28.9664326788  TIP3      1406            0.0000000000
     26470      1598  TIP3      H2             29.3901671704      -11.3066803687       30.2531150628  TIP3      1406            0.0000000000
     26471      1599  TIP3      OH2            28.1809540077      -12.4512892542       31.8928220875  TIP3      1407            0.0000000000
     26472      1599  TIP3      H1             27.3580011670      -11.9282828099       31.9788849008  TIP3      1407            0.0000000000
     26473      1599  TIP3      H2             28.7371808721      -12.0944059952       32.6126017444  TIP3      1407            0.0000000000
     26474      1600  TIP3      OH2            28.7169823485       -6.1379220582       23.5504840125  TIP3      1408            0.0000000000
     26475      1600  TIP3      H1             27.9894597555       -6.7288566637       23.2753612823  TIP3      1408            0.0000000000
     26476      1600  TIP3      H2             28.5794515573       -6.0977569847       24.5188064591  TIP3      1408            0.0000000000
     26477      1601  TIP3      OH2            35.6405776204       -6.9996567063       32.3872221184  TIP3      1409            0.0000000000
     26478      1601  TIP3      H1             36.3658785562       -6.8715715056       31.7366821640  TIP3      1409            0.0000000000
     26479      1601  TIP3      H2             34.8778221168       -6.9966730323       31.7784780537  TIP3      1409            0.0000000000
     26480      1602  TIP3      OH2            30.2733119357       -5.9534297232       34.8323476117  TIP3      1410            0.0000000000
     26481      1602  TIP3      H1             29.9104508415       -6.3788595614       35.6153088150  TIP3      1410            0.0000000000
     26482      1602  TIP3      H2             30.0327803763       -5.0278730983       34.9400551980  TIP3      1410            0.0000000000
     26483      1603  TIP3      OH2            33.3137938896      -11.4757906645       23.4203942852  TIP3      1411            0.0000000000
     26484      1603  TIP3      H1             34.1970956733      -11.6396741756       23.8141317382  TIP3      1411            0.0000000000
     26485      1603  TIP3      H2             33.4383762011      -10.6886792666       22.9064848182  TIP3      1411            0.0000000000
     26486      1604  TIP3      OH2            23.8832554766       -6.8364610197       29.3994484433  TIP3      1412            0.0000000000
     26487      1604  TIP3      H1             24.5707393677       -6.9055730741       28.7103735057  TIP3      1412            0.0000000000
     26488      1604  TIP3      H2             23.9521999167       -7.6858054645       29.8669705077  TIP3      1412            0.0000000000
     26489      1605  TIP3      OH2            20.8694352758       -8.4247379528       34.6507181435  TIP3      1413            0.0000000000
     26490      1605  TIP3      H1             21.0389260247       -8.8689501109       35.5043439124  TIP3      1413            0.0000000000
     26491      1605  TIP3      H2             20.2485211726       -9.0341552111       34.2120011668  TIP3      1413            0.0000000000
     26492      1606  TIP3      OH2            27.8819617967       -8.8633428239       36.8262513618  TIP3      1414            0.0000000000
     26493      1606  TIP3      H1             27.5626295387       -9.1735964099       35.9669459374  TIP3      1414            0.0000000000
     26494      1606  TIP3      H2             28.8043316154       -9.1884494157       36.8259087989  TIP3      1414            0.0000000000
     26495      1607  TIP3      OH2            32.5661341398       -3.5439585897       34.7800661426  TIP3      1415            0.0000000000
     26496      1607  TIP3      H1             31.6468843895       -3.3602352916       34.5412915150  TIP3      1415            0.0000000000
     26497      1607  TIP3      H2             32.5397535497       -3.2399048471       35.7073585826  TIP3      1415            0.0000000000
     26498      1608  TIP3      OH2            33.6753384769       -7.7251955323       30.6720846908  TIP3      1416            0.0000000000
     26499      1608  TIP3      H1             32.7388072171       -7.9472529540       30.5355668178  TIP3      1416            0.0000000000
     26500      1608  TIP3      H2             34.1557633624       -8.4646721573       30.2571640090  TIP3      1416            0.0000000000
     26501      1609  TIP3      OH2            26.2405206210       -3.3984350151       26.6742486997  TIP3      1417            0.0000000000
     26502      1609  TIP3      H1             26.7349948453       -2.5654693822       26.5815633670  TIP3      1417            0.0000000000
     26503      1609  TIP3      H2             25.3431868173       -3.1033937194       26.4818858306  TIP3      1417            0.0000000000
     26504      1610  TIP3      OH2            27.6643549961       -5.6881055112       26.2719426161  TIP3      1418            0.0000000000
     26505      1610  TIP3      H1             27.3494241224       -4.7736104582       26.4044252260  TIP3      1418            0.0000000000
     26506      1610  TIP3      H2             26.9665726579       -6.1915949838       26.7417476410  TIP3      1418            0.0000000000
     26507      1611  TIP3      OH2            28.1172602531       -1.5204408032       32.7040103334  TIP3      1419            0.0000000000
     26508      1611  TIP3      H1             28.5830783631       -0.7210985126       32.4092706581  TIP3      1419            0.0000000000
     26509      1611  TIP3      H2             28.7292128996       -1.8621606684       33.3797366213  TIP3      1419            0.0000000000
     26510      1612  TIP3      OH2            26.3518178130       -0.7490391535       25.8180561337  TIP3      1420            0.0000000000
     26511      1612  TIP3      H1             25.3965162705       -0.5796528121       25.9761888458  TIP3      1420            0.0000000000
     26512      1612  TIP3      H2             26.7099347187        0.0938990649       26.1594232515  TIP3      1420            0.0000000000
     26513      1613  TIP3      OH2            31.6607547363       -5.5253783888       32.3234027980  TIP3      1421            0.0000000000
     26514      1613  TIP3      H1             31.3176131830       -5.7197880984       33.2215279615  TIP3      1421            0.0000000000
     26515      1613  TIP3      H2             32.2867164168       -6.2460314642       32.1528343729  TIP3      1421            0.0000000000
     26516      1614  TIP3      OH2            34.4657559231       -0.9680843295       34.7931368856  TIP3      1422            0.0000000000
     26517      1614  TIP3      H1             33.7405949938       -1.4333286093       34.3261872206  TIP3      1422            0.0000000000
     26518      1614  TIP3      H2             34.6719299778       -0.2502135563       34.1528990842  TIP3      1422            0.0000000000
     26519      1615  TIP3      OH2            22.5206827334      -13.6913455389       34.1962221738  TIP3      1423            0.0000000000
     26520      1615  TIP3      H1             21.6127787851      -13.3373581123       34.1801095256  TIP3      1423            0.0000000000
     26521      1615  TIP3      H2             22.4078895331      -14.5346883940       34.6615487949  TIP3      1423            0.0000000000
     26522      1616  TIP3      OH2            34.7453892274       -5.8529213283       23.6818191791  TIP3      1424            0.0000000000
     26523      1616  TIP3      H1             34.5268476067       -6.6156871986       24.2565250158  TIP3      1424            0.0000000000
     26524      1616  TIP3      H2             35.6803219971       -5.7093597468       23.9021677314  TIP3      1424            0.0000000000
     26525      1617  TIP3      OH2            22.1293189277       -1.9065670218       32.6265131216  TIP3      1425            0.0000000000
     26526      1617  TIP3      H1             22.4357128246       -2.8267063849       32.6310935875  TIP3      1425            0.0000000000
     26527      1617  TIP3      H2             22.3951454566       -1.6237403101       33.5080806133  TIP3      1425            0.0000000000
     26528      1618  TIP3      OH2            31.2205334195      -13.9248702122       33.1750123754  TIP3      1426            0.0000000000
     26529      1618  TIP3      H1             31.9721775462      -13.8556511518       33.7782977390  TIP3      1426            0.0000000000
     26530      1618  TIP3      H2             30.8559775042      -14.8049294449       33.3793414038  TIP3      1426            0.0000000000
     26531      1619  TIP3      OH2            29.2288831509      -12.5759599491       25.0469731061  TIP3      1427            0.0000000000
     26532      1619  TIP3      H1             30.0278074993      -12.0212599387       25.1149381167  TIP3      1427            0.0000000000
     26533      1619  TIP3      H2             28.9731448562      -12.7149902636       25.9845250674  TIP3      1427            0.0000000000
     26534      1620  TIP3      OH2            29.8077479708      -11.5648841011       34.2585269243  TIP3      1428            0.0000000000
     26535      1620  TIP3      H1             29.8924991979      -11.0079618858       35.0554526394  TIP3      1428            0.0000000000
     26536      1620  TIP3      H2             30.4578695774      -12.2754235938       34.3497145957  TIP3      1428            0.0000000000
     26537      1621  TIP3      OH2            30.0721544810      -15.4926915899       25.9393475476  TIP3      1429            0.0000000000
     26538      1621  TIP3      H1             29.7549761801      -14.8969113688       26.6427642157  TIP3      1429            0.0000000000
     26539      1621  TIP3      H2             30.7536803470      -14.9120120059       25.5777410111  TIP3      1429            0.0000000000
     26540      1622  TIP3      OH2            25.7424059708      -14.4720008855       22.7627129825  TIP3      1430            0.0000000000
     26541      1622  TIP3      H1             25.6755479394      -13.5362819574       23.0118320021  TIP3      1430            0.0000000000
     26542      1622  TIP3      H2             26.6933328970      -14.6357917898       22.8858103633  TIP3      1430            0.0000000000
     26543      1623  TIP3      OH2            35.8346580424      -13.9361758341       34.9047428965  TIP3      1431            0.0000000000
     26544      1623  TIP3      H1             35.0037928755      -13.4030689455       34.9444896920  TIP3      1431            0.0000000000
     26545      1623  TIP3      H2             36.2332368075      -13.6417816689       34.0857061929  TIP3      1431            0.0000000000
     26546      1624  TIP3      OH2            34.5650038274       -9.9167249692       29.1706418738  TIP3      1432            0.0000000000
     26547      1624  TIP3      H1             33.7564116795      -10.3608871072       28.8438653294  TIP3      1432            0.0000000000
     26548      1624  TIP3      H2             34.9993369453      -10.6314264975       29.6425250016  TIP3      1432            0.0000000000
     26549      1625  TIP3      OH2            35.7017380900       -0.6223430862       30.7637784088  TIP3      1433            0.0000000000
     26550      1625  TIP3      H1             35.5355760687        0.0403051593       30.0730630690  TIP3      1433            0.0000000000
     26551      1625  TIP3      H2             36.6428912203       -0.5367959998       30.9316972181  TIP3      1433            0.0000000000
     26552      1626  TIP3      OH2            23.1195519994      -16.5275313229       29.5370485310  TIP3      1434            0.0000000000
     26553      1626  TIP3      H1             22.8915080899      -16.5458811771       28.5970476826  TIP3      1434            0.0000000000
     26554      1626  TIP3      H2             22.7150208349      -17.3708102124       29.8332231251  TIP3      1434            0.0000000000
     26555      1627  TIP3      OH2            22.1234356667       -2.5396688111       25.7916618137  TIP3      1435            0.0000000000
     26556      1627  TIP3      H1             21.2218607319       -2.2106655736       25.6801422040  TIP3      1435            0.0000000000
     26557      1627  TIP3      H2             22.5132677326       -2.1448261152       25.0083865236  TIP3      1435            0.0000000000
     26558      1628  TIP3      OH2            21.2832348563        0.0397284295       37.0191582263  TIP3      1436            0.0000000000
     26559      1628  TIP3      H1             21.8909424732       -0.1596370083       37.7573746069  TIP3      1436            0.0000000000
     26560      1628  TIP3      H2             20.8864599221       -0.8299620625       36.8373654463  TIP3      1436            0.0000000000
     26561      1629  TIP3      OH2            25.9680609199       -1.0406001949       38.6263585513  TIP3      1437            0.0000000000
     26562      1629  TIP3      H1             26.7243717139       -1.5402523258       38.9601480323  TIP3      1437            0.0000000000
     26563      1629  TIP3      H2             25.9416306194       -1.3195993538       37.6912660261  TIP3      1437            0.0000000000
     26564      1630  TIP3      OH2            32.5280008151       -2.6709135713       37.3736383095  TIP3      1438            0.0000000000
     26565      1630  TIP3      H1             32.1778526094       -3.5408483446       37.6581965768  TIP3      1438            0.0000000000
     26566      1630  TIP3      H2             33.2810367994       -2.5631992663       37.9840802593  TIP3      1438            0.0000000000
     26567      1631  TIP3      OH2            21.1964364998       -6.1876354127       38.0156230183  TIP3      1439            0.0000000000
     26568      1631  TIP3      H1             21.3629215694       -7.0991575555       37.7141054709  TIP3      1439            0.0000000000
     26569      1631  TIP3      H2             20.4567507287       -5.9296597827       37.4411134391  TIP3      1439            0.0000000000
     26570      1632  TIP3      OH2            27.9137345454       -6.1976585577       37.4002487259  TIP3      1440            0.0000000000
     26571      1632  TIP3      H1             27.5789939338       -5.8863356477       36.5367707686  TIP3      1440            0.0000000000
     26572      1632  TIP3      H2             27.9884886649       -7.1760829005       37.2924517205  TIP3      1440            0.0000000000
     26573      1633  TIP3      OH2            33.5793460837       -6.3783148603       34.7916992128  TIP3      1441            0.0000000000
     26574      1633  TIP3      H1             34.3719618856       -5.7833480531       34.7384242138  TIP3      1441            0.0000000000
     26575      1633  TIP3      H2             32.9091344970       -5.6868406442       34.8349479046  TIP3      1441            0.0000000000
     26576      1634  TIP3      OH2            22.1207617781       -8.9611795665       37.3961050392  TIP3      1442            0.0000000000
     26577      1634  TIP3      H1             22.5361148301       -9.8249933056       37.3049618793  TIP3      1442            0.0000000000
     26578      1634  TIP3      H2             21.8850437698       -8.9564665869       38.3378283000  TIP3      1442            0.0000000000
     26579      1635  TIP3      OH2            26.7669184995       -7.8203800109       22.4473549010  TIP3      1443            0.0000000000
     26580      1635  TIP3      H1             26.2927006089       -8.3590288300       23.0941523567  TIP3      1443            0.0000000000
     26581      1635  TIP3      H2             26.9624367648       -8.5064070364       21.7838814980  TIP3      1443            0.0000000000
     26582      1636  TIP3      OH2            26.0141786168      -10.0162802706       34.7503209250  TIP3      1444            0.0000000000
     26583      1636  TIP3      H1             25.4298122152       -9.2890715262       35.0198851220  TIP3      1444            0.0000000000
     26584      1636  TIP3      H2             26.4123700204       -9.6471845035       33.9436968936  TIP3      1444            0.0000000000
     26585      1637  TIP3      OH2            31.0877917230       -7.4390837634       38.0895529254  TIP3      1445            0.0000000000
     26586      1637  TIP3      H1             32.0426392873       -7.4554660424       37.9665056290  TIP3      1445            0.0000000000
     26587      1637  TIP3      H2             30.9355935222       -8.2186897026       38.6480895462  TIP3      1445            0.0000000000
     26588      1638  TIP3      OH2            26.4226070056      -12.6400314970       35.8065219732  TIP3      1446            0.0000000000
     26589      1638  TIP3      H1             26.5399227443      -13.3488804304       35.1478141396  TIP3      1446            0.0000000000
     26590      1638  TIP3      H2             26.3784916330      -11.8289041269       35.2579579438  TIP3      1446            0.0000000000
     26591      1639  TIP3      OH2            26.8294719831      -14.2563604933       33.3589191432  TIP3      1447            0.0000000000
     26592      1639  TIP3      H1             27.3357347270      -13.7969671833       32.6489165497  TIP3      1447            0.0000000000
     26593      1639  TIP3      H2             25.9333237837      -14.3334535565       32.9580634486  TIP3      1447            0.0000000000
     26594      1640  TIP3      OH2            28.3648892348       -8.7667112682       33.6017297965  TIP3      1448            0.0000000000
     26595      1640  TIP3      H1             29.1202010179       -8.9329851887       33.0319351177  TIP3      1448            0.0000000000
     26596      1640  TIP3      H2             28.0053838071       -7.9307870797       33.2681068161  TIP3      1448            0.0000000000
     26597      1641  TIP3      OH2            32.8160081461      -10.9867115486       38.5765426221  TIP3      1449            0.0000000000
     26598      1641  TIP3      H1             33.0371413729      -11.9244768051       38.4631360688  TIP3      1449            0.0000000000
     26599      1641  TIP3      H2             33.6888301022      -10.5687579905       38.5352223897  TIP3      1449            0.0000000000
     26600      1642  TIP3      OH2            34.1236299891       -8.1770877717       36.7359600885  TIP3      1450            0.0000000000
     26601      1642  TIP3      H1             33.8282885518       -7.4940684851       36.0930823790  TIP3      1450            0.0000000000
     26602      1642  TIP3      H2             35.0528558286       -8.2907503764       36.5230519372  TIP3      1450            0.0000000000
     26603      1643  TIP3      OH2            24.8851097359      -11.3888127756       37.7270247498  TIP3      1451            0.0000000000
     26604      1643  TIP3      H1             24.1154142794      -11.9662104502       37.5591009611  TIP3      1451            0.0000000000
     26605      1643  TIP3      H2             25.5385782298      -11.7581283981       37.1051798893  TIP3      1451            0.0000000000
     26606      1644  TIP3      OH2            27.6173439522      -16.8201588855       33.7473120612  TIP3      1452            0.0000000000
     26607      1644  TIP3      H1             27.4419452307      -15.8559277072       33.6618281235  TIP3      1452            0.0000000000
     26608      1644  TIP3      H2             26.8669364872      -17.1847430000       33.2468815775  TIP3      1452            0.0000000000
     26609      1645  TIP3      OH2            28.8848442258      -12.4903848024       37.3788475912  TIP3      1453            0.0000000000
     26610      1645  TIP3      H1             28.5693747076      -12.7236629778       38.2735675596  TIP3      1453            0.0000000000
     26611      1645  TIP3      H2             28.1041350429      -12.6937012041       36.8360029387  TIP3      1453            0.0000000000
     26612      1646  TIP3      OH2            31.5649033541      -13.3286446965       36.4753122330  TIP3      1454            0.0000000000
     26613      1646  TIP3      H1             30.6024698365      -13.3025034635       36.5959196652  TIP3      1454            0.0000000000
     26614      1646  TIP3      H2             31.8825290151      -13.9716075896       37.1353073292  TIP3      1454            0.0000000000
     26615      1647  TIP3      OH2            33.2821053050      -14.7540716480       38.4037988461  TIP3      1455            0.0000000000
     26616      1647  TIP3      H1             33.1299260462      -15.7225724216       38.3987295414  TIP3      1455            0.0000000000
     26617      1647  TIP3      H2             32.9244216502      -14.4420285966       39.2588650420  TIP3      1455            0.0000000000
     26618      1648  TIP3      OH2            22.9609793422      -13.4513687496       37.4830379824  TIP3      1456            0.0000000000
     26619      1648  TIP3      H1             23.2106933514      -14.1871723735       36.8968536750  TIP3      1456            0.0000000000
     26620      1648  TIP3      H2             22.8734361135      -13.9000159597       38.3468251416  TIP3      1456            0.0000000000
     26621      1649  TIP3      OH2            27.8292150008      -17.4277052624       36.4497054708  TIP3      1457            0.0000000000
     26622      1649  TIP3      H1             28.5096190411      -18.1303936671       36.4332375436  TIP3      1457            0.0000000000
     26623      1649  TIP3      H2             27.7153443682      -17.2845577975       35.4895966327  TIP3      1457            0.0000000000
     26624      1650  TIP3      OH2            28.1930101227      -15.8136578060       38.5658293917  TIP3      1458            0.0000000000
     26625      1650  TIP3      H1             28.0181464844      -16.3203258994       37.7338860806  TIP3      1458            0.0000000000
     26626      1650  TIP3      H2             27.5919994484      -15.0501641340       38.4657885831  TIP3      1458            0.0000000000
     26627      1651  TIP3      OH2            19.9868304049        1.0537485523       26.1906856029  TIP3      1459            0.0000000000
     26628      1651  TIP3      H1             19.2844529806        0.5625846261       25.7071195606  TIP3      1459            0.0000000000
     26629      1651  TIP3      H2             20.2748441425        0.3899951770       26.8445380012  TIP3      1459            0.0000000000
     26630      1652  TIP3      OH2            20.8158185970       -0.8189622073       28.0532613681  TIP3      1460            0.0000000000
     26631      1652  TIP3      H1             20.4617029551       -1.6945507499       28.2517084024  TIP3      1460            0.0000000000
     26632      1652  TIP3      H2             21.0598021850       -0.4898077164       28.9341559468  TIP3      1460            0.0000000000
     26633      1653  TIP3      OH2            36.2816903699       -2.7496562756       33.2296659978  TIP3      1461            0.0000000000
     26634      1653  TIP3      H1             35.6199166867       -2.3166956548       33.7870989979  TIP3      1461            0.0000000000
     26635      1653  TIP3      H2             35.7546836364       -3.1153430737       32.4948065846  TIP3      1461            0.0000000000
     26636      1654  TIP3      OH2            35.3619874382       -9.7138517018       26.5739624352  TIP3      1462            0.0000000000
     26637      1654  TIP3      H1             35.6167158826      -10.6430093578       26.5897602720  TIP3      1462            0.0000000000
     26638      1654  TIP3      H2             35.4808817883       -9.4856019796       27.5140263626  TIP3      1462            0.0000000000
     26639      1655  TIP3      OH2            20.8731844618       -7.7404892691       30.5396295493  TIP3      1463            0.0000000000
     26640      1655  TIP3      H1             21.0513775054       -7.8029906137       29.5780776864  TIP3      1463            0.0000000000
     26641      1655  TIP3      H2             21.7674682117       -7.9012388447       30.8982883936  TIP3      1463            0.0000000000
     26642      1656  TIP3      OH2            35.5251952680      -12.2894943501       24.7748425138  TIP3      1464            0.0000000000
     26643      1656  TIP3      H1             35.8267658806      -13.1321208692       25.1624752562  TIP3      1464            0.0000000000
     26644      1656  TIP3      H2             36.3689136227      -11.9433556366       24.4576683522  TIP3      1464            0.0000000000
     26645      1657  TIP3      OH2           -37.0487207936      -12.5239038992       30.3869012663  TIP3      1465            0.0000000000
     26646      1657  TIP3      H1            -36.1627492771      -12.1709311043       30.2478088796  TIP3      1465            0.0000000000
     26647      1657  TIP3      H2            -37.2722766132      -11.8812212535       31.0814325067  TIP3      1465            0.0000000000
     26648      1658  TIP3      OH2            36.2591450990      -10.9085419246       33.4217871896  TIP3      1466            0.0000000000
     26649      1658  TIP3      H1             35.3235878616      -10.6414295042       33.5114230099  TIP3      1466            0.0000000000
     26650      1658  TIP3      H2             36.6199778943      -10.2223278491       32.8298715228  TIP3      1466            0.0000000000
     26651      1659  TIP3      OH2            20.4939386013      -12.4253911245       36.7056042816  TIP3      1467            0.0000000000
     26652      1659  TIP3      H1             21.4309075663      -12.6407666773       36.8912372205  TIP3      1467            0.0000000000
     26653      1659  TIP3      H2             20.0357324424      -13.2519263482       36.9722315344  TIP3      1467            0.0000000000
     26654      1660  TIP3      OH2            35.2384743411      -15.3971591172       25.5537960918  TIP3      1468            0.0000000000
     26655      1660  TIP3      H1             36.1786500958      -15.4251957530       25.8371970976  TIP3      1468            0.0000000000
     26656      1660  TIP3      H2             35.4357864856      -15.6860527323       24.6607076235  TIP3      1468            0.0000000000
     26657      1661  TIP3      OH2            21.6864623531      -14.1316974682       29.5926312680  TIP3      1469            0.0000000000
     26658      1661  TIP3      H1             22.1479499451      -14.9658381677       29.8090196874  TIP3      1469            0.0000000000
     26659      1661  TIP3      H2             22.2551051785      -13.4471946236       29.9596031638  TIP3      1469            0.0000000000
     26660      1662  TIP3      OH2            19.9734448743      -11.1305318487       30.5743590434  TIP3      1470            0.0000000000
     26661      1662  TIP3      H1             20.5415321443      -11.3922973728       29.8210869096  TIP3      1470            0.0000000000
     26662      1662  TIP3      H2             20.4411736353      -10.3312204902       30.8577894729  TIP3      1470            0.0000000000
     26663      1663  TIP3      OH2            34.8706573937       -0.1034644661       26.6899513115  TIP3      1471            0.0000000000
     26664      1663  TIP3      H1             35.5462194312       -0.4597119792       26.0927350279  TIP3      1471            0.0000000000
     26665      1663  TIP3      H2             35.3915915073        0.4632566821       27.2824625658  TIP3      1471            0.0000000000
     26666      1664  TIP3      OH2            20.2875685029      -16.2297514233       32.9644272504  TIP3      1472            0.0000000000
     26667      1664  TIP3      H1             19.6150836651      -16.4189088755       33.6406618700  TIP3      1472            0.0000000000
     26668      1664  TIP3      H2             19.8360058345      -15.5543237452       32.4193619312  TIP3      1472            0.0000000000
     26669      1665  TIP3      OH2            22.5288535885       -3.0320653977       37.1146931365  TIP3      1473            0.0000000000
     26670      1665  TIP3      H1             21.6912477096       -2.8053766876       36.6765193321  TIP3      1473            0.0000000000
     26671      1665  TIP3      H2             22.2594594939       -3.1001240118       38.0336528981  TIP3      1473            0.0000000000
     26672      1666  TIP3      OH2            25.4288031375       -2.0178202115       33.3943930059  TIP3      1474            0.0000000000
     26673      1666  TIP3      H1             25.0989475096       -1.1499384176       33.1210471969  TIP3      1474            0.0000000000
     26674      1666  TIP3      H2             26.3537280803       -1.9329806180       33.0884836796  TIP3      1474            0.0000000000
     26675      1667  TIP3      OH2            29.7492326495       -0.5940105467       36.2951215285  TIP3      1475            0.0000000000
     26676      1667  TIP3      H1             29.8864152959       -0.9471336012       37.2045295039  TIP3      1475            0.0000000000
     26677      1667  TIP3      H2             30.6512057091       -0.2867869332       36.0512481073  TIP3      1475            0.0000000000
     26678      1668  TIP3      OH2            32.0566714263        0.6711351052       35.6152262190  TIP3      1476            0.0000000000
     26679      1668  TIP3      H1             32.7978546554        0.0978721337       35.3736768295  TIP3      1476            0.0000000000
     26680      1668  TIP3      H2             32.4382846303        1.1234415748       36.3981179115  TIP3      1476            0.0000000000
     26681      1669  TIP3      OH2            22.8571422036        1.2601477265       33.4042597948  TIP3      1477            0.0000000000
     26682      1669  TIP3      H1             22.1072003964        1.7066241193       32.9890884225  TIP3      1477            0.0000000000
     26683      1669  TIP3      H2             22.5397387798        1.0125659696       34.2841565386  TIP3      1477            0.0000000000
     26684      1670  TIP3      OH2            25.3163010192        0.7954728509       32.4641663396  TIP3      1478            0.0000000000
     26685      1670  TIP3      H1             24.4266260500        0.9578435756       32.8538284687  TIP3      1478            0.0000000000
     26686      1670  TIP3      H2             25.2699304159        1.3785741954       31.6853760578  TIP3      1478            0.0000000000
     26687      1671  TIP3      OH2            29.9824654605        0.6976241927       31.6565918789  TIP3      1479            0.0000000000
     26688      1671  TIP3      H1             29.5631972871        1.2633594988       30.9868730117  TIP3      1479            0.0000000000
     26689      1671  TIP3      H2             30.1558221494        1.3441662820       32.3732459743  TIP3      1479            0.0000000000
     26690      1672  TIP3      OH2            32.3065125317       -0.4878048819       32.6678373247  TIP3      1480            0.0000000000
     26691      1672  TIP3      H1             31.4570643150       -0.2183117228       32.2820556273  TIP3      1480            0.0000000000
     26692      1672  TIP3      H2             32.7708005068        0.3669526192       32.5921346675  TIP3      1480            0.0000000000
     26693      1673  TIP3      OH2            34.7685440468        1.0884281534       32.8665955827  TIP3      1481            0.0000000000
     26694      1673  TIP3      H1             34.7574564162        2.0390029681       32.6522994999  TIP3      1481            0.0000000000
     26695      1673  TIP3      H2             35.1058495439        0.7158281638       32.0314873734  TIP3      1481            0.0000000000
     26696      1674  TIP3      OH2            22.3116579632       -0.1327842286       30.3312394039  TIP3      1482            0.0000000000
     26697      1674  TIP3      H1             22.2268172682       -0.5945184431       31.1923628007  TIP3      1482            0.0000000000
     26698      1674  TIP3      H2             23.1260029569       -0.5143089604       29.9423472820  TIP3      1482            0.0000000000
     26699      1675  TIP3      OH2            24.3776900269       -1.4207957193       28.9992257557  TIP3      1483            0.0000000000
     26700      1675  TIP3      H1             24.2186437325       -2.3594364893       29.2133459811  TIP3      1483            0.0000000000
     26701      1675  TIP3      H2             25.2513822048       -1.2692482730       29.4223891558  TIP3      1483            0.0000000000
     26702      1676  TIP3      OH2            26.9521833262       -0.9397081032       29.8669880626  TIP3      1484            0.0000000000
     26703      1676  TIP3      H1             27.1492995753       -1.8523251143       29.5913206242  TIP3      1484            0.0000000000
     26704      1676  TIP3      H2             27.0379473556       -0.9951415844       30.8305870606  TIP3      1484            0.0000000000
     26705      1677  TIP3      OH2            30.4100139511      -15.2851762008       28.9541720090  TIP3      1485            0.0000000000
     26706      1677  TIP3      H1             29.7597202416      -15.9269927493       29.2936899018  TIP3      1485            0.0000000000
     26707      1677  TIP3      H2             30.9985674500      -15.8321890880       28.4248907228  TIP3      1485            0.0000000000
     26708      1678  TIP3      OH2            35.6190379108      -17.2952915202       29.0261529822  TIP3      1486            0.0000000000
     26709      1678  TIP3      H1             36.1537225126      -16.5958304518       28.6229633718  TIP3      1486            0.0000000000
     26710      1678  TIP3      H2             34.7182765228      -16.9073296550       28.8749487483  TIP3      1486            0.0000000000
     26711      1679  TIP3      OH2            27.3540325153      -16.7693395620       26.6115364285  TIP3      1487            0.0000000000
     26712      1679  TIP3      H1             28.2191297874      -16.3416350398       26.5987913005  TIP3      1487            0.0000000000
     26713      1679  TIP3      H2             27.2439266793      -16.9548498297       27.5447276380  TIP3      1487            0.0000000000
     26714      1680  TIP3      OH2            33.0618807330      -16.7869447926       28.2506524201  TIP3      1488            0.0000000000
     26715      1680  TIP3      H1             32.9463229920      -16.5815648638       27.3142463278  TIP3      1488            0.0000000000
     26716      1680  TIP3      H2             32.5747523367      -17.6401850597       28.3722520426  TIP3      1488            0.0000000000
     26717      1681  TIP3      OH2            21.5273163853       -0.8875536920       23.5875417657  TIP3      1489            0.0000000000
     26718      1681  TIP3      H1             20.8763039397       -1.0139085217       22.8829375733  TIP3      1489            0.0000000000
     26719      1681  TIP3      H2             21.4598832678        0.0503681431       23.7760785646  TIP3      1489            0.0000000000
     26720      1682  TIP3      OH2            28.4256215471      -14.7226221342       23.5114775834  TIP3      1490            0.0000000000
     26721      1682  TIP3      H1             28.6609121858      -15.2685820157       24.2685413499  TIP3      1490            0.0000000000
     26722      1682  TIP3      H2             28.4965632885      -13.8495400251       23.9399262335  TIP3      1490            0.0000000000
     26723      1683  TIP3      OH2            22.7001486722      -16.1181945667       36.2966675494  TIP3      1491            0.0000000000
     26724      1683  TIP3      H1             22.3114182758      -16.9136465363       36.7028081035  TIP3      1491            0.0000000000
     26725      1683  TIP3      H2             23.6091000064      -16.1609177969       36.6792486822  TIP3      1491            0.0000000000
     26726      1684  TIP3      OH2            24.7006095440      -16.7362789954       37.9423308251  TIP3      1492            0.0000000000
     26727      1684  TIP3      H1             25.5936230721      -17.0729887986       37.7251108602  TIP3      1492            0.0000000000
     26728      1684  TIP3      H2             24.3270550017      -17.5437528675       38.3448518089  TIP3      1492            0.0000000000
     26729      1685  TIP3      OH2            23.3108880686        0.0333515673       20.5722486410  TIP3      1493            0.0000000000
     26730      1685  TIP3      H1             23.0539568629        0.3011528311       21.4509847633  TIP3      1493            0.0000000000
     26731      1685  TIP3      H2             24.0748544749       -0.5397795647       20.6654098401  TIP3      1493            0.0000000000
     26732      1686  TIP3      OH2            33.1044373955      -17.4300286497       38.0693820292  TIP3      1494            0.0000000000
     26733      1686  TIP3      H1             33.1923466434      -17.8997361877       38.9248993363  TIP3      1494            0.0000000000
     26734      1686  TIP3      H2             34.0271667405      -17.4482724888       37.7291561422  TIP3      1494            0.0000000000
     26735      1687  TIP3      OH2            36.0975972930       -1.5181276923       36.8618565946  TIP3      1495            0.0000000000
     26736      1687  TIP3      H1             35.4527463758       -1.5760989426       36.1255478655  TIP3      1495            0.0000000000
     26737      1687  TIP3      H2             36.1225713137       -0.5358148574       36.9457927902  TIP3      1495            0.0000000000
     26738      1688  TIP3      OH2           -24.6728026094       11.3258485461       26.7038117019  TIP3      1496            0.0000000000
     26739      1688  TIP3      H1            -24.6757351166       12.3054638987       26.6767252082  TIP3      1496            0.0000000000
     26740      1688  TIP3      H2            -25.3912251016       11.1030937544       26.0887324569  TIP3      1496            0.0000000000
     26741      1689  TIP3      OH2           -25.8210881448       10.5818562504       30.2040268068  TIP3      1497            0.0000000000
     26742      1689  TIP3      H1            -25.8281469745        9.9389526030       30.9253173909  TIP3      1497            0.0000000000
     26743      1689  TIP3      H2            -26.1689943888       10.0760415509       29.4510093214  TIP3      1497            0.0000000000
     26744      1690  TIP3      OH2           -33.3914713400       10.2392739850       31.7079558064  TIP3      1498            0.0000000000
     26745      1690  TIP3      H1            -33.3463262293        9.5795569952       32.4322787079  TIP3      1498            0.0000000000
     26746      1690  TIP3      H2            -32.7051016123       10.8576177523       31.9963223217  TIP3      1498            0.0000000000
     26747      1691  TIP3      OH2           -22.1297831333       13.5416563351       28.4768179480  TIP3      1499            0.0000000000
     26748      1691  TIP3      H1            -22.5342803561       12.8201677837       28.9680491009  TIP3      1499            0.0000000000
     26749      1691  TIP3      H2            -22.1054922155       14.2501903079       29.1471189193  TIP3      1499            0.0000000000
     26750      1692  TIP3      OH2           -32.5355057472       14.6964681145       30.2725421506  TIP3      1500            0.0000000000
     26751      1692  TIP3      H1            -32.8500711728       13.8391638963       29.9291799472  TIP3      1500            0.0000000000
     26752      1692  TIP3      H2            -31.5764508893       14.5293165995       30.2989981870  TIP3      1500            0.0000000000
     26753      1693  TIP3      OH2           -35.6026492403        8.2668270052       25.3465086279  TIP3      1501            0.0000000000
     26754      1693  TIP3      H1            -36.0720679845        9.0653250109       25.6984563600  TIP3      1501            0.0000000000
     26755      1693  TIP3      H2            -36.3939879172        7.7344073860       25.2997724056  TIP3      1501            0.0000000000
     26756      1694  TIP3      OH2           -35.2331764263       10.4310304981       27.8485356693  TIP3      1502            0.0000000000
     26757      1694  TIP3      H1            -34.9284048492        9.6820148337       28.3827106051  TIP3      1502            0.0000000000
     26758      1694  TIP3      H2            -34.4928972886       10.6217166223       27.2554770547  TIP3      1502            0.0000000000
     26759      1695  TIP3      OH2           -25.0074578497       18.6929233680       28.7359925080  TIP3      1503            0.0000000000
     26760      1695  TIP3      H1            -24.3525822218       18.0106156130       28.4458074587  TIP3      1503            0.0000000000
     26761      1695  TIP3      H2            -25.2141570011       18.3557662655       29.6098498505  TIP3      1503            0.0000000000
     26762      1696  TIP3      OH2           -27.4368708084       12.9896761192       30.6783726885  TIP3      1504            0.0000000000
     26763      1696  TIP3      H1            -27.0985782871       12.3624004640       30.0202159135  TIP3      1504            0.0000000000
     26764      1696  TIP3      H2            -26.6256112915       13.1468934121       31.1927106661  TIP3      1504            0.0000000000
     26765      1697  TIP3      OH2           -18.8341715727        4.6423835422       31.4057649533  TIP3      1505            0.0000000000
     26766      1697  TIP3      H1            -18.6613651148        5.2360197156       32.1603648651  TIP3      1505            0.0000000000
     26767      1697  TIP3      H2            -18.2799922398        5.0672382161       30.7350208624  TIP3      1505            0.0000000000
     26768      1698  TIP3      OH2           -24.2697538811        7.4569226663       30.9903774833  TIP3      1506            0.0000000000
     26769      1698  TIP3      H1            -24.1014489578        6.4982734961       30.9961776680  TIP3      1506            0.0000000000
     26770      1698  TIP3      H2            -24.3693057781        7.5978361071       30.0294052601  TIP3      1506            0.0000000000
     26771      1699  TIP3      OH2           -31.0918752110        5.5265128864       28.2069746529  TIP3      1507            0.0000000000
     26772      1699  TIP3      H1            -31.0915826160        6.4396143643       27.8824284010  TIP3      1507            0.0000000000
     26773      1699  TIP3      H2            -31.6055523219        4.9429223833       27.6186831583  TIP3      1507            0.0000000000
     26774      1700  TIP3      OH2           -23.4051727562        5.6316324370       26.5702008805  TIP3      1508            0.0000000000
     26775      1700  TIP3      H1            -22.7566964583        5.3058446112       27.2386611447  TIP3      1508            0.0000000000
     26776      1700  TIP3      H2            -22.8419141171        6.2114343512       26.0276595500  TIP3      1508            0.0000000000
     26777      1701  TIP3      OH2           -34.5484474087        7.8811876890       28.8731915632  TIP3      1509            0.0000000000
     26778      1701  TIP3      H1            -33.8403398300        7.4074657717       29.3580824398  TIP3      1509            0.0000000000
     26779      1701  TIP3      H2            -34.3947396478        7.5965250038       27.9712275596  TIP3      1509            0.0000000000
     26780      1702  TIP3      OH2           -29.3669622991        9.5155345339       28.2625830850  TIP3      1510            0.0000000000
     26781      1702  TIP3      H1            -28.6933452545        8.9400068041       28.6674636772  TIP3      1510            0.0000000000
     26782      1702  TIP3      H2            -29.8881733517        8.8673927567       27.7552571901  TIP3      1510            0.0000000000
     26783      1703  TIP3      OH2           -18.3185610016        6.1114910464       33.6982368188  TIP3      1511            0.0000000000
     26784      1703  TIP3      H1            -19.0286244108        6.7788469763       33.5485286649  TIP3      1511            0.0000000000
     26785      1703  TIP3      H2            -18.3965718512        5.9343572672       34.6406252340  TIP3      1511            0.0000000000
     26786      1704  TIP3      OH2           -32.2043067344        4.4403317701       32.2483899319  TIP3      1512            0.0000000000
     26787      1704  TIP3      H1            -32.5218413061        5.0101731151       31.5225460272  TIP3      1512            0.0000000000
     26788      1704  TIP3      H2            -32.8854217286        4.6633936690       32.9311976644  TIP3      1512            0.0000000000
     26789      1705  TIP3      OH2           -24.9505618438       13.9234740949       25.7805358501  TIP3      1513            0.0000000000
     26790      1705  TIP3      H1            -25.2600870839       13.6444967349       24.9098856630  TIP3      1513            0.0000000000
     26791      1705  TIP3      H2            -25.2648297833       14.8472098180       25.8671037490  TIP3      1513            0.0000000000
     26792      1706  TIP3      OH2           -29.7076136569       12.0955320475       32.4826899324  TIP3      1514            0.0000000000
     26793      1706  TIP3      H1            -30.4268602262       12.7274842276       32.7034581884  TIP3      1514            0.0000000000
     26794      1706  TIP3      H2            -29.0121673960       12.6991791156       32.1899639838  TIP3      1514            0.0000000000
     26795      1707  TIP3      OH2           -21.5887763103        4.9660210474       28.5587999998  TIP3      1515            0.0000000000
     26796      1707  TIP3      H1            -21.8331015563        4.2076647126       29.0961563674  TIP3      1515            0.0000000000
     26797      1707  TIP3      H2            -20.9574310751        5.4119558553       29.1500506693  TIP3      1515            0.0000000000
     26798      1708  TIP3      OH2           -32.7033563463        6.2959235976       30.2458529881  TIP3      1516            0.0000000000
     26799      1708  TIP3      H1            -32.0901684466        6.9758499900       30.6215019551  TIP3      1516            0.0000000000
     26800      1708  TIP3      H2            -32.1309189885        5.8822371345       29.5595413371  TIP3      1516            0.0000000000
     26801      1709  TIP3      OH2           -31.2966487317       14.0791348459       33.2889282865  TIP3      1517            0.0000000000
     26802      1709  TIP3      H1            -31.3384340564       15.0006326710       32.9680586537  TIP3      1517            0.0000000000
     26803      1709  TIP3      H2            -32.1746293994       14.0014827709       33.7344655103  TIP3      1517            0.0000000000
     26804      1710  TIP3      OH2           -35.1942525546       13.7389912538       24.0365631375  TIP3      1518            0.0000000000
     26805      1710  TIP3      H1            -35.4838835328       14.0561630095       23.1650513493  TIP3      1518            0.0000000000
     26806      1710  TIP3      H2            -35.1555628554       14.5425607898       24.5895856345  TIP3      1518            0.0000000000
     26807      1711  TIP3      OH2           -21.5982991562       15.3768469918       30.8577530519  TIP3      1519            0.0000000000
     26808      1711  TIP3      H1            -22.5662928225       15.4912580374       30.9753734130  TIP3      1519            0.0000000000
     26809      1711  TIP3      H2            -21.3267894683       16.2918371947       30.6535674075  TIP3      1519            0.0000000000
     26810      1712  TIP3      OH2           -21.2678864655        3.6632940857       32.2422536238  TIP3      1520            0.0000000000
     26811      1712  TIP3      H1            -21.9983903971        4.2933082103       32.1542032608  TIP3      1520            0.0000000000
     26812      1712  TIP3      H2            -20.5598625053        4.0770738338       31.7094518069  TIP3      1520            0.0000000000
     26813      1713  TIP3      OH2           -28.3038937075        1.7807026023       29.7033055149  TIP3      1521            0.0000000000
     26814      1713  TIP3      H1            -28.4347748524        0.8169654113       29.6367573220  TIP3      1521            0.0000000000
     26815      1713  TIP3      H2            -29.1795338121        2.0749161205       30.0305032551  TIP3      1521            0.0000000000
     26816      1714  TIP3      OH2           -23.3344931415       17.1591551391       27.4678761840  TIP3      1522            0.0000000000
     26817      1714  TIP3      H1            -22.9002868058       16.4448998131       26.9582466552  TIP3      1522            0.0000000000
     26818      1714  TIP3      H2            -22.9153702918       17.9372685146       27.0469418303  TIP3      1522            0.0000000000
     26819      1715  TIP3      OH2           -22.1344610750       15.0878439482       25.9677543046  TIP3      1523            0.0000000000
     26820      1715  TIP3      H1            -22.3885828759       14.3733630992       25.3503039555  TIP3      1523            0.0000000000
     26821      1715  TIP3      H2            -22.1017332006       14.5991090903       26.8111123136  TIP3      1523            0.0000000000
     26822      1716  TIP3      OH2           -20.4822199302       13.6721284458       34.4628441661  TIP3      1524            0.0000000000
     26823      1716  TIP3      H1            -20.3732143369       13.0352032607       33.7240505242  TIP3      1524            0.0000000000
     26824      1716  TIP3      H2            -20.3108313341       14.5252046735       34.0250661300  TIP3      1524            0.0000000000
     26825      1717  TIP3      OH2           -25.9975167102       10.6125685449       24.2426255337  TIP3      1525            0.0000000000
     26826      1717  TIP3      H1            -26.7175369720       11.1298479847       23.8478287588  TIP3      1525            0.0000000000
     26827      1717  TIP3      H2            -25.3075416511       10.6636339364       23.5440661811  TIP3      1525            0.0000000000
     26828      1718  TIP3      OH2           -25.9830602837        9.0365171688       21.3184895235  TIP3      1526            0.0000000000
     26829      1718  TIP3      H1            -25.2018455961        9.1075594907       21.8834031552  TIP3      1526            0.0000000000
     26830      1718  TIP3      H2            -25.6328674766        8.4653275216       20.6247360164  TIP3      1526            0.0000000000
     26831      1719  TIP3      OH2           -18.6205299348        9.9935104509       32.5083966973  TIP3      1527            0.0000000000
     26832      1719  TIP3      H1            -19.2902011305       10.7118855153       32.5243331556  TIP3      1527            0.0000000000
     26833      1719  TIP3      H2            -18.1468719714       10.2271092102       31.6849641623  TIP3      1527            0.0000000000
     26834      1720  TIP3      OH2           -22.5687204721       10.7965117469       25.1465419648  TIP3      1528            0.0000000000
     26835      1720  TIP3      H1            -23.3182024463       11.0161697853       25.7395874842  TIP3      1528            0.0000000000
     26836      1720  TIP3      H2            -22.0832707610       10.1357883534       25.6670208220  TIP3      1528            0.0000000000
     26837      1721  TIP3      OH2           -22.6014695190        8.9591225074       34.2670626654  TIP3      1529            0.0000000000
     26838      1721  TIP3      H1            -22.6448768176        9.7761922469       34.7900581291  TIP3      1529            0.0000000000
     26839      1721  TIP3      H2            -23.2481446731        9.2283621052       33.5801527669  TIP3      1529            0.0000000000
     26840      1722  TIP3      OH2           -30.9413718226       11.4439181699       27.0796562874  TIP3      1530            0.0000000000
     26841      1722  TIP3      H1            -31.2855588277       11.0598689434       26.2431108861  TIP3      1530            0.0000000000
     26842      1722  TIP3      H2            -30.3118510945       10.7605003811       27.3949287649  TIP3      1530            0.0000000000
     26843      1723  TIP3      OH2           -29.6281174466       14.8223380643       29.7292358714  TIP3      1531            0.0000000000
     26844      1723  TIP3      H1            -29.6348706890       14.2973228957       28.9212793263  TIP3      1531            0.0000000000
     26845      1723  TIP3      H2            -28.8483774714       14.4673429086       30.1954487237  TIP3      1531            0.0000000000
     26846      1724  TIP3      OH2           -30.5861658568       10.1824279207       30.7243522847  TIP3      1532            0.0000000000
     26847      1724  TIP3      H1            -30.0561040741       10.3038413471       29.9153088563  TIP3      1532            0.0000000000
     26848      1724  TIP3      H2            -30.2326872551       10.8666157229       31.3369426572  TIP3      1532            0.0000000000
     26849      1725  TIP3      OH2           -24.2148293628       15.7672088276       31.4289644191  TIP3      1533            0.0000000000
     26850      1725  TIP3      H1            -24.4959534559       16.4027682045       32.0963693029  TIP3      1533            0.0000000000
     26851      1725  TIP3      H2            -24.4640636706       14.9092944086       31.8491865416  TIP3      1533            0.0000000000
     26852      1726  TIP3      OH2           -29.6688694791       14.6149777538       35.4160721687  TIP3      1534            0.0000000000
     26853      1726  TIP3      H1            -30.0823686890       15.3579804262       35.9034157643  TIP3      1534            0.0000000000
     26854      1726  TIP3      H2            -30.3380287079       14.4205755792       34.7165467177  TIP3      1534            0.0000000000
     26855      1727  TIP3      OH2           -23.7280608881       10.0486833352       22.8309838390  TIP3      1535            0.0000000000
     26856      1727  TIP3      H1            -23.1184718207       10.1562258949       23.5952019399  TIP3      1535            0.0000000000
     26857      1727  TIP3      H2            -23.2240475106       10.4320548285       22.0888900250  TIP3      1535            0.0000000000
     26858      1728  TIP3      OH2           -32.7310097897       10.7897517926       34.5945503319  TIP3      1536            0.0000000000
     26859      1728  TIP3      H1            -32.6844158706       11.4713200974       35.2877123834  TIP3      1536            0.0000000000
     26860      1728  TIP3      H2            -33.6704378521       10.8765968804       34.3617218630  TIP3      1536            0.0000000000
     26861      1729  TIP3      OH2           -25.9417763829       16.7357583959       26.2356458178  TIP3      1537            0.0000000000
     26862      1729  TIP3      H1            -25.5124161258       16.9977785082       27.0687473980  TIP3      1537            0.0000000000
     26863      1729  TIP3      H2            -26.5502244198       17.4619496411       26.1101478651  TIP3      1537            0.0000000000
     26864      1730  TIP3      OH2           -31.4204420078       16.6406530495       36.1610796642  TIP3      1538            0.0000000000
     26865      1730  TIP3      H1            -31.4958501819       16.5591563535       35.1930725684  TIP3      1538            0.0000000000
     26866      1730  TIP3      H2            -32.3534015105       16.5152436335       36.4259028849  TIP3      1538            0.0000000000
     26867      1731  TIP3      OH2           -31.9500421429       10.4452114690       24.6441072023  TIP3      1539            0.0000000000
     26868      1731  TIP3      H1            -32.2507397335       11.2554527710       24.1710058447  TIP3      1539            0.0000000000
     26869      1731  TIP3      H2            -32.6626519393        9.8335099205       24.4522865954  TIP3      1539            0.0000000000
     26870      1732  TIP3      OH2           -18.8355332244       16.1358197197       21.2145262711  TIP3      1540            0.0000000000
     26871      1732  TIP3      H1            -18.7643956357       17.0878066069       21.1260264676  TIP3      1540            0.0000000000
     26872      1732  TIP3      H2            -18.0139805444       15.7775548441       20.8667006444  TIP3      1540            0.0000000000
     26873      1733  TIP3      OH2           -35.2945088069       12.7622688829       33.3157649048  TIP3      1541            0.0000000000
     26874      1733  TIP3      H1            -36.0674616441       12.8876204083       32.7245137813  TIP3      1541            0.0000000000
     26875      1733  TIP3      H2            -35.6666297115       11.9765179026       33.7788768359  TIP3      1541            0.0000000000
     26876      1734  TIP3      OH2           -35.8259483102       15.8697984409       30.0663819729  TIP3      1542            0.0000000000
     26877      1734  TIP3      H1            -35.0076686628       15.4595857246       30.3569424203  TIP3      1542            0.0000000000
     26878      1734  TIP3      H2            -36.1159069568       16.3282508185       30.8672485258  TIP3      1542            0.0000000000
     26879      1735  TIP3      OH2           -17.8901998240       16.3340952767       36.0405218095  TIP3      1543            0.0000000000
     26880      1735  TIP3      H1            -18.0099229060       15.3756236730       36.0100638692  TIP3      1543            0.0000000000
     26881      1735  TIP3      H2            -18.7645500992       16.5831029447       36.4246800821  TIP3      1543            0.0000000000
     26882      1736  TIP3      OH2           -26.9342658790       15.8722962980       34.9006631139  TIP3      1544            0.0000000000
     26883      1736  TIP3      H1            -26.8758635058       16.7193970411       35.4094593449  TIP3      1544            0.0000000000
     26884      1736  TIP3      H2            -27.8065509915       15.5159039107       35.1548268178  TIP3      1544            0.0000000000
     26885      1737  TIP3      OH2           -32.8812377675       18.5089127275       26.5209160146  TIP3      1545            0.0000000000
     26886      1737  TIP3      H1            -32.7119736188       18.0958723863       27.3987717174  TIP3      1545            0.0000000000
     26887      1737  TIP3      H2            -33.6999340392       18.0482254741       26.2941503224  TIP3      1545            0.0000000000
     26888      1738  TIP3      OH2           -20.8371106215        7.7676547606       36.4686032107  TIP3      1546            0.0000000000
     26889      1738  TIP3      H1            -21.2917984535        8.2286343098       35.7449628745  TIP3      1546            0.0000000000
     26890      1738  TIP3      H2            -20.8170937546        6.8436464024       36.1802541738  TIP3      1546            0.0000000000
     26891      1739  TIP3      OH2           -33.5890755410       14.2926023795       34.5801094988  TIP3      1547            0.0000000000
     26892      1739  TIP3      H1            -33.4059543926       13.8437189366       35.4276544212  TIP3      1547            0.0000000000
     26893      1739  TIP3      H2            -34.4162982757       13.8439041463       34.2935858410  TIP3      1547            0.0000000000
     26894      1740  TIP3      OH2           -30.9113970203        2.7251851155       30.4214183797  TIP3      1548            0.0000000000
     26895      1740  TIP3      H1            -31.8270992080        2.5585193818       30.1058389546  TIP3      1548            0.0000000000
     26896      1740  TIP3      H2            -31.0607916905        3.5069852588       30.9775391721  TIP3      1548            0.0000000000
     26897      1741  TIP3      OH2           -26.2799019214        2.3478863238       33.8219395954  TIP3      1549            0.0000000000
     26898      1741  TIP3      H1            -25.8871033906        1.9274197385       34.6094593862  TIP3      1549            0.0000000000
     26899      1741  TIP3      H2            -27.2508620331        2.2331768387       33.9710315358  TIP3      1549            0.0000000000
     26900      1742  TIP3      OH2           -22.9897815591        6.1940773831       34.7151053066  TIP3      1550            0.0000000000
     26901      1742  TIP3      H1            -23.5365167129        5.9897526238       35.5124017284  TIP3      1550            0.0000000000
     26902      1742  TIP3      H2            -23.1744338134        7.1225966477       34.4954265011  TIP3      1550            0.0000000000
     26903      1743  TIP3      OH2           -26.6127297759        4.9158927011       21.1476760673  TIP3      1551            0.0000000000
     26904      1743  TIP3      H1            -26.9151790839        4.9229661744       22.0690311038  TIP3      1551            0.0000000000
     26905      1743  TIP3      H2            -26.9225751404        4.0591081549       20.8819137987  TIP3      1551            0.0000000000
     26906      1744  TIP3      OH2           -30.8480436717        7.6467232603       31.6932834525  TIP3      1552            0.0000000000
     26907      1744  TIP3      H1            -31.5551394281        7.6533216919       32.3625388523  TIP3      1552            0.0000000000
     26908      1744  TIP3      H2            -30.8530880125        8.5697169088       31.3477822781  TIP3      1552            0.0000000000
     26909      1745  TIP3      OH2           -30.8409278794        7.9748307597       26.6244517462  TIP3      1553            0.0000000000
     26910      1745  TIP3      H1            -31.7996817336        7.8041418501       26.4384624388  TIP3      1553            0.0000000000
     26911      1745  TIP3      H2            -30.4008210475        7.7808936042       25.7630003399  TIP3      1553            0.0000000000
     26912      1746  TIP3      OH2           -25.3663923008        8.2489319815       25.3374835713  TIP3      1554            0.0000000000
     26913      1746  TIP3      H1            -25.7300706635        9.1003159465       25.0031598323  TIP3      1554            0.0000000000
     26914      1746  TIP3      H2            -24.6592824053        8.1011668233       24.6824124081  TIP3      1554            0.0000000000
     26915      1747  TIP3      OH2           -26.2879969554        8.4860325016       36.7861983860  TIP3      1555            0.0000000000
     26916      1747  TIP3      H1            -26.8135318885        7.7103051868       37.0969692056  TIP3      1555            0.0000000000
     26917      1747  TIP3      H2            -25.4501719748        8.3646866585       37.2631817653  TIP3      1555            0.0000000000
     26918      1748  TIP3      OH2           -24.3096442196        7.7643873457       28.1887712730  TIP3      1556            0.0000000000
     26919      1748  TIP3      H1            -24.5882535620        8.3269578144       27.4471536174  TIP3      1556            0.0000000000
     26920      1748  TIP3      H2            -24.2156476676        6.9148363640       27.7165518654  TIP3      1556            0.0000000000
     26921      1749  TIP3      OH2           -33.1836581324        7.8902983013       33.3978785179  TIP3      1557            0.0000000000
     26922      1749  TIP3      H1            -33.1669147716        8.3147013512       34.2708096450  TIP3      1557            0.0000000000
     26923      1749  TIP3      H2            -33.6745708605        7.0790873294       33.5924308997  TIP3      1557            0.0000000000
     26924      1750  TIP3      OH2           -36.1194111530        5.3678508067       27.1824376570  TIP3      1558            0.0000000000
     26925      1750  TIP3      H1            -35.8850094615        4.9854611872       28.0540591968  TIP3      1558            0.0000000000
     26926      1750  TIP3      H2            -36.0816315510        4.5844074782       26.6367920834  TIP3      1558            0.0000000000
     26927      1751  TIP3      OH2           -35.3302940447        5.8643626065       22.6726868451  TIP3      1559            0.0000000000
     26928      1751  TIP3      H1            -34.7574457425        6.4286526760       22.1289140586  TIP3      1559            0.0000000000
     26929      1751  TIP3      H2            -36.0311655199        6.4494391290       22.9563788847  TIP3      1559            0.0000000000
     26930      1752  TIP3      OH2           -25.1095098244        9.3480194530       32.7486403788  TIP3      1560            0.0000000000
     26931      1752  TIP3      H1            -24.7321090712        8.6608851619       32.1622138046  TIP3      1560            0.0000000000
     26932      1752  TIP3      H2            -25.5790386082        8.8218967119       33.4209945618  TIP3      1560            0.0000000000
     26933      1753  TIP3      OH2           -28.3573570579        5.3497537908       27.5786784975  TIP3      1561            0.0000000000
     26934      1753  TIP3      H1            -29.2541481762        5.3090134254       27.9627317757  TIP3      1561            0.0000000000
     26935      1753  TIP3      H2            -27.8127581954        5.1606484718       28.3678889863  TIP3      1561            0.0000000000
     26936      1754  TIP3      OH2           -33.3765351438        6.8774165637       26.3576784469  TIP3      1562            0.0000000000
     26937      1754  TIP3      H1            -34.3133292470        7.0864370438       26.1064051187  TIP3      1562            0.0000000000
     26938      1754  TIP3      H2            -33.3728415502        5.9551811038       26.0671340409  TIP3      1562            0.0000000000
     26939      1755  TIP3      OH2           -29.8963922153        7.0480544547       24.2390726208  TIP3      1563            0.0000000000
     26940      1755  TIP3      H1            -28.9128277759        6.9861765768       24.2171676481  TIP3      1563            0.0000000000
     26941      1755  TIP3      H2            -30.0764467606        7.5199906768       23.4049944571  TIP3      1563            0.0000000000
     26942      1756  TIP3      OH2           -23.9033155893        4.5530542129       30.8264204356  TIP3      1564            0.0000000000
     26943      1756  TIP3      H1            -24.5875475804        4.6112148863       31.5291018773  TIP3      1564            0.0000000000
     26944      1756  TIP3      H2            -24.4132128181        4.3060791664       30.0415030083  TIP3      1564            0.0000000000
     26945      1757  TIP3      OH2           -20.7068801919       20.2099443838       37.1505540657  TIP3      1565            0.0000000000
     26946      1757  TIP3      H1            -20.4276668126       20.5749074289       36.2924672662  TIP3      1565            0.0000000000
     26947      1757  TIP3      H2            -19.9794593904       20.5251962373       37.7087521571  TIP3      1565            0.0000000000
     26948      1758  TIP3      OH2           -33.0485117177       12.6527543130       36.7322103282  TIP3      1566            0.0000000000
     26949      1758  TIP3      H1            -32.3072938903       12.9059495746       37.3166744332  TIP3      1566            0.0000000000
     26950      1758  TIP3      H2            -33.7962700991       12.7729327874       37.3412572512  TIP3      1566            0.0000000000
     26951      1759  TIP3      OH2           -27.0638174295        8.0603155170       29.4479827427  TIP3      1567            0.0000000000
     26952      1759  TIP3      H1            -26.4018615047        7.5608113303       28.9559686162  TIP3      1567            0.0000000000
     26953      1759  TIP3      H2            -27.1727524195        7.5390366615       30.2549438773  TIP3      1567            0.0000000000
     26954      1760  TIP3      OH2           -32.0680311584        4.1149604783       25.8306849512  TIP3      1568            0.0000000000
     26955      1760  TIP3      H1            -32.3662823888        3.1982815427       25.9642266634  TIP3      1568            0.0000000000
     26956      1760  TIP3      H2            -31.2494559508        3.9674611042       25.3315322240  TIP3      1568            0.0000000000
     26957      1761  TIP3      OH2           -28.3879233268        6.4113026420       31.8924783500  TIP3      1569            0.0000000000
     26958      1761  TIP3      H1            -29.2118911419        6.9305027226       31.9791397492  TIP3      1569            0.0000000000
     26959      1761  TIP3      H2            -27.8322230163        6.7635493063       32.6143536532  TIP3      1569            0.0000000000
     26960      1762  TIP3      OH2           -27.8307787352       12.6641884393       23.5901838850  TIP3      1570            0.0000000000
     26961      1762  TIP3      H1            -28.5762741385       12.1305768967       23.2492270476  TIP3      1570            0.0000000000
     26962      1762  TIP3      H2            -28.0270530535       12.7009427719       24.5489392852  TIP3      1570            0.0000000000
     26963      1763  TIP3      OH2           -20.5841965527       11.8088814879       32.4074332666  TIP3      1571            0.0000000000
     26964      1763  TIP3      H1            -20.0440296503       12.3136822211       31.7704203745  TIP3      1571            0.0000000000
     26965      1763  TIP3      H2            -21.4516305366       11.8700313598       31.9542528202  TIP3      1571            0.0000000000
     26966      1764  TIP3      OH2           -26.3118610272       12.8926834263       34.8219806622  TIP3      1572            0.0000000000
     26967      1764  TIP3      H1            -26.6504139648       12.4723542329       35.6197205619  TIP3      1572            0.0000000000
     26968      1764  TIP3      H2            -26.5583932994       13.8180146608       34.9370140080  TIP3      1572            0.0000000000
     26969      1765  TIP3      OH2           -23.2430100528        7.3694294296       23.4651928156  TIP3      1573            0.0000000000
     26970      1765  TIP3      H1            -22.3257699503        7.2403851695       23.7641021508  TIP3      1573            0.0000000000
     26971      1765  TIP3      H2            -23.1564161815        8.1330963078       22.8514588366  TIP3      1573            0.0000000000
     26972      1766  TIP3      OH2           -32.6947286268       12.0286015384       29.3747091595  TIP3      1574            0.0000000000
     26973      1766  TIP3      H1            -32.0200436064       11.9484907617       28.6803574389  TIP3      1574            0.0000000000
     26974      1766  TIP3      H2            -32.5977584770       11.1899754993       29.8558171444  TIP3      1574            0.0000000000
     26975      1767  TIP3      OH2           -35.7299614572       10.4116109649       34.6533098429  TIP3      1575            0.0000000000
     26976      1767  TIP3      H1            -35.4705191078        9.9713682875       35.4859196927  TIP3      1575            0.0000000000
     26977      1767  TIP3      H2            -36.3177166015        9.7707545965       34.2292102462  TIP3      1575            0.0000000000
     26978      1768  TIP3      OH2           -28.6855649845        9.9947722044       36.8262483156  TIP3      1576            0.0000000000
     26979      1768  TIP3      H1            -29.0054095501        9.6832826962       35.9672859712  TIP3      1576            0.0000000000
     26980      1768  TIP3      H2            -27.7636391037        9.6678075687       36.8255802854  TIP3      1576            0.0000000000
     26981      1769  TIP3      OH2           -23.9993848492       15.3260974192       34.7793723810  TIP3      1577            0.0000000000
     26982      1769  TIP3      H1            -24.9250333075       15.5070552271       34.5490150361  TIP3      1577            0.0000000000
     26983      1769  TIP3      H2            -24.0312378482       15.6194610675       35.7119482791  TIP3      1577            0.0000000000
     26984      1770  TIP3      OH2           -18.3030035779        7.5348485705       23.1691159693  TIP3      1578            0.0000000000
     26985      1770  TIP3      H1            -18.8887180786        7.2070022390       22.4658670103  TIP3      1578            0.0000000000
     26986      1770  TIP3      H2            -18.2927313322        8.4599007871       22.8923920076  TIP3      1578            0.0000000000
     26987      1771  TIP3      OH2           -18.3461819365       13.3140305259       35.9712123756  TIP3      1579            0.0000000000
     26988      1771  TIP3      H1            -19.2305130998       13.6039937251       35.6234591509  TIP3      1579            0.0000000000
     26989      1771  TIP3      H2            -17.8032930738       13.3732457856       35.1572689999  TIP3      1579            0.0000000000
     26990      1772  TIP3      OH2           -19.9774184450       16.3378477449       23.5850493716  TIP3      1580            0.0000000000
     26991      1772  TIP3      H1            -20.4221367918       15.5438244910       23.9059984454  TIP3      1580            0.0000000000
     26992      1772  TIP3      H2            -19.7738397769       16.1120991135       22.6502501815  TIP3      1580            0.0000000000
     26993      1773  TIP3      OH2           -22.8336163828       11.1549264086       30.6708749736  TIP3      1581            0.0000000000
     26994      1773  TIP3      H1            -23.7746948506       10.9425742730       30.5654346444  TIP3      1581            0.0000000000
     26995      1773  TIP3      H2            -22.4047512469       10.3935336676       30.2367736399  TIP3      1581            0.0000000000
     26996      1774  TIP3      OH2           -30.3348531583       15.4737731902       26.7365222528  TIP3      1582            0.0000000000
     26997      1774  TIP3      H1            -29.8314513073       16.2930780944       26.6052863123  TIP3      1582            0.0000000000
     26998      1774  TIP3      H2            -31.2317561234       15.7349236331       26.4924180085  TIP3      1582            0.0000000000
     26999      1775  TIP3      OH2           -34.5349799957       10.2985716342       21.4624165485  TIP3      1583            0.0000000000
     27000      1775  TIP3      H1            -33.9327786964       11.0101140544       21.7018956218  TIP3      1583            0.0000000000
     27001      1775  TIP3      H2            -35.4089999807       10.6869295919       21.5591697111  TIP3      1583            0.0000000000
     27002      1776  TIP3      OH2           -28.8983764407       13.1714695489       26.2634936931  TIP3      1584            0.0000000000
     27003      1776  TIP3      H1            -29.2171524428       14.0783774665       26.4086660346  TIP3      1584            0.0000000000
     27004      1776  TIP3      H2            -29.5995256258       12.6629621523       26.7205217796  TIP3      1584            0.0000000000
     27005      1777  TIP3      OH2           -28.4394625009       17.3287703475       32.6969228638  TIP3      1585            0.0000000000
     27006      1777  TIP3      H1            -27.9922584576       18.1404356911       32.4131634206  TIP3      1585            0.0000000000
     27007      1777  TIP3      H2            -27.8215777760       16.9891131435       33.3680940904  TIP3      1585            0.0000000000
     27008      1778  TIP3      OH2           -30.2069664940       18.1252587321       25.8211240720  TIP3      1586            0.0000000000
     27009      1778  TIP3      H1            -31.1620054451       18.2725939174       25.9870061445  TIP3      1586            0.0000000000
     27010      1778  TIP3      H2            -29.8516594864       18.9565218790       26.1859760062  TIP3      1586            0.0000000000
     27011      1779  TIP3      OH2           -24.9313938292       13.3268720471       32.3188002815  TIP3      1587            0.0000000000
     27012      1779  TIP3      H1            -25.2515691017       13.1374839705       33.2255433173  TIP3      1587            0.0000000000
     27013      1779  TIP3      H2            -24.2875484570       12.6197617306       32.1530053112  TIP3      1587            0.0000000000
     27014      1780  TIP3      OH2           -22.1056221952       17.9113495512       34.8071109207  TIP3      1588            0.0000000000
     27015      1780  TIP3      H1            -22.8008520800       17.4195072160       34.3301345302  TIP3      1588            0.0000000000
     27016      1780  TIP3      H2            -21.9260617370       18.6132947896       34.1467196307  TIP3      1588            0.0000000000
     27017      1781  TIP3      OH2           -34.0463877180        5.1708358790       34.1644254717  TIP3      1589            0.0000000000
     27018      1781  TIP3      H1            -34.9342754398        5.5431917114       34.2494613560  TIP3      1589            0.0000000000
     27019      1781  TIP3      H2            -34.1615176776        4.3335226061       34.6449215756  TIP3      1589            0.0000000000
     27020      1782  TIP3      OH2           -21.8400402290       13.0948879212       23.8167447754  TIP3      1590            0.0000000000
     27021      1782  TIP3      H1            -22.0598059415       12.2187405789       24.1879743184  TIP3      1590            0.0000000000
     27022      1782  TIP3      H2            -20.8820722013       13.0523878535       23.7733552866  TIP3      1590            0.0000000000
     27023      1783  TIP3      OH2           -34.2665557781       17.0025800949       32.5804044671  TIP3      1591            0.0000000000
     27024      1783  TIP3      H1            -34.1487747136       16.0437952253       32.6383358586  TIP3      1591            0.0000000000
     27025      1783  TIP3      H2            -34.1824656693       17.2347648624       33.5109262024  TIP3      1591            0.0000000000
     27026      1784  TIP3      OH2           -33.1637388469       12.2573375638       22.8995920227  TIP3      1592            0.0000000000
     27027      1784  TIP3      H1            -33.9104709740       12.6490494544       23.4088273274  TIP3      1592            0.0000000000
     27028      1784  TIP3      H2            -32.6625863714       13.0192823055       22.5933046211  TIP3      1592            0.0000000000
     27029      1785  TIP3      OH2           -25.3160067243        4.9401850926       33.1645009221  TIP3      1593            0.0000000000
     27030      1785  TIP3      H1            -24.6026187134        5.0004704236       33.8079838900  TIP3      1593            0.0000000000
     27031      1785  TIP3      H2            -25.6994573996        4.0637288241       33.3675548534  TIP3      1593            0.0000000000
     27032      1786  TIP3      OH2           -24.5136514844        4.5324612949       24.2114464392  TIP3      1594            0.0000000000
     27033      1786  TIP3      H1            -24.3929513658        5.1072484557       23.4513651742  TIP3      1594            0.0000000000
     27034      1786  TIP3      H2            -23.9979264431        4.9678147168       24.9039159707  TIP3      1594            0.0000000000
     27035      1787  TIP3      OH2           -27.4056895352        6.3002305706       25.0534100154  TIP3      1595            0.0000000000
     27036      1787  TIP3      H1            -26.5701912048        6.8213104293       25.0674079422  TIP3      1595            0.0000000000
     27037      1787  TIP3      H2            -27.5639095220        6.1308625441       25.9990019622  TIP3      1595            0.0000000000
     27038      1788  TIP3      OH2           -26.7819309960        7.2935299662       34.2592959171  TIP3      1596            0.0000000000
     27039      1788  TIP3      H1            -26.7135959282        7.8440944876       35.0619448244  TIP3      1596            0.0000000000
     27040      1788  TIP3      H2            -26.1271056537        6.5907635963       34.3570263135  TIP3      1596            0.0000000000
     27041      1789  TIP3      OH2           -26.5094144528        3.3502603592       25.9546795567  TIP3      1597            0.0000000000
     27042      1789  TIP3      H1            -26.7963445983        3.9811768056       26.6338886270  TIP3      1597            0.0000000000
     27043      1789  TIP3      H2            -25.7897360475        3.8594967613       25.5086706911  TIP3      1597            0.0000000000
     27044      1790  TIP3      OH2           -20.5881416915        5.1707802638       35.0955954010  TIP3      1598            0.0000000000
     27045      1790  TIP3      H1            -21.5252590454        5.4706425656       34.9827174349  TIP3      1598            0.0000000000
     27046      1790  TIP3      H2            -20.3250807810        5.1157064727       34.1648910359  TIP3      1598            0.0000000000
     27047      1791  TIP3      OH2           -22.0092950458        8.9449128492       29.1252394599  TIP3      1599            0.0000000000
     27048      1791  TIP3      H1            -22.8251168520        8.4930275521       28.8364107668  TIP3      1599            0.0000000000
     27049      1791  TIP3      H2            -21.5154427397        8.2536129699       29.6202771850  TIP3      1599            0.0000000000
     27050      1792  TIP3      OH2           -20.9348485208       18.2021708745       30.7805966005  TIP3      1600            0.0000000000
     27051      1792  TIP3      H1            -21.0254777936       18.8786084782       30.0799220100  TIP3      1600            0.0000000000
     27052      1792  TIP3      H2            -19.9703739602       18.2563677829       30.9570378367  TIP3      1600            0.0000000000
     27053      1793  TIP3      OH2           -33.4058450102        2.3144787370       29.5679621480  TIP3      1601            0.0000000000
     27054      1793  TIP3      H1            -33.6519742603        2.3492670108       28.6258760303  TIP3      1601            0.0000000000
     27055      1793  TIP3      H2            -33.8519233075        1.4851411219       29.8400828322  TIP3      1601            0.0000000000
     27056      1794  TIP3      OH2           -34.4624666903       16.2479655620       25.7093143581  TIP3      1602            0.0000000000
     27057      1794  TIP3      H1            -35.3288359277       16.6661735008       25.7284781096  TIP3      1602            0.0000000000
     27058      1794  TIP3      H2            -33.9994613829       16.7369579561       25.0230914036  TIP3      1602            0.0000000000
     27059      1795  TIP3      OH2           -34.9732780310       18.9216997762       37.0074820457  TIP3      1603            0.0000000000
     27060      1795  TIP3      H1            -34.5641219653       18.6914078900       37.8558175966  TIP3      1603            0.0000000000
     27061      1795  TIP3      H2            -35.5036188498       18.1146045471       36.8510278041  TIP3      1603            0.0000000000
     27062      1796  TIP3      OH2           -30.6076305959       17.7876162530       38.6475310405  TIP3      1604            0.0000000000
     27063      1796  TIP3      H1            -29.8141787555       17.3177053440       38.9307212257  TIP3      1604            0.0000000000
     27064      1796  TIP3      H2            -30.6197332244       17.5600165814       37.6929406499  TIP3      1604            0.0000000000
     27065      1797  TIP3      OH2           -24.0741502189       16.1692927353       37.3532831025  TIP3      1605            0.0000000000
     27066      1797  TIP3      H1            -24.4081068457       15.2999764254       37.6575305070  TIP3      1605            0.0000000000
     27067      1797  TIP3      H2            -23.3342728141       16.3299519436       37.9720216873  TIP3      1605            0.0000000000
     27068      1798  TIP3      OH2           -35.4052737701       12.6731768591       38.0048949800  TIP3      1606            0.0000000000
     27069      1798  TIP3      H1            -35.1914501942       11.7772323780       37.6824794997  TIP3      1606            0.0000000000
     27070      1798  TIP3      H2            -36.1225407696       12.9468900281       37.4238296248  TIP3      1606            0.0000000000
     27071      1799  TIP3      OH2           -30.9217517819       13.0099898731       20.2104913947  TIP3      1607            0.0000000000
     27072      1799  TIP3      H1            -30.8894879481       12.1465654346       20.6213297218  TIP3      1607            0.0000000000
     27073      1799  TIP3      H2            -30.3586173388       12.9209527039       19.4282861659  TIP3      1607            0.0000000000
     27074      1800  TIP3      OH2           -28.6547162218       12.6550279531       37.4016294771  TIP3      1608            0.0000000000
     27075      1800  TIP3      H1            -28.9877125342       12.9699040140       36.5375417924  TIP3      1608            0.0000000000
     27076      1800  TIP3      H2            -28.5799891953       11.6784962280       37.2917853947  TIP3      1608            0.0000000000
     27077      1801  TIP3      OH2           -22.9571181860       12.5175831583       34.7918683573  TIP3      1609            0.0000000000
     27078      1801  TIP3      H1            -22.1683318417       13.0981329996       34.7316995010  TIP3      1609            0.0000000000
     27079      1801  TIP3      H2            -23.6563977420       13.1862767361       34.8278050395  TIP3      1609            0.0000000000
     27080      1802  TIP3      OH2           -34.5147707146        9.8825455322       37.3869421640  TIP3      1610            0.0000000000
     27081      1802  TIP3      H1            -34.0296677618        9.0427690133       37.3040417920  TIP3      1610            0.0000000000
     27082      1802  TIP3      H2            -34.6885084831        9.8923266977       38.3398114730  TIP3      1610            0.0000000000
     27083      1803  TIP3      OH2           -29.8281724010       10.9990951004       22.4166541456  TIP3      1611            0.0000000000
     27084      1803  TIP3      H1            -30.3085583400       10.5214392540       23.1107636688  TIP3      1611            0.0000000000
     27085      1803  TIP3      H2            -29.5434112590       10.2991872872       21.8128069382  TIP3      1611            0.0000000000
     27086      1804  TIP3      OH2           -30.5542210083        8.8380256210       34.7521788209  TIP3      1612            0.0000000000
     27087      1804  TIP3      H1            -31.1520002217        9.5544727665       35.0216841034  TIP3      1612            0.0000000000
     27088      1804  TIP3      H2            -30.1570828015        9.2097784563       33.9455409273  TIP3      1612            0.0000000000
     27089      1805  TIP3      OH2           -25.4759506969       11.4079878611       38.0860403325  TIP3      1613            0.0000000000
     27090      1805  TIP3      H1            -24.5190480165       11.3928419215       37.9624453592  TIP3      1613            0.0000000000
     27091      1805  TIP3      H2            -25.6482478632       10.6416688936       38.6562418021  TIP3      1613            0.0000000000
     27092      1806  TIP3      OH2           -30.1154374332        6.2209876976       35.8072468483  TIP3      1614            0.0000000000
     27093      1806  TIP3      H1            -30.0264791012        5.5083995505       35.1493518973  TIP3      1614            0.0000000000
     27094      1806  TIP3      H2            -30.2120169470        7.0273240199       35.2597282684  TIP3      1614            0.0000000000
     27095      1807  TIP3      OH2           -29.7379935668        4.6008367535       33.3538380627  TIP3      1615            0.0000000000
     27096      1807  TIP3      H1            -29.2281106628        5.0620939266       32.6455575396  TIP3      1615            0.0000000000
     27097      1807  TIP3      H2            -30.6336839248        4.5209717473       32.9513890213  TIP3      1615            0.0000000000
     27098      1808  TIP3      OH2           -28.2053289093       10.0875608460       33.6041945468  TIP3      1616            0.0000000000
     27099      1808  TIP3      H1            -27.4508937454        9.9229496752       33.0320848426  TIP3      1616            0.0000000000
     27100      1808  TIP3      H2            -28.5676941216       10.9222387827       33.2665642087  TIP3      1616            0.0000000000
     27101      1809  TIP3      OH2           -23.8079764205        7.8399307602       38.5643028168  TIP3      1617            0.0000000000
     27102      1809  TIP3      H1            -23.5770559505        6.9040579938       38.4759496016  TIP3      1617            0.0000000000
     27103      1809  TIP3      H2            -22.9429315267        8.2809703618       38.5978902804  TIP3      1617            0.0000000000
     27104      1810  TIP3      OH2           -22.4484048231       10.6389946927       36.7303977074  TIP3      1618            0.0000000000
     27105      1810  TIP3      H1            -22.7111223524       11.3557103842       36.1132636573  TIP3      1618            0.0000000000
     27106      1810  TIP3      H2            -21.4975038744       10.6108649958       36.5351199111  TIP3      1618            0.0000000000
     27107      1811  TIP3      OH2           -31.7111758971        7.4809229014       37.7160883361  TIP3      1619            0.0000000000
     27108      1811  TIP3      H1            -32.4707160918        6.8785447904       37.5631425347  TIP3      1619            0.0000000000
     27109      1811  TIP3      H2            -31.0464315889        7.0981520626       37.1131650769  TIP3      1619            0.0000000000
     27110      1812  TIP3      OH2           -28.9539309228        2.0368573529       33.7485617498  TIP3      1620            0.0000000000
     27111      1812  TIP3      H1            -29.1369179594        2.9988996440       33.6507366698  TIP3      1620            0.0000000000
     27112      1812  TIP3      H2            -29.7014877569        1.6671158881       33.2473200489  TIP3      1620            0.0000000000
     27113      1813  TIP3      OH2           -27.6748692594        6.3639798627       37.3781860935  TIP3      1621            0.0000000000
     27114      1813  TIP3      H1            -27.9965386452        6.1318485078       38.2721144611  TIP3      1621            0.0000000000
     27115      1813  TIP3      H2            -28.4611855800        6.1627499734       36.8372093864  TIP3      1621            0.0000000000
     27116      1814  TIP3      OH2           -24.9602434809        5.5099088271       36.4688775511  TIP3      1622            0.0000000000
     27117      1814  TIP3      H1            -25.9257053683        5.5620735314       36.5762870998  TIP3      1622            0.0000000000
     27118      1814  TIP3      H2            -24.6971166689        4.8677340695       37.1557365556  TIP3      1622            0.0000000000
     27119      1815  TIP3      OH2           -23.3786023360        4.1273175962       38.3668737361  TIP3      1623            0.0000000000
     27120      1815  TIP3      H1            -23.4276422720        3.1494914369       38.3975989263  TIP3      1623            0.0000000000
     27121      1815  TIP3      H2            -23.6281867149        4.4197446734       39.2659253348  TIP3      1623            0.0000000000
     27122      1816  TIP3      OH2           -33.4546991896        5.3782514420       37.5169240189  TIP3      1624            0.0000000000
     27123      1816  TIP3      H1            -33.3528057869        4.6454440971       36.8834210818  TIP3      1624            0.0000000000
     27124      1816  TIP3      H2            -33.6723394369        4.9214153503       38.3499348137  TIP3      1624            0.0000000000
     27125      1817  TIP3      OH2           -28.7380725569        1.4287103185       36.4497205212  TIP3      1625            0.0000000000
     27126      1817  TIP3      H1            -28.0587410925        0.7250232621       36.4325295954  TIP3      1625            0.0000000000
     27127      1817  TIP3      H2            -28.8526602214        1.5712489389       35.4895698983  TIP3      1625            0.0000000000
     27128      1818  TIP3      OH2           -28.3762935432        3.0412852206       38.5666288759  TIP3      1626            0.0000000000
     27129      1818  TIP3      H1            -28.5497577206        2.5362522096       37.7335717341  TIP3      1626            0.0000000000
     27130      1818  TIP3      H2            -28.9755907062        3.8061637447       38.4656106984  TIP3      1626            0.0000000000
     27131      1819  TIP3      OH2           -35.2646549389       14.5169312046       21.2213609485  TIP3      1627            0.0000000000
     27132      1819  TIP3      H1            -34.3275931299       14.6196975154       21.3676164604  TIP3      1627            0.0000000000
     27133      1819  TIP3      H2            -35.3015303189       13.9249569444       20.4540343705  TIP3      1627            0.0000000000
     27134      1820  TIP3      OH2            36.8803231530       20.0478065525       25.9644170867  TIP3      1628            0.0000000000
     27135      1820  TIP3      H1             35.9449323642       19.8698569558       25.7175434192  TIP3      1628            0.0000000000
     27136      1820  TIP3      H2             36.9497038919       19.4550796463       26.7561052253  TIP3      1628            0.0000000000
     27137      1821  TIP3      OH2           -35.7250210970       18.0828248367       28.0089323627  TIP3      1629            0.0000000000
     27138      1821  TIP3      H1            -36.0841166465       17.1971100984       28.2404978390  TIP3      1629            0.0000000000
     27139      1821  TIP3      H2            -35.4787524453       18.3670900293       28.9075881998  TIP3      1629            0.0000000000
     27140      1822  TIP3      OH2           -18.2398849126       18.8594638949       31.0011337573  TIP3      1630            0.0000000000
     27141      1822  TIP3      H1            -18.1828895530       19.0115663431       31.9579098098  TIP3      1630            0.0000000000
     27142      1822  TIP3      H2            -17.5199795835       19.4190068728       30.6824673603  TIP3      1630            0.0000000000
     27143      1823  TIP3      OH2           -18.6348263051       18.4359798958       33.9242813325  TIP3      1631            0.0000000000
     27144      1823  TIP3      H1            -19.1110102746       17.6692727643       33.5431072023  TIP3      1631            0.0000000000
     27145      1823  TIP3      H2            -18.1520450492       17.9926919007       34.6396430151  TIP3      1631            0.0000000000
     27146      1824  TIP3      OH2           -20.1904790683       14.1558733965       38.6011079047  TIP3      1632            0.0000000000
     27147      1824  TIP3      H1            -21.0962081212       14.1338355887       38.9661804675  TIP3      1632            0.0000000000
     27148      1824  TIP3      H2            -19.8274774704       14.9707752558       39.0043705767  TIP3      1632            0.0000000000
     27149      1825  TIP3      OH2           -18.4850469204       10.5540357189       25.8996327430  TIP3      1633            0.0000000000
     27150      1825  TIP3      H1            -19.2480512229       10.0599007757       26.2657136154  TIP3      1633            0.0000000000
     27151      1825  TIP3      H2            -17.9266990646       10.6948932402       26.6794229214  TIP3      1633            0.0000000000
     27152      1826  TIP3      OH2           -18.7580010974       13.2521836935       30.9105536274  TIP3      1634            0.0000000000
     27153      1826  TIP3      H1            -17.9465514440       12.8835234957       30.5218985247  TIP3      1634            0.0000000000
     27154      1826  TIP3      H2            -18.6210495277       14.2084720429       30.7402814031  TIP3      1634            0.0000000000
     27155      1827  TIP3      OH2           -20.2041596127       16.1701055239       33.1680698476  TIP3      1635            0.0000000000
     27156      1827  TIP3      H1            -20.8970046461       16.5152512225       33.7555870143  TIP3      1635            0.0000000000
     27157      1827  TIP3      H2            -20.7527522550       15.7672478627       32.4611567046  TIP3      1635            0.0000000000
     27158      1828  TIP3      OH2           -20.6916093749        9.0484944191       26.5028416212  TIP3      1636            0.0000000000
     27159      1828  TIP3      H1            -20.8629017458        8.0997859343       26.4384666564  TIP3      1636            0.0000000000
     27160      1828  TIP3      H2            -21.0277159923        9.2738263177       27.3900826849  TIP3      1636            0.0000000000
     27161      1829  TIP3      OH2           -35.6769676528       11.1113465238       30.4667807961  TIP3      1637            0.0000000000
     27162      1829  TIP3      H1            -35.4764355075       11.0731235838       29.5091836353  TIP3      1637            0.0000000000
     27163      1829  TIP3      H2            -34.7963906628       11.0015064160       30.8835742785  TIP3      1637            0.0000000000
     27164      1830  TIP3      OH2           -19.8239057098       11.0080824192       36.1336709402  TIP3      1638            0.0000000000
     27165      1830  TIP3      H1            -19.2827730023       10.2491196971       36.3740943908  TIP3      1638            0.0000000000
     27166      1830  TIP3      H2            -19.2554120271       11.8096962127       36.1925695497  TIP3      1638            0.0000000000
     27167      1831  TIP3      OH2           -18.6240794475        8.7223424876       37.1633311520  TIP3      1639            0.0000000000
     27168      1831  TIP3      H1            -19.4579557985        8.4045372853       36.7350584085  TIP3      1639            0.0000000000
     27169      1831  TIP3      H2            -18.0502094819        7.9500489256       36.9550633326  TIP3      1639            0.0000000000
     27170      1832  TIP3      OH2           -21.0271068986        6.5862408131       24.9107660567  TIP3      1640            0.0000000000
     27171      1832  TIP3      H1            -20.7017375785        5.7125665281       25.1383081792  TIP3      1640            0.0000000000
     27172      1832  TIP3      H2            -20.2451723325        7.0420982685       24.5618520451  TIP3      1640            0.0000000000
     27173      1833  TIP3      OH2           -20.3893913368        7.1722514027       30.3985897405  TIP3      1641            0.0000000000
     27174      1833  TIP3      H1            -19.4304605578        7.4043548229       30.3759957418  TIP3      1641            0.0000000000
     27175      1833  TIP3      H2            -20.5774339597        7.3125829652       31.3356242867  TIP3      1641            0.0000000000
     27176      1834  TIP3      OH2           -20.2981446009        7.9032209279       33.2222354904  TIP3      1642            0.0000000000
     27177      1834  TIP3      H1            -21.2133539660        8.1698243922       33.4684076620  TIP3      1642            0.0000000000
     27178      1834  TIP3      H2            -19.9135863423        8.7560969738       32.9172833093  TIP3      1642            0.0000000000
     27179      1835  TIP3      OH2           -35.8029467137        6.2976182705       36.6765323149  TIP3      1643            0.0000000000
     27180      1835  TIP3      H1            -34.9170020052        6.1120747264       37.0160831345  TIP3      1643            0.0000000000
     27181      1835  TIP3      H2            -36.3809057430        5.6146148220       37.0982420258  TIP3      1643            0.0000000000
     27182      1836  TIP3      OH2           -18.0632389412        1.9542303333       38.5028132658  TIP3      1644            0.0000000000
     27183      1836  TIP3      H1            -17.7013071937        1.2922785530       37.8874575951  TIP3      1644            0.0000000000
     27184      1836  TIP3      H2            -17.9512909850        2.7646246055       37.9734735866  TIP3      1644            0.0000000000
     27185      1837  TIP3      OH2           -34.8066866299        4.6748728780       29.4766737781  TIP3      1645            0.0000000000
     27186      1837  TIP3      H1            -34.3908940897        3.8777200981       29.8506934377  TIP3      1645            0.0000000000
     27187      1837  TIP3      H2            -34.3524364714        5.3781437120       29.9749370752  TIP3      1645            0.0000000000
     27188      1838  TIP3      OH2           -36.0128821067        8.4710653011       30.9405256949  TIP3      1646            0.0000000000
     27189      1838  TIP3      H1            -35.9832943275        8.0449812937       30.0595938331  TIP3      1646            0.0000000000
     27190      1838  TIP3      H2            -35.9407001744        9.3879641743       30.6643482669  TIP3      1646            0.0000000000
     27191      1839  TIP3      OH2           -18.5228260501        4.0976669659       36.8420749379  TIP3      1647            0.0000000000
     27192      1839  TIP3      H1            -19.4796833105        4.3081013160       36.8230899862  TIP3      1647            0.0000000000
     27193      1839  TIP3      H2            -18.4980119482        3.5008327225       36.0751715233  TIP3      1647            0.0000000000
     27194      1840  TIP3      OH2           -35.7022583309        3.9317083469       24.2533493525  TIP3      1648            0.0000000000
     27195      1840  TIP3      H1            -36.6557683289        4.0988849042       24.3856492733  TIP3      1648            0.0000000000
     27196      1840  TIP3      H2            -35.5399591287        4.6848437473       23.6506950388  TIP3      1648            0.0000000000
     27197      1841  TIP3      OH2           -21.4906491786       18.9318705314       26.5916516979  TIP3      1649            0.0000000000
     27198      1841  TIP3      H1            -20.8102729951       18.6331982569       25.9617499526  TIP3      1649            0.0000000000
     27199      1841  TIP3      H2            -20.9774851213       19.4385171968       27.2390123035  TIP3      1649            0.0000000000
     27200      1842  TIP3      OH2            37.0302426167        2.6011927599       33.1671421330  TIP3      1650            0.0000000000
     27201      1842  TIP3      H1             36.2421113694        2.3891270295       33.6924014574  TIP3      1650            0.0000000000
     27202      1842  TIP3      H2             36.5466319840        3.1155848897       32.4976997188  TIP3      1650            0.0000000000
     27203      1843  TIP3      OH2           -34.0743964504       15.8598426643       37.1259297159  TIP3      1651            0.0000000000
     27204      1843  TIP3      H1            -34.9205814937       16.0351531001       36.6972436870  TIP3      1651            0.0000000000
     27205      1843  TIP3      H2            -34.3291509043       15.7579070432       38.0437646499  TIP3      1651            0.0000000000
     27206      1844  TIP3      OH2           -31.1115786745       16.8565686734       33.4282813922  TIP3      1652            0.0000000000
     27207      1844  TIP3      H1            -31.5061099141       17.6921915725       33.1250159247  TIP3      1652            0.0000000000
     27208      1844  TIP3      H2            -30.2022043570       16.9468741175       33.0833709404  TIP3      1652            0.0000000000
     27209      1845  TIP3      OH2           -26.8125713528       18.2222493158       36.2708843475  TIP3      1653            0.0000000000
     27210      1845  TIP3      H1            -26.6959037801       17.9446792518       37.2127419743  TIP3      1653            0.0000000000
     27211      1845  TIP3      H2            -25.9231225525       18.5893031092       36.0756115975  TIP3      1653            0.0000000000
     27212      1846  TIP3      OH2           -24.5238141029       19.5393779413       35.5830483158  TIP3      1654            0.0000000000
     27213      1846  TIP3      H1            -23.7840742670       18.9532841896       35.3766591395  TIP3      1654            0.0000000000
     27214      1846  TIP3      H2            -24.1941090573       19.9643322570       36.4116769845  TIP3      1654            0.0000000000
     27215      1847  TIP3      OH2           -19.5134476304        2.1440314337       34.7208588166  TIP3      1655            0.0000000000
     27216      1847  TIP3      H1            -20.3442752964        2.4415471461       34.3089750582  TIP3      1655            0.0000000000
     27217      1847  TIP3      H2            -19.3503491366        1.3267407040       34.2045072778  TIP3      1655            0.0000000000
     27218      1848  TIP3      OH2           -33.6847010794       20.0803985819       33.4099487111  TIP3      1656            0.0000000000
     27219      1848  TIP3      H1            -34.4346763477       20.5686498350       33.0155382175  TIP3      1656            0.0000000000
     27220      1848  TIP3      H2            -34.0323092831       19.8871936504       34.2946488206  TIP3      1656            0.0000000000
     27221      1849  TIP3      OH2           -31.2354835897       19.6598729282       32.4476453632  TIP3      1657            0.0000000000
     27222      1849  TIP3      H1            -32.1320278575       19.7879060948       32.8435082143  TIP3      1657            0.0000000000
     27223      1849  TIP3      H2            -31.2917490110       20.2555923376       31.6809445361  TIP3      1657            0.0000000000
     27224      1850  TIP3      OH2           -26.5384628919       19.5639446847       31.6225110209  TIP3      1658            0.0000000000
     27225      1850  TIP3      H1            -27.0058646697       20.1220319769       30.9821058354  TIP3      1658            0.0000000000
     27226      1850  TIP3      H2            -26.4110243465       20.1915499438       32.3666247032  TIP3      1658            0.0000000000
     27227      1851  TIP3      OH2           -24.2534010409       18.3713963881       32.6587947464  TIP3      1659            0.0000000000
     27228      1851  TIP3      H1            -25.1074301420       18.6506066803       32.2905461567  TIP3      1659            0.0000000000
     27229      1851  TIP3      H2            -23.7676307932       19.2094996918       32.5691325830  TIP3      1659            0.0000000000
     27230      1852  TIP3      OH2           -21.6697896124       19.9408279249       32.8787884633  TIP3      1660            0.0000000000
     27231      1852  TIP3      H1            -21.7232673508       20.9020151301       32.6517668228  TIP3      1660            0.0000000000
     27232      1852  TIP3      H2            -21.4507280792       19.5672849222       32.0023924436  TIP3      1660            0.0000000000
     27233      1853  TIP3      OH2           -34.3097579305       18.7271103622       30.3223771818  TIP3      1661            0.0000000000
     27234      1853  TIP3      H1            -34.3138537709       18.2768138996       31.1923276016  TIP3      1661            0.0000000000
     27235      1853  TIP3      H2            -33.4932730420       18.3498429518       29.9340104263  TIP3      1661            0.0000000000
     27236      1854  TIP3      OH2           -32.2235614728       17.4353714085       29.0070640275  TIP3      1662            0.0000000000
     27237      1854  TIP3      H1            -32.3674984364       16.4958892506       29.2336858087  TIP3      1662            0.0000000000
     27238      1854  TIP3      H2            -31.3447872027       17.5909313042       29.4211518160  TIP3      1662            0.0000000000
     27239      1855  TIP3      OH2           -29.6028414455       17.9075378311       29.8760016319  TIP3      1663            0.0000000000
     27240      1855  TIP3      H1            -29.4213212441       16.9960128545       29.5933085933  TIP3      1663            0.0000000000
     27241      1855  TIP3      H2            -29.5383408857       17.8353842244       30.8406981659  TIP3      1663            0.0000000000
     27242      1856  TIP3      OH2           -26.1200745973        3.5613699702       29.0040254615  TIP3      1664            0.0000000000
     27243      1856  TIP3      H1            -26.8024828352        2.9244108232       29.2799816249  TIP3      1664            0.0000000000
     27244      1856  TIP3      H2            -25.5717102115        3.0306371654       28.4157350592  TIP3      1664            0.0000000000
     27245      1857  TIP3      OH2           -20.9885672226        1.6105766163       29.0720220126  TIP3      1665            0.0000000000
     27246      1857  TIP3      H1            -20.3890075769        2.2221893004       28.5835370420  TIP3      1665            0.0000000000
     27247      1857  TIP3      H2            -21.8728345459        1.9691644714       28.8397730179  TIP3      1665            0.0000000000
     27248      1858  TIP3      OH2           -19.3112595442        2.8591690348       27.3552682841  TIP3      1666            0.0000000000
     27249      1858  TIP3      H1            -18.6242988148        2.2949109135       26.9570904942  TIP3      1666            0.0000000000
     27250      1858  TIP3      H2            -18.8385524171        3.7045015757       27.4872264206  TIP3      1666            0.0000000000
     27251      1859  TIP3      OH2           -33.7042192710        2.1925582957       26.8002438220  TIP3      1667            0.0000000000
     27252      1859  TIP3      H1            -34.5688794858        1.9593037826       26.3886931484  TIP3      1667            0.0000000000
     27253      1859  TIP3      H2            -33.2761081259        1.3120727193       26.8235605794  TIP3      1667            0.0000000000
     27254      1860  TIP3      OH2           -34.9521993187        2.0161271908       22.5808358261  TIP3      1668            0.0000000000
     27255      1860  TIP3      H1            -34.5934908588        2.6593928902       21.9577694978  TIP3      1668            0.0000000000
     27256      1860  TIP3      H2            -35.6060896512        2.5491698946       23.0845599588  TIP3      1668            0.0000000000
     27257      1861  TIP3      OH2           -29.3075824298        2.1960635811       26.6314845655  TIP3      1669            0.0000000000
     27258      1861  TIP3      H1            -28.3638163148        2.4380557459       26.5582483686  TIP3      1669            0.0000000000
     27259      1861  TIP3      H2            -29.3016539228        1.8866202396       27.5439997906  TIP3      1669            0.0000000000
     27260      1862  TIP3      OH2           -23.5448307996        2.1283901847       28.2497533438  TIP3      1670            0.0000000000
     27261      1862  TIP3      H1            -23.6347797174        2.2378713714       27.2953005840  TIP3      1670            0.0000000000
     27262      1862  TIP3      H2            -23.9510108845        1.2373008600       28.3875520009  TIP3      1670            0.0000000000
     27263      1863  TIP3      OH2           -35.0181593742       17.9409446357       23.5419017868  TIP3      1671            0.0000000000
     27264      1863  TIP3      H1            -35.7142241022       17.8629549331       22.8674513867  TIP3      1671            0.0000000000
     27265      1863  TIP3      H2            -35.0988631750       18.8549156383       23.8152343597  TIP3      1671            0.0000000000
     27266      1864  TIP3      OH2           -28.2056942405        4.1500976399       23.5061679347  TIP3      1672            0.0000000000
     27267      1864  TIP3      H1            -27.8521970581        3.5538647593       24.1856499117  TIP3      1672            0.0000000000
     27268      1864  TIP3      H2            -28.0391016352        5.0133738244       23.9383455176  TIP3      1672            0.0000000000
     27269      1865  TIP3      OH2           -19.4858644554       18.7578580399       24.6043695068  TIP3      1673            0.0000000000
     27270      1865  TIP3      H1            -19.6983736719       17.9576612234       24.0706982973  TIP3      1673            0.0000000000
     27271      1865  TIP3      H2            -19.5663091467       19.4718942837       23.9612859756  TIP3      1673            0.0000000000
     27272      1866  TIP3      OH2           -33.9229815794        2.7571011984       36.3393321978  TIP3      1674            0.0000000000
     27273      1866  TIP3      H1            -34.2578798118        1.9060142937       36.6822732550  TIP3      1674            0.0000000000
     27274      1866  TIP3      H2            -32.9945953941        2.6944109898       36.6713906758  TIP3      1674            0.0000000000
     27275      1867  TIP3      OH2           -31.8645884561        2.1109226060       37.9328702172  TIP3      1675            0.0000000000
     27276      1867  TIP3      H1            -30.9720855977        1.7715351003       37.7253430660  TIP3      1675            0.0000000000
     27277      1867  TIP3      H2            -32.2543962007        1.3100144994       38.3318893492  TIP3      1675            0.0000000000
     27278      1868  TIP3      OH2           -23.4646115490        1.4063785830       38.0913847757  TIP3      1676            0.0000000000
     27279      1868  TIP3      H1            -23.3706889991        0.9334870108       38.9410288050  TIP3      1676            0.0000000000
     27280      1868  TIP3      H2            -22.5473199246        1.3726996547       37.7488324760  TIP3      1676            0.0000000000
     27281      1869  TIP3      OH2           -20.2536349668       17.4575844070       36.7216650580  TIP3      1677            0.0000000000
     27282      1869  TIP3      H1            -21.0593475817       17.3211166707       36.1769629851  TIP3      1677            0.0000000000
     27283      1869  TIP3      H2            -20.3711869853       18.4037681554       36.9410075336  TIP3      1677            0.0000000000
     27284      1870  TIP3      OH2            -5.7949886986       11.3497975648       26.7159352653  TIP3      1678            0.0000000000
     27285      1870  TIP3      H1             -5.7814488397       12.3301197545       26.6641377051  TIP3      1678            0.0000000000
     27286      1870  TIP3      H2             -6.5351425514       11.1289584935       26.1511130967  TIP3      1678            0.0000000000
     27287      1871  TIP3      OH2            -6.9619711674       10.5885046859       30.1918484969  TIP3      1679            0.0000000000
     27288      1871  TIP3      H1             -6.9711826211        9.9461928699       30.9162662070  TIP3      1679            0.0000000000
     27289      1871  TIP3      H2             -7.3115721134       10.0783202521       29.4453297532  TIP3      1679            0.0000000000
     27290      1872  TIP3      OH2           -14.6108771382       10.2826709754       31.7779348780  TIP3      1680            0.0000000000
     27291      1872  TIP3      H1            -14.4842538410        9.5667207051       32.4317250648  TIP3      1680            0.0000000000
     27292      1872  TIP3      H2            -13.8388174749       10.8412099033       31.9527902349  TIP3      1680            0.0000000000
     27293      1873  TIP3      OH2            -3.2792377820       13.5325432520       28.5115933363  TIP3      1681            0.0000000000
     27294      1873  TIP3      H1             -3.6810018757       12.8089091040       28.9967012270  TIP3      1681            0.0000000000
     27295      1873  TIP3      H2             -3.2480872621       14.2489943503       29.1700392482  TIP3      1681            0.0000000000
     27296      1874  TIP3      OH2           -13.6786441263       14.7114153107       30.2622613638  TIP3      1682            0.0000000000
     27297      1874  TIP3      H1            -13.9894832869       13.8488822937       29.9276175377  TIP3      1682            0.0000000000
     27298      1874  TIP3      H2            -12.7227048952       14.5315035706       30.3018794162  TIP3      1682            0.0000000000
     27299      1875  TIP3      OH2           -16.3352316584       10.4801496690       27.8447706544  TIP3      1683            0.0000000000
     27300      1875  TIP3      H1            -16.0588690821        9.6898779166       28.3561922533  TIP3      1683            0.0000000000
     27301      1875  TIP3      H2            -15.6034352981       10.6185754040       27.2420420430  TIP3      1683            0.0000000000
     27302      1876  TIP3      OH2            -6.1594146625       18.6909198802       28.7190191829  TIP3      1684            0.0000000000
     27303      1876  TIP3      H1             -5.5050262021       18.0068570632       28.4299379624  TIP3      1684            0.0000000000
     27304      1876  TIP3      H2             -6.3647145514       18.3597970857       29.5937744877  TIP3      1684            0.0000000000
     27305      1877  TIP3      OH2            -8.5801700400       12.9840525820       30.6758945876  TIP3      1685            0.0000000000
     27306      1877  TIP3      H1             -8.2427314871       12.3665093825       30.0078643108  TIP3      1685            0.0000000000
     27307      1877  TIP3      H2             -7.7688028628       13.1450322466       31.1896985287  TIP3      1685            0.0000000000
     27308      1878  TIP3      OH2             0.0137186346        4.6528423428       31.3987585633  TIP3      1686            0.0000000000
     27309      1878  TIP3      H1              0.1936283588        5.2372339172       32.1657447147  TIP3      1686            0.0000000000
     27310      1878  TIP3      H2              0.5888925513        5.0686886860       30.7407199405  TIP3      1686            0.0000000000
     27311      1879  TIP3      OH2            -5.4128990907        7.4570530253       30.9905221027  TIP3      1687            0.0000000000
     27312      1879  TIP3      H1             -5.2439876597        6.4981924939       30.9956381153  TIP3      1687            0.0000000000
     27313      1879  TIP3      H2             -5.5150659822        7.5981118221       30.0294447032  TIP3      1687            0.0000000000
     27314      1880  TIP3      OH2           -12.3042553148        5.4825176932       28.2162058561  TIP3      1688            0.0000000000
     27315      1880  TIP3      H1            -12.1492050617        6.3524475803       27.7931250278  TIP3      1688            0.0000000000
     27316      1880  TIP3      H2            -12.6811607483        5.0078014168       27.4545612442  TIP3      1688            0.0000000000
     27317      1881  TIP3      OH2            -4.5617811883        5.6370549507       26.5984086943  TIP3      1689            0.0000000000
     27318      1881  TIP3      H1             -3.8968205077        5.3100799836       27.2461851567  TIP3      1689            0.0000000000
     27319      1881  TIP3      H2             -4.0165516351        6.1841898947       26.0169795935  TIP3      1689            0.0000000000
     27320      1882  TIP3      OH2           -15.6711861257        7.9915101794       28.9264615481  TIP3      1690            0.0000000000
     27321      1882  TIP3      H1            -15.0265577763        7.4364939201       29.4065988376  TIP3      1690            0.0000000000
     27322      1882  TIP3      H2            -15.5659030696        7.6557304759       28.0296647920  TIP3      1690            0.0000000000
     27323      1883  TIP3      OH2           -10.4904517473        9.5120779809       28.1975497673  TIP3      1691            0.0000000000
     27324      1883  TIP3      H1             -9.8527808167        8.9443594024       28.6709373570  TIP3      1691            0.0000000000
     27325      1883  TIP3      H2            -11.0363486200        8.8292923802       27.7674237808  TIP3      1691            0.0000000000
     27326      1884  TIP3      OH2             0.4561998310        6.0541312788       33.6780225081  TIP3      1692            0.0000000000
     27327      1884  TIP3      H1             -0.1480647700        6.8205850017       33.5658745942  TIP3      1692            0.0000000000
     27328      1884  TIP3      H2              0.4911025360        5.9743865766       34.6377500156  TIP3      1692            0.0000000000
     27329      1885  TIP3      OH2           -13.4168170730        4.4423212784       32.2256639973  TIP3      1693            0.0000000000
     27330      1885  TIP3      H1            -13.6847551743        5.0604108953       31.5127051217  TIP3      1693            0.0000000000
     27331      1885  TIP3      H2            -14.0595963506        4.6886695155       32.9411159818  TIP3      1693            0.0000000000
     27332      1886  TIP3      OH2            -6.1422679342       13.9244568193       25.8143980568  TIP3      1694            0.0000000000
     27333      1886  TIP3      H1             -6.3541589935       13.6765470882       24.9076345189  TIP3      1694            0.0000000000
     27334      1886  TIP3      H2             -6.4003041361       14.8754354970       25.8244137306  TIP3      1694            0.0000000000
     27335      1887  TIP3      OH2           -10.8817926564       12.0862364874       32.4850836029  TIP3      1695            0.0000000000
     27336      1887  TIP3      H1            -11.5880218041       12.7288106286       32.7114585418  TIP3      1695            0.0000000000
     27337      1887  TIP3      H2            -10.1747159514       12.6872215862       32.1977431873  TIP3      1695            0.0000000000
     27338      1888  TIP3      OH2            -2.7530702149        4.9786697723       28.5739203221  TIP3      1696            0.0000000000
     27339      1888  TIP3      H1             -2.9690138861        4.2045405329       29.1012202904  TIP3      1696            0.0000000000
     27340      1888  TIP3      H2             -2.0774849657        5.4101094245       29.1239564446  TIP3      1696            0.0000000000
     27341      1889  TIP3      OH2           -13.8230288343        6.2932962849       30.2449930021  TIP3      1697            0.0000000000
     27342      1889  TIP3      H1            -13.2150563945        6.9905883354       30.5860484664  TIP3      1697            0.0000000000
     27343      1889  TIP3      H2            -13.2804203717        5.9125539931       29.5215101988  TIP3      1697            0.0000000000
     27344      1890  TIP3      OH2           -12.4362108936       14.0867681028       33.3023397126  TIP3      1698            0.0000000000
     27345      1890  TIP3      H1            -12.4746150160       15.0028121843       32.9670774889  TIP3      1698            0.0000000000
     27346      1890  TIP3      H2            -13.3172633432       14.0144069163       33.7494664940  TIP3      1698            0.0000000000
     27347      1891  TIP3      OH2            -2.7399838592       15.3769229694       30.8573944798  TIP3      1699            0.0000000000
     27348      1891  TIP3      H1             -3.7083516220       15.4884567999       30.9761611615  TIP3      1699            0.0000000000
     27349      1891  TIP3      H2             -2.4711268304       16.2923565774       30.6535257070  TIP3      1699            0.0000000000
     27350      1892  TIP3      OH2            -2.4170742403        3.6583003825       32.2454246457  TIP3      1700            0.0000000000
     27351      1892  TIP3      H1             -3.1413124836        4.2921216921       32.1526945412  TIP3      1700            0.0000000000
     27352      1892  TIP3      H2             -1.7035116766        4.0765174991       31.7230044457  TIP3      1700            0.0000000000
     27353      1893  TIP3      OH2            -9.4957576334        1.7762967694       29.6294456132  TIP3      1701            0.0000000000
     27354      1893  TIP3      H1             -9.5542995543        0.8007498353       29.6689130043  TIP3      1701            0.0000000000
     27355      1893  TIP3      H2            -10.2852561627        2.0713923415       30.1065354051  TIP3      1701            0.0000000000
     27356      1894  TIP3      OH2            -4.4530023488       17.1659318118       27.4559890491  TIP3      1702            0.0000000000
     27357      1894  TIP3      H1             -4.0509074963       16.4293079965       26.9386778050  TIP3      1702            0.0000000000
     27358      1894  TIP3      H2             -4.0427271081       17.9406545603       27.0216986756  TIP3      1702            0.0000000000
     27359      1895  TIP3      OH2            -3.3235709341       15.1015636692       26.0299968781  TIP3      1703            0.0000000000
     27360      1895  TIP3      H1             -3.4742352754       14.4067921156       25.3618424371  TIP3      1703            0.0000000000
     27361      1895  TIP3      H2             -3.2384220319       14.5659852584       26.8387629652  TIP3      1703            0.0000000000
     27362      1896  TIP3      OH2            -1.6543216471       13.6841000790       34.4566431085  TIP3      1704            0.0000000000
     27363      1896  TIP3      H1             -1.5051336612       13.0292097676       33.7388742029  TIP3      1704            0.0000000000
     27364      1896  TIP3      H2             -1.4458674842       14.5253449153       34.0114247294  TIP3      1704            0.0000000000
     27365      1897  TIP3      OH2             0.2349733265        9.9949290702       32.4985273376  TIP3      1705            0.0000000000
     27366      1897  TIP3      H1             -0.4221963440       10.7188168332       32.5383388106  TIP3      1705            0.0000000000
     27367      1897  TIP3      H2              0.7309052998       10.2280865461       31.6927693018  TIP3      1705            0.0000000000
     27368      1898  TIP3      OH2            -3.7648865059       10.7222057537       25.1153869191  TIP3      1706            0.0000000000
     27369      1898  TIP3      H1             -4.3957828906       11.0536018084       25.7802357873  TIP3      1706            0.0000000000
     27370      1898  TIP3      H2             -3.1927784739       10.1425525059       25.6477994677  TIP3      1706            0.0000000000
     27371      1899  TIP3      OH2            -3.7763445781        8.9469810297       34.2671827738  TIP3      1707            0.0000000000
     27372      1899  TIP3      H1             -3.7690059022        9.7670374630       34.7883569595  TIP3      1707            0.0000000000
     27373      1899  TIP3      H2             -4.4056068259        9.2385450515       33.5748336387  TIP3      1707            0.0000000000
     27374      1900  TIP3      OH2           -12.0921771672       11.4327251711       27.0446514403  TIP3      1708            0.0000000000
     27375      1900  TIP3      H1            -12.4214055692       11.0298824476       26.2427043680  TIP3      1708            0.0000000000
     27376      1900  TIP3      H2            -11.4710148637       10.7625791152       27.4157474432  TIP3      1708            0.0000000000
     27377      1901  TIP3      OH2           -10.7829953108       14.8406495814       29.7456210815  TIP3      1709            0.0000000000
     27378      1901  TIP3      H1            -10.7881563823       14.3006814252       28.9481614600  TIP3      1709            0.0000000000
     27379      1901  TIP3      H2             -9.9967663134       14.4795436971       30.1952068119  TIP3      1709            0.0000000000
     27380      1902  TIP3      OH2           -11.7622458312       10.1866855516       30.7287530776  TIP3      1710            0.0000000000
     27381      1902  TIP3      H1            -11.1938894794       10.2985570283       29.9480092154  TIP3      1710            0.0000000000
     27382      1902  TIP3      H2            -11.3798186942       10.8528778110       31.3413176431  TIP3      1710            0.0000000000
     27383      1903  TIP3      OH2            -5.3413642402       15.7601497470       31.4292023322  TIP3      1711            0.0000000000
     27384      1903  TIP3      H1             -5.6354399393       16.3968398460       32.0858378738  TIP3      1711            0.0000000000
     27385      1903  TIP3      H2             -5.6005841245       14.9075100295       31.8501009946  TIP3      1711            0.0000000000
     27386      1904  TIP3      OH2           -10.8123122404       14.6179870284       35.4145952199  TIP3      1712            0.0000000000
     27387      1904  TIP3      H1            -11.2260317912       15.3570806556       35.9065296535  TIP3      1712            0.0000000000
     27388      1904  TIP3      H2            -11.4850593627       14.4191844190       34.7184196568  TIP3      1712            0.0000000000
     27389      1905  TIP3      OH2            -4.8476737542        9.9647656264       22.8138510510  TIP3      1713            0.0000000000
     27390      1905  TIP3      H1             -4.3117237543       10.2115745997       23.6045176284  TIP3      1713            0.0000000000
     27391      1905  TIP3      H2             -4.4430790349       10.5098542930       22.1152884138  TIP3      1713            0.0000000000
     27392      1906  TIP3      OH2           -13.9261631014       10.7081694990       34.6449948749  TIP3      1714            0.0000000000
     27393      1906  TIP3      H1            -13.7899873277       11.4607790625       35.2588811760  TIP3      1714            0.0000000000
     27394      1906  TIP3      H2            -14.7829154129       10.9376579868       34.2796955515  TIP3      1714            0.0000000000
     27395      1907  TIP3      OH2            -7.1308958516       16.6967898657       26.3094370289  TIP3      1715            0.0000000000
     27396      1907  TIP3      H1             -6.6883893509       17.0221665662       27.0967327730  TIP3      1715            0.0000000000
     27397      1907  TIP3      H2             -7.6646295830       17.4497554457       26.0236592006  TIP3      1715            0.0000000000
     27398      1908  TIP3      OH2           -12.5642267509       16.6512522648       36.1621278818  TIP3      1716            0.0000000000
     27399      1908  TIP3      H1            -12.6263050701       16.5581708094       35.1968308215  TIP3      1716            0.0000000000
     27400      1908  TIP3      H2            -13.4941209132       16.5199440448       36.4314914117  TIP3      1716            0.0000000000
     27401      1909  TIP3      OH2            -1.1081198977        1.7374290826       22.7711600582  TIP3      1717            0.0000000000
     27402      1909  TIP3      H1             -2.0751946600        1.8212806978       22.9371423805  TIP3      1717            0.0000000000
     27403      1909  TIP3      H2             -0.9178748894        2.5302926708       22.2372666657  TIP3      1717            0.0000000000
     27404      1910  TIP3      OH2           -17.0581265445       12.9555838290       33.5447262359  TIP3      1718            0.0000000000
     27405      1910  TIP3      H1            -17.4894143955       12.8569396071       32.6796364268  TIP3      1718            0.0000000000
     27406      1910  TIP3      H2            -16.9595017899       11.9970046818       33.7342934888  TIP3      1718            0.0000000000
     27407      1911  TIP3      OH2           -17.2813015962       15.6318298271       30.3613473778  TIP3      1719            0.0000000000
     27408      1911  TIP3      H1            -16.3227690019       15.5176938944       30.3148244725  TIP3      1719            0.0000000000
     27409      1911  TIP3      H2            -17.3536657726       16.4548699982       30.8575536459  TIP3      1719            0.0000000000
     27410      1912  TIP3      OH2             0.9665405423       16.3343310802       36.0409010619  TIP3      1720            0.0000000000
     27411      1912  TIP3      H1              0.8469907913       15.3736762024       36.0106415870  TIP3      1720            0.0000000000
     27412      1912  TIP3      H2              0.0914575897       16.5811515397       36.4241119050  TIP3      1720            0.0000000000
     27413      1913  TIP3      OH2            -8.0783740729       15.8718656029       34.8992994881  TIP3      1721            0.0000000000
     27414      1913  TIP3      H1             -8.0197423087       16.7141883490       35.4085255312  TIP3      1721            0.0000000000
     27415      1913  TIP3      H2             -8.9504715265       15.5123751951       35.1517354409  TIP3      1721            0.0000000000
     27416      1914  TIP3      OH2            -7.6747397035       19.6075102225       24.6723375146  TIP3      1722            0.0000000000
     27417      1914  TIP3      H1             -7.6936754145       19.5494603500       23.7023879291  TIP3      1722            0.0000000000
     27418      1914  TIP3      H2             -7.6024457015       20.5684856860       24.8511284095  TIP3      1722            0.0000000000
     27419      1915  TIP3      OH2            -4.6255094840       18.7656057517       21.6736255451  TIP3      1723            0.0000000000
     27420      1915  TIP3      H1             -4.1093429416       18.0817951712       21.2327974540  TIP3      1723            0.0000000000
     27421      1915  TIP3      H2             -4.5728466681       18.5368747920       22.6147979631  TIP3      1723            0.0000000000
     27422      1916  TIP3      OH2            -4.9543806847       18.7955177718       24.4915914985  TIP3      1724            0.0000000000
     27423      1916  TIP3      H1             -5.9107363956       18.8055131149       24.6645716952  TIP3      1724            0.0000000000
     27424      1916  TIP3      H2             -4.6477714233       18.0550890227       25.0378517433  TIP3      1724            0.0000000000
     27425      1917  TIP3      OH2            -1.8887203051        7.7995945395       36.5071290141  TIP3      1725            0.0000000000
     27426      1917  TIP3      H1             -2.3642835254        8.2505599024       35.7905591320  TIP3      1725            0.0000000000
     27427      1917  TIP3      H2             -1.9035880738        6.8801977312       36.2023949679  TIP3      1725            0.0000000000
     27428      1918  TIP3      OH2           -14.7417422447       14.1800651946       34.5114024663  TIP3      1726            0.0000000000
     27429      1918  TIP3      H1            -14.5341653564       13.8526029426       35.4100371738  TIP3      1726            0.0000000000
     27430      1918  TIP3      H2            -15.6283748918       13.8266363319       34.2978161379  TIP3      1726            0.0000000000
     27431      1919  TIP3      OH2           -12.0244014896        2.7470794427       30.6753469436  TIP3      1727            0.0000000000
     27432      1919  TIP3      H1            -12.9755090664        2.5507539727       30.5878244655  TIP3      1727            0.0000000000
     27433      1919  TIP3      H2            -12.1094947583        3.6233612326       31.1011764250  TIP3      1727            0.0000000000
     27434      1920  TIP3      OH2            -7.4224407014        2.3472279524       33.8231303628  TIP3      1728            0.0000000000
     27435      1920  TIP3      H1             -7.0322283686        1.9218736937       34.6096063123  TIP3      1728            0.0000000000
     27436      1920  TIP3      H2             -8.3926754685        2.2331620761       33.9736569536  TIP3      1728            0.0000000000
     27437      1921  TIP3      OH2            -4.1366205977        6.1969843029       34.7250860732  TIP3      1729            0.0000000000
     27438      1921  TIP3      H1             -4.7020663077        5.9818625394       35.5058117664  TIP3      1729            0.0000000000
     27439      1921  TIP3      H2             -4.3217749488        7.1238994463       34.4960461721  TIP3      1729            0.0000000000
     27440      1922  TIP3      OH2            -3.3512278424       10.9096918837       20.5476947776  TIP3      1730            0.0000000000
     27441      1922  TIP3      H1             -3.4036282159       10.8660650930       19.5935692265  TIP3      1730            0.0000000000
     27442      1922  TIP3      H2             -2.5749648888       11.4608941922       20.7374182739  TIP3      1730            0.0000000000
     27443      1923  TIP3      OH2           -11.9755066237        7.6381433753       31.6918932193  TIP3      1731            0.0000000000
     27444      1923  TIP3      H1            -12.7020793932        7.6330132453       32.3417482079  TIP3      1731            0.0000000000
     27445      1923  TIP3      H2            -12.0095880757        8.5545610864       31.3387868190  TIP3      1731            0.0000000000
     27446      1924  TIP3      OH2           -12.0245735589        7.7654787377       26.5721256232  TIP3      1732            0.0000000000
     27447      1924  TIP3      H1            -12.9590147255        7.5111684458       26.4439696978  TIP3      1732            0.0000000000
     27448      1924  TIP3      H2            -11.6002581378        7.4685945837       25.7378717424  TIP3      1732            0.0000000000
     27449      1925  TIP3      OH2            -6.5055301873        8.2603183615       25.3080042213  TIP3      1733            0.0000000000
     27450      1925  TIP3      H1             -6.8848197542        9.0833277873       24.9998545426  TIP3      1733            0.0000000000
     27451      1925  TIP3      H2             -5.7794873556        8.1067398506       24.6744259848  TIP3      1733            0.0000000000
     27452      1926  TIP3      OH2            -7.4322297561        8.4854057036       36.7859910923  TIP3      1734            0.0000000000
     27453      1926  TIP3      H1             -7.9575173690        7.7100729296       37.0972799189  TIP3      1734            0.0000000000
     27454      1926  TIP3      H2             -6.5944189104        8.3652043692       37.2629086492  TIP3      1734            0.0000000000
     27455      1927  TIP3      OH2            -5.4552534081        7.7667715416       28.1903376112  TIP3      1735            0.0000000000
     27456      1927  TIP3      H1             -5.7245888417        8.3249279976       27.4431766362  TIP3      1735            0.0000000000
     27457      1927  TIP3      H2             -5.3557061269        6.9098460878       27.7294795284  TIP3      1735            0.0000000000
     27458      1928  TIP3      OH2           -14.3920921153        7.9264844127       33.3980928759  TIP3      1736            0.0000000000
     27459      1928  TIP3      H1            -14.2014925280        8.2830420246       34.2796780981  TIP3      1736            0.0000000000
     27460      1928  TIP3      H2            -14.7423566905        7.0367604263       33.5854378290  TIP3      1736            0.0000000000
     27461      1929  TIP3      OH2           -17.6724404535        5.0354387669       27.3416723903  TIP3      1737            0.0000000000
     27462      1929  TIP3      H1            -17.0552327863        4.9974477390       28.1017969992  TIP3      1737            0.0000000000
     27463      1929  TIP3      H2            -17.1963285952        4.6217350297       26.6253528359  TIP3      1737            0.0000000000
     27464      1930  TIP3      OH2            -6.2571176162        9.3496463244       32.7468265674  TIP3      1738            0.0000000000
     27465      1930  TIP3      H1             -5.8722364947        8.6631360739       32.1646559428  TIP3      1738            0.0000000000
     27466      1930  TIP3      H2             -6.7216793285        8.8222168623       33.4210079616  TIP3      1738            0.0000000000
     27467      1931  TIP3      OH2            -9.4715762221        5.2963099358       27.6033499912  TIP3      1739            0.0000000000
     27468      1931  TIP3      H1            -10.3904960393        5.3622517170       27.9022516633  TIP3      1739            0.0000000000
     27469      1931  TIP3      H2             -8.9549413884        5.1872412021       28.4168146475  TIP3      1739            0.0000000000
     27470      1932  TIP3      OH2           -14.6439340947        6.9086117526       26.3833745083  TIP3      1740            0.0000000000
     27471      1932  TIP3      H1            -15.5673308773        6.9556246908       26.0909578934  TIP3      1740            0.0000000000
     27472      1932  TIP3      H2            -14.3465151700        6.0448943747       26.0536580322  TIP3      1740            0.0000000000
     27473      1933  TIP3      OH2           -11.0257990310        6.9586127467       24.1253080622  TIP3      1741            0.0000000000
     27474      1933  TIP3      H1            -10.0491014165        6.9154751311       24.2787574052  TIP3      1741            0.0000000000
     27475      1933  TIP3      H2            -11.1351184940        7.5924607836       23.4141240711  TIP3      1741            0.0000000000
     27476      1934  TIP3      OH2            -5.0505066486        4.5648091208       30.8269713946  TIP3      1742            0.0000000000
     27477      1934  TIP3      H1             -5.7379629856        4.6098048493       31.5238180010  TIP3      1742            0.0000000000
     27478      1934  TIP3      H2             -5.5516091219        4.3099541572       30.0403799523  TIP3      1742            0.0000000000
     27479      1935  TIP3      OH2            -1.8459229152       20.2030661630       37.1498345517  TIP3      1743            0.0000000000
     27480      1935  TIP3      H1             -1.5801697577       20.5884344416       36.2958884883  TIP3      1743            0.0000000000
     27481      1935  TIP3      H2             -1.1228904127       20.5243696056       37.7085030424  TIP3      1743            0.0000000000
     27482      1936  TIP3      OH2           -14.1784936159       12.6661085041       36.7311173488  TIP3      1744            0.0000000000
     27483      1936  TIP3      H1            -13.4462307527       12.9254816808       37.3205142558  TIP3      1744            0.0000000000
     27484      1936  TIP3      H2            -14.9329786711       12.7864237377       37.3471253651  TIP3      1744            0.0000000000
     27485      1937  TIP3      OH2            -8.1707904802        8.0854604537       29.4575202031  TIP3      1745            0.0000000000
     27486      1937  TIP3      H1             -7.5695298303        7.5358522183       28.9432958570  TIP3      1745            0.0000000000
     27487      1937  TIP3      H2             -8.3183415138        7.5429328361       30.2455952718  TIP3      1745            0.0000000000
     27488      1938  TIP3      OH2           -13.1222666089        4.2160498419       25.9758303316  TIP3      1746            0.0000000000
     27489      1938  TIP3      H1            -13.4807983262        3.3264483935       25.8404218213  TIP3      1746            0.0000000000
     27490      1938  TIP3      H2            -12.3873206451        4.2064204868       25.3350521656  TIP3      1746            0.0000000000
     27491      1939  TIP3      OH2            -9.5500511402        6.3968871506       31.8869019950  TIP3      1747            0.0000000000
     27492      1939  TIP3      H1            -10.3538360151        6.9452308655       31.9865864835  TIP3      1747            0.0000000000
     27493      1939  TIP3      H2             -8.9771248680        6.7493643653       32.5979124614  TIP3      1747            0.0000000000
     27494      1940  TIP3      OH2            -1.7542350673       11.8375285823       32.3925935877  TIP3      1748            0.0000000000
     27495      1940  TIP3      H1             -1.1923535475       12.3208253814       31.7597718816  TIP3      1748            0.0000000000
     27496      1940  TIP3      H2             -2.6150191549       11.8818474681       31.9291526192  TIP3      1748            0.0000000000
     27497      1941  TIP3      OH2            -5.1071882660        5.4700907592       21.6857771427  TIP3      1749            0.0000000000
     27498      1941  TIP3      H1             -6.0407968890        5.6096960167       21.6174794125  TIP3      1749            0.0000000000
     27499      1941  TIP3      H2             -4.7635063124        6.2852129358       22.1120267490  TIP3      1749            0.0000000000
     27500      1942  TIP3      OH2            -7.4506184288       12.9037787867       34.8329166668  TIP3      1750            0.0000000000
     27501      1942  TIP3      H1             -7.7995690450       12.4753532536       35.6216405550  TIP3      1750            0.0000000000
     27502      1942  TIP3      H2             -7.7063982579       13.8258674027       34.9413502665  TIP3      1750            0.0000000000
     27503      1943  TIP3      OH2            -4.3513347922        7.3618426401       23.4248980690  TIP3      1751            0.0000000000
     27504      1943  TIP3      H1             -3.4592398683        7.2429474621       23.8137555659  TIP3      1751            0.0000000000
     27505      1943  TIP3      H2             -4.2886587751        8.2052133554       22.9363727214  TIP3      1751            0.0000000000
     27506      1944  TIP3      OH2           -13.8154281086       12.0325546488       29.4038390132  TIP3      1752            0.0000000000
     27507      1944  TIP3      H1            -13.1426177873       11.9485083998       28.7045645476  TIP3      1752            0.0000000000
     27508      1944  TIP3      H2            -13.7661779830       11.1740941247       29.8540746104  TIP3      1752            0.0000000000
     27509      1945  TIP3      OH2           -16.8374513233       10.5885119419       34.3803270355  TIP3      1753            0.0000000000
     27510      1945  TIP3      H1            -16.2886084183       10.2798914216       35.0892314579  TIP3      1753            0.0000000000
     27511      1945  TIP3      H2            -17.4494669981        9.8911325481       34.0385707300  TIP3      1753            0.0000000000
     27512      1946  TIP3      OH2            -9.8302736919        9.9901676780       36.8270236959  TIP3      1754            0.0000000000
     27513      1946  TIP3      H1            -10.1487043082        9.6827399056       35.9674404484  TIP3      1754            0.0000000000
     27514      1946  TIP3      H2             -8.9067893483        9.6669994987       36.8257415701  TIP3      1754            0.0000000000
     27515      1947  TIP3      OH2            -5.1432939210       15.3277413212       34.7832809566  TIP3      1755            0.0000000000
     27516      1947  TIP3      H1             -6.0684513435       15.5060862688       34.5489066312  TIP3      1755            0.0000000000
     27517      1947  TIP3      H2             -5.1768175407       15.6212301267       35.7138009428  TIP3      1755            0.0000000000
     27518      1948  TIP3      OH2             0.5803416268        7.5051169961       23.1501170349  TIP3      1756            0.0000000000
     27519      1948  TIP3      H1             -0.0407648388        7.1756937977       22.4675784674  TIP3      1756            0.0000000000
     27520      1948  TIP3      H2              0.5610311213        8.4518312142       22.9582424965  TIP3      1756            0.0000000000
     27521      1949  TIP3      OH2             0.5114184092       13.3697595704       35.9742639837  TIP3      1757            0.0000000000
     27522      1949  TIP3      H1             -0.3813657654       13.5904609777       35.6101182095  TIP3      1757            0.0000000000
     27523      1949  TIP3      H2              1.0568546249       13.3179463937       35.1622488501  TIP3      1757            0.0000000000
     27524      1950  TIP3      OH2            -3.9772531927       11.1495475494       30.6776367467  TIP3      1758            0.0000000000
     27525      1950  TIP3      H1             -4.9177315420       10.9440998969       30.5623642970  TIP3      1758            0.0000000000
     27526      1950  TIP3      H2             -3.5472866904       10.3918212467       30.2374248511  TIP3      1758            0.0000000000
     27527      1951  TIP3      OH2           -11.4949714764       15.4649309845       26.7296908118  TIP3      1759            0.0000000000
     27528      1951  TIP3      H1            -10.9609525995       16.2606026016       26.5789855503  TIP3      1759            0.0000000000
     27529      1951  TIP3      H2            -12.3736014989       15.7527854944       26.4765036397  TIP3      1759            0.0000000000
     27530      1952  TIP3      OH2           -10.0699404002       13.1362914663       26.2801902035  TIP3      1760            0.0000000000
     27531      1952  TIP3      H1            -10.3407734894       14.0673252252       26.3958073016  TIP3      1760            0.0000000000
     27532      1952  TIP3      H2            -10.7718843866       12.6715941526       26.7668826931  TIP3      1760            0.0000000000
     27533      1953  TIP3      OH2            -9.5982430645       17.3344195227       32.7066279159  TIP3      1761            0.0000000000
     27534      1953  TIP3      H1             -9.1360238345       18.1365605154       32.4169011380  TIP3      1761            0.0000000000
     27535      1953  TIP3      H2             -8.9799505540       16.9907571150       33.3763918118  TIP3      1761            0.0000000000
     27536      1954  TIP3      OH2           -11.3902049063       18.1570235634       25.8219938070  TIP3      1762            0.0000000000
     27537      1954  TIP3      H1            -12.3088917300       18.2366018894       26.0762291174  TIP3      1762            0.0000000000
     27538      1954  TIP3      H2            -10.9798243836       18.9654534166       26.1840957298  TIP3      1762            0.0000000000
     27539      1955  TIP3      OH2            -6.0766930977       13.3262107480       32.3186824544  TIP3      1763            0.0000000000
     27540      1955  TIP3      H1             -6.3950560440       13.1376917532       33.2261270953  TIP3      1763            0.0000000000
     27541      1955  TIP3      H2             -5.4312461932       12.6202878526       32.1531754048  TIP3      1763            0.0000000000
     27542      1956  TIP3      OH2            -3.2508580629       17.9122987477       34.8076288273  TIP3      1764            0.0000000000
     27543      1956  TIP3      H1             -3.9441315188       17.4190156434       34.3296123895  TIP3      1764            0.0000000000
     27544      1956  TIP3      H2             -3.0693744544       18.6129956034       34.1464326273  TIP3      1764            0.0000000000
     27545      1957  TIP3      OH2           -15.1815794481        5.1912878647       34.2113707633  TIP3      1765            0.0000000000
     27546      1957  TIP3      H1            -16.1050768930        5.4944119420       34.1590189871  TIP3      1765            0.0000000000
     27547      1957  TIP3      H2            -15.2810439998        4.3247312466       34.6446168782  TIP3      1765            0.0000000000
     27548      1958  TIP3      OH2           -15.5865486594       16.9428921932       32.6386795925  TIP3      1766            0.0000000000
     27549      1958  TIP3      H1            -15.2820853840       16.0205446543       32.6348455244  TIP3      1766            0.0000000000
     27550      1958  TIP3      H2            -15.3137440638       17.2377102858       33.5145306500  TIP3      1766            0.0000000000
     27551      1959  TIP3      OH2           -10.8899051861       14.9628329785       22.3525067613  TIP3      1767            0.0000000000
     27552      1959  TIP3      H1            -10.5419497259       14.5395084993       23.1327264790  TIP3      1767            0.0000000000
     27553      1959  TIP3      H2            -10.7318310855       15.9036539546       22.5771494202  TIP3      1767            0.0000000000
     27554      1960  TIP3      OH2            -6.4654235124        4.9386950838       33.1630415465  TIP3      1768            0.0000000000
     27555      1960  TIP3      H1             -5.7495642732        4.9945621441       33.8055759783  TIP3      1768            0.0000000000
     27556      1960  TIP3      H2             -6.8579207035        4.0634908367       33.3596407187  TIP3      1768            0.0000000000
     27557      1961  TIP3      OH2            -5.7218071321        4.5695322696       24.2596837954  TIP3      1769            0.0000000000
     27558      1961  TIP3      H1             -5.4431026715        4.9805633369       23.4317759246  TIP3      1769            0.0000000000
     27559      1961  TIP3      H2             -5.1276601986        4.9687334813       24.9036449226  TIP3      1769            0.0000000000
     27560      1962  TIP3      OH2            -7.9857306096       16.7868492761       23.1881312969  TIP3      1770            0.0000000000
     27561      1962  TIP3      H1             -8.8665295586       17.1754541052       23.0814850789  TIP3      1770            0.0000000000
     27562      1962  TIP3      H2             -7.4969260259       17.1096820643       22.4232399165  TIP3      1770            0.0000000000
     27563      1963  TIP3      OH2            -8.5620572220        6.3559709546       25.0337588007  TIP3      1771            0.0000000000
     27564      1963  TIP3      H1             -7.6919261675        6.7942613898       25.0993909781  TIP3      1771            0.0000000000
     27565      1963  TIP3      H2             -8.7427813748        6.0761739735       25.9522652869  TIP3      1771            0.0000000000
     27566      1964  TIP3      OH2            -7.9348763884        7.2853054184       34.2616673082  TIP3      1772            0.0000000000
     27567      1964  TIP3      H1             -7.8575804775        7.8431840855       35.0589093724  TIP3      1772            0.0000000000
     27568      1964  TIP3      H2             -7.2699896657        6.5913844763       34.3553506243  TIP3      1772            0.0000000000
     27569      1965  TIP3      OH2            -7.6271091664        3.3145656798       26.0637502589  TIP3      1773            0.0000000000
     27570      1965  TIP3      H1             -7.9713266631        4.0322600205       26.5922690911  TIP3      1773            0.0000000000
     27571      1965  TIP3      H2             -6.9839622170        3.8042236456       25.4929965873  TIP3      1773            0.0000000000
     27572      1966  TIP3      OH2           -10.6898099376       17.7223078182       23.1036708534  TIP3      1774            0.0000000000
     27573      1966  TIP3      H1            -10.4408387610       18.4943865782       22.5477691870  TIP3      1774            0.0000000000
     27574      1966  TIP3      H2            -10.8434154060       18.0863834293       23.9949902224  TIP3      1774            0.0000000000
     27575      1967  TIP3      OH2           -11.9559623373        4.3492143696       22.8219882875  TIP3      1775            0.0000000000
     27576      1967  TIP3      H1            -11.9927551685        5.2888685120       23.0187288355  TIP3      1775            0.0000000000
     27577      1967  TIP3      H2            -11.0306010480        4.1657057707       22.9330010268  TIP3      1775            0.0000000000
     27578      1968  TIP3      OH2            -1.7558883158        5.1534923771       35.1048432404  TIP3      1776            0.0000000000
     27579      1968  TIP3      H1             -2.6827872936        5.4706941244       34.9761040727  TIP3      1776            0.0000000000
     27580      1968  TIP3      H2             -1.4544583449        5.1409779537       34.1809805509  TIP3      1776            0.0000000000
     27581      1969  TIP3      OH2            -3.1394998665        8.9382206020       29.1281010986  TIP3      1777            0.0000000000
     27582      1969  TIP3      H1             -3.9605585799        8.4919817844       28.8477510540  TIP3      1777            0.0000000000
     27583      1969  TIP3      H2             -2.6681382804        8.2494234407       29.6468000328  TIP3      1777            0.0000000000
     27584      1970  TIP3      OH2            -2.0796540949       18.2052948912       30.7922005417  TIP3      1778            0.0000000000
     27585      1970  TIP3      H1             -2.1743228218       18.8905758283       30.1055166236  TIP3      1778            0.0000000000
     27586      1970  TIP3      H2             -1.1133104570       18.2552553181       30.9571408596  TIP3      1778            0.0000000000
     27587      1971  TIP3      OH2           -14.6236434623        2.2829647612       29.5511682492  TIP3      1779            0.0000000000
     27588      1971  TIP3      H1            -14.9476322207        2.3330351299       28.6231933301  TIP3      1779            0.0000000000
     27589      1971  TIP3      H2            -15.0992665527        1.4728737163       29.8577649907  TIP3      1779            0.0000000000
     27590      1972  TIP3      OH2           -15.6546706894       16.2422045837       25.6675453810  TIP3      1780            0.0000000000
     27591      1972  TIP3      H1            -16.4860623558       16.7230211372       25.7528136549  TIP3      1780            0.0000000000
     27592      1972  TIP3      H2            -15.1162588663       16.7477069911       25.0686733993  TIP3      1780            0.0000000000
     27593      1973  TIP3      OH2           -16.4359967932       18.8869299338       37.0103170792  TIP3      1781            0.0000000000
     27594      1973  TIP3      H1            -15.8268659759       18.6964878708       37.7522752232  TIP3      1781            0.0000000000
     27595      1973  TIP3      H2            -16.8314932864       18.0171591417       36.8364724438  TIP3      1781            0.0000000000
     27596      1974  TIP3      OH2           -11.7492495103       17.8089126308       38.6233115321  TIP3      1782            0.0000000000
     27597      1974  TIP3      H1            -10.9889628967       17.3151757430       38.9586247265  TIP3      1782            0.0000000000
     27598      1974  TIP3      H2            -11.7702332930       17.5324371760       37.6868327161  TIP3      1782            0.0000000000
     27599      1975  TIP3      OH2            -5.2408828807       16.1988225822       37.3764427421  TIP3      1783            0.0000000000
     27600      1975  TIP3      H1             -5.5566686946       15.3120126821       37.6516975348  TIP3      1783            0.0000000000
     27601      1975  TIP3      H2             -4.4727940484       16.3183260614       37.9696126640  TIP3      1783            0.0000000000
     27602      1976  TIP3      OH2           -16.5170038881       12.6772752434       38.0122605753  TIP3      1784            0.0000000000
     27603      1976  TIP3      H1            -16.3368647264       11.7723797709       37.7336728977  TIP3      1784            0.0000000000
     27604      1976  TIP3      H2            -17.2589361640       12.9620285450       37.4515227790  TIP3      1784            0.0000000000
     27605      1977  TIP3      OH2            -9.7972337950       12.6572767993       37.3992687511  TIP3      1785            0.0000000000
     27606      1977  TIP3      H1            -10.1350075853       12.9698677466       36.5369150597  TIP3      1785            0.0000000000
     27607      1977  TIP3      H2             -9.7196354787       11.6806943465       37.2915134467  TIP3      1785            0.0000000000
     27608      1978  TIP3      OH2            -4.1016577772       12.5163431404       34.7929904481  TIP3      1786            0.0000000000
     27609      1978  TIP3      H1             -3.3136891006       13.0990482128       34.7308174657  TIP3      1786            0.0000000000
     27610      1978  TIP3      H2             -4.8016852043       13.1843152203       34.8280720487  TIP3      1786            0.0000000000
     27611      1979  TIP3      OH2           -15.4949304123        9.8829299476       37.4712678979  TIP3      1787            0.0000000000
     27612      1979  TIP3      H1            -15.0195242014        9.0351815822       37.4395005517  TIP3      1787            0.0000000000
     27613      1979  TIP3      H2            -15.7405367795        9.9191311248       38.4247001550  TIP3      1787            0.0000000000
     27614      1980  TIP3      OH2           -11.7328288408        8.8295457408       34.7417696483  TIP3      1788            0.0000000000
     27615      1980  TIP3      H1            -12.2660024799        9.5807430051       35.0355845289  TIP3      1788            0.0000000000
     27616      1980  TIP3      H2            -11.3044011948        9.2027354298       33.9515678270  TIP3      1788            0.0000000000
     27617      1981  TIP3      OH2            -6.6198467465       11.4085184032       38.0866613497  TIP3      1789            0.0000000000
     27618      1981  TIP3      H1             -5.6631449128       11.3947836757       37.9627664168  TIP3      1789            0.0000000000
     27619      1981  TIP3      H2             -6.7923450411       10.6416220759       38.6560687942  TIP3      1789            0.0000000000
     27620      1982  TIP3      OH2           -11.2656117939        6.2189068348       35.8124545009  TIP3      1790            0.0000000000
     27621      1982  TIP3      H1            -11.1683553418        5.5089209985       35.1543812104  TIP3      1790            0.0000000000
     27622      1982  TIP3      H2            -11.3398592370        7.0284420416       35.2673903689  TIP3      1790            0.0000000000
     27623      1983  TIP3      OH2           -10.8853829936        4.5727681259       33.3324879786  TIP3      1791            0.0000000000
     27624      1983  TIP3      H1            -10.3678114634        5.0795682088       32.6574304492  TIP3      1791            0.0000000000
     27625      1983  TIP3      H2            -11.7892391898        4.5378017031       32.9605949430  TIP3      1791            0.0000000000
     27626      1984  TIP3      OH2            -9.3446989903       10.0917578694       33.5998913240  TIP3      1792            0.0000000000
     27627      1984  TIP3      H1             -8.5879178445        9.9252005842       33.0294829011  TIP3      1792            0.0000000000
     27628      1984  TIP3      H2             -9.7098396133       10.9254362715       33.2645334371  TIP3      1792            0.0000000000
     27629      1985  TIP3      OH2            -4.9482513577        7.8366578097       38.5785744117  TIP3      1793            0.0000000000
     27630      1985  TIP3      H1             -4.7139106667        6.9031890034       38.4739155360  TIP3      1793            0.0000000000
     27631      1985  TIP3      H2             -4.0846766013        8.2825776959       38.5989049188  TIP3      1793            0.0000000000
     27632      1986  TIP3      OH2            -3.6090541660       10.6336815334       36.7319534816  TIP3      1794            0.0000000000
     27633      1986  TIP3      H1             -3.8615948023       11.3545639480       36.1144495302  TIP3      1794            0.0000000000
     27634      1986  TIP3      H2             -2.6524514352       10.6019796231       36.5429947779  TIP3      1794            0.0000000000
     27635      1987  TIP3      OH2           -12.8785458649        7.5090988704       37.6739404522  TIP3      1795            0.0000000000
     27636      1987  TIP3      H1            -13.5991672258        6.8630896212       37.5625744395  TIP3      1795            0.0000000000
     27637      1987  TIP3      H2            -12.1751959271        7.1046167442       37.1254724283  TIP3      1795            0.0000000000
     27638      1988  TIP3      OH2           -10.1004990014        2.0360960225       33.7384937199  TIP3      1796            0.0000000000
     27639      1988  TIP3      H1            -10.2700468582        3.0048006089       33.6713081547  TIP3      1796            0.0000000000
     27640      1988  TIP3      H2            -10.8552594135        1.6685541455       33.2609733687  TIP3      1796            0.0000000000
     27641      1989  TIP3      OH2            -8.8292902698        6.3653299462       37.3776505863  TIP3      1797            0.0000000000
     27642      1989  TIP3      H1             -9.1418508077        6.1311616594       38.2732460329  TIP3      1797            0.0000000000
     27643      1989  TIP3      H2             -9.6104561222        6.1605781610       36.8352060471  TIP3      1797            0.0000000000
     27644      1990  TIP3      OH2            -6.1049591918        5.5095850542       36.4685647779  TIP3      1798            0.0000000000
     27645      1990  TIP3      H1             -7.0700495091        5.5616710553       36.5765086985  TIP3      1798            0.0000000000
     27646      1990  TIP3      H2             -5.8409596297        4.8676726628       37.1556231811  TIP3      1798            0.0000000000
     27647      1991  TIP3      OH2            -4.5234041166        4.1277737079       38.3666464261  TIP3      1799            0.0000000000
     27648      1991  TIP3      H1             -4.5710492965        3.1496110551       38.3975853381  TIP3      1799            0.0000000000
     27649      1991  TIP3      H2             -4.7720347353        4.4196812786       39.2659896175  TIP3      1799            0.0000000000
     27650      1992  TIP3      OH2           -14.7620651204        5.4148586055       37.4746392330  TIP3      1800            0.0000000000
     27651      1992  TIP3      H1            -14.5011582762        4.6761367592       36.8956401737  TIP3      1800            0.0000000000
     27652      1992  TIP3      H2            -14.8345323234        4.9595182824       38.3413562801  TIP3      1800            0.0000000000
     27653      1993  TIP3      OH2            -9.8816889477        1.4278741901       36.4510363177  TIP3      1801            0.0000000000
     27654      1993  TIP3      H1             -9.2020062388        0.7243469150       36.4345059706  TIP3      1801            0.0000000000
     27655      1993  TIP3      H2             -9.9928143515        1.5704617113       35.4926085502  TIP3      1801            0.0000000000
     27656      1994  TIP3      OH2            -9.5204092817        3.0416011197       38.5664496653  TIP3      1802            0.0000000000
     27657      1994  TIP3      H1             -9.6935280357        2.5356032678       37.7337758287  TIP3      1802            0.0000000000
     27658      1994  TIP3      H2            -10.1194642431        3.8061012270       38.4656738356  TIP3      1802            0.0000000000
     27659      1995  TIP3      OH2           -10.0295371339       20.0501256195       21.7826071921  TIP3      1803            0.0000000000
     27660      1995  TIP3      H1             -9.0537617475       20.0169373077       21.7807584227  TIP3      1803            0.0000000000
     27661      1995  TIP3      H2            -10.2424824153       20.5617485601       20.9993260118  TIP3      1803            0.0000000000
     27662      1996  TIP3      OH2           -17.6918260458       19.9049128495       26.1687131271  TIP3      1804            0.0000000000
     27663      1996  TIP3      H1            -18.4369558769       19.4419811074       25.7198525326  TIP3      1804            0.0000000000
     27664      1996  TIP3      H2            -17.4527321820       19.2553081502       26.8576045456  TIP3      1804            0.0000000000
     27665      1997  TIP3      OH2           -16.9028644636       18.0344754222       28.0511159534  TIP3      1805            0.0000000000
     27666      1997  TIP3      H1            -17.2586737408       17.1611657905       28.2645915355  TIP3      1805            0.0000000000
     27667      1997  TIP3      H2            -16.6679614988       18.3665270926       28.9345571139  TIP3      1805            0.0000000000
     27668      1998  TIP3      OH2             0.6430106980       18.8459050659       30.9801801596  TIP3      1806            0.0000000000
     27669      1998  TIP3      H1              0.6735417307       19.0068886788       31.9390926512  TIP3      1806            0.0000000000
     27670      1998  TIP3      H2              1.3459526252       19.4292291032       30.6762286676  TIP3      1806            0.0000000000
     27671      1999  TIP3      OH2             0.2124907111       18.4422765495       33.9311905550  TIP3      1807            0.0000000000
     27672      1999  TIP3      H1             -0.2546761866       17.6712309190       33.5440337187  TIP3      1807            0.0000000000
     27673      1999  TIP3      H2              0.7032941700       17.9940586303       34.6389497709  TIP3      1807            0.0000000000
     27674      2000  TIP3      OH2            -1.3370415565       14.1576386034       38.6000226205  TIP3      1808            0.0000000000
     27675      2000  TIP3      H1             -2.2444939335       14.1349772055       38.9618232455  TIP3      1808            0.0000000000
     27676      2000  TIP3      H2             -0.9670894791       14.9659653375       39.0069961726  TIP3      1808            0.0000000000
     27677      2001  TIP3      OH2             0.3702167240       10.5353298635       25.8688084366  TIP3      1809            0.0000000000
     27678      2001  TIP3      H1             -0.4221745245       10.1028663302       26.2390649894  TIP3      1809            0.0000000000
     27679      2001  TIP3      H2              0.9181091897       10.7326772917       26.6511997696  TIP3      1809            0.0000000000
     27680      2002  TIP3      OH2             0.0922451212       13.2636610503       30.9012952970  TIP3      1810            0.0000000000
     27681      2002  TIP3      H1              0.9053954022       12.8863339442       30.5202843412  TIP3      1810            0.0000000000
     27682      2002  TIP3      H2              0.2386143381       14.2171297703       30.7312398378  TIP3      1810            0.0000000000
     27683      2003  TIP3      OH2            -1.3475037426       16.1688250665       33.1691689805  TIP3      1811            0.0000000000
     27684      2003  TIP3      H1             -2.0382317902       16.5108281306       33.7571203681  TIP3      1811            0.0000000000
     27685      2003  TIP3      H2             -1.8956080465       15.7672256332       32.4609064059  TIP3      1811            0.0000000000
     27686      2004  TIP3      OH2            -0.9809251682        7.6170848998       20.8247170282  TIP3      1812            0.0000000000
     27687      2004  TIP3      H1             -0.9556009121        8.2689856631       20.1346087913  TIP3      1812            0.0000000000
     27688      2004  TIP3      H2             -1.1395305442        6.7753135615       20.3507740993  TIP3      1812            0.0000000000
     27689      2005  TIP3      OH2            -1.8770969094        9.0501161317       26.4820609481  TIP3      1813            0.0000000000
     27690      2005  TIP3      H1             -1.9947086067        8.0894314292       26.4373387182  TIP3      1813            0.0000000000
     27691      2005  TIP3      H2             -2.1724926684        9.2519523674       27.3878759463  TIP3      1813            0.0000000000
     27692      2006  TIP3      OH2           -16.8362845307       11.0959605198       30.5350473347  TIP3      1814            0.0000000000
     27693      2006  TIP3      H1            -16.6702928769       11.0541054946       29.5663036380  TIP3      1814            0.0000000000
     27694      2006  TIP3      H2            -15.9339127488       10.9614251393       30.8818922259  TIP3      1814            0.0000000000
     27695      2007  TIP3      OH2            -0.9828685493       11.0087919279       36.1750786502  TIP3      1815            0.0000000000
     27696      2007  TIP3      H1             -0.3730440146       10.2520218474       36.3071987612  TIP3      1815            0.0000000000
     27697      2007  TIP3      H2             -0.3785414570       11.7815799620       36.1791624671  TIP3      1815            0.0000000000
     27698      2008  TIP3      OH2             0.5190847849        8.8879018085       36.8256154845  TIP3      1816            0.0000000000
     27699      2008  TIP3      H1             -0.3639876982        8.4893290205       36.6708553067  TIP3      1816            0.0000000000
     27700      2008  TIP3      H2              1.0892156538        8.1049663624       36.7489929657  TIP3      1816            0.0000000000
     27701      2009  TIP3      OH2            -2.1632410409        6.5995566214       24.9422349025  TIP3      1817            0.0000000000
     27702      2009  TIP3      H1             -1.8702330650        5.6662123017       25.0618071292  TIP3      1817            0.0000000000
     27703      2009  TIP3      H2             -1.3741347129        6.9985772896       24.5478072059  TIP3      1817            0.0000000000
     27704      2010  TIP3      OH2            -1.5366272989        7.1689492721       30.3878531883  TIP3      1818            0.0000000000
     27705      2010  TIP3      H1             -0.5758080334        7.3982615763       30.3737538728  TIP3      1818            0.0000000000
     27706      2010  TIP3      H2             -1.7240606270        7.3084902501       31.3275663503  TIP3      1818            0.0000000000
     27707      2011  TIP3      OH2            -1.4691059713        7.8886931658       33.1706439129  TIP3      1819            0.0000000000
     27708      2011  TIP3      H1             -2.3538793424        8.1772893738       33.4837969202  TIP3      1819            0.0000000000
     27709      2011  TIP3      H2             -1.0367066684        8.7474610156       32.9458946107  TIP3      1819            0.0000000000
     27710      2012  TIP3      OH2           -17.1957016959        6.4819639055       36.7035213791  TIP3      1820            0.0000000000
     27711      2012  TIP3      H1            -16.2737580390        6.1903014954       36.8958915786  TIP3      1820            0.0000000000
     27712      2012  TIP3      H2            -17.6759591425        5.6519704535       36.9613022816  TIP3      1820            0.0000000000
     27713      2013  TIP3      OH2             0.8012914317        1.9551557622       38.5071736476  TIP3      1821            0.0000000000
     27714      2013  TIP3      H1              1.1537178140        1.2933500117       37.8867873404  TIP3      1821            0.0000000000
     27715      2013  TIP3      H2              0.9035867639        2.7688133959       37.9742060111  TIP3      1821            0.0000000000
     27716      2014  TIP3      OH2            -1.5501988439        3.9068000204       24.9880377852  TIP3      1822            0.0000000000
     27717      2014  TIP3      H1             -1.3003445518        3.4518411001       25.8175899295  TIP3      1822            0.0000000000
     27718      2014  TIP3      H2             -2.1351909782        3.2563912313       24.5309773443  TIP3      1822            0.0000000000
     27719      2015  TIP3      OH2           -15.9702529653        4.7244205424       29.5000273653  TIP3      1823            0.0000000000
     27720      2015  TIP3      H1            -15.5929595406        3.8995259333       29.8506203402  TIP3      1823            0.0000000000
     27721      2015  TIP3      H2            -15.4935504690        5.4227299193       29.9800331871  TIP3      1823            0.0000000000
     27722      2016  TIP3      OH2           -17.7227930465        7.7192172904       30.6139323536  TIP3      1824            0.0000000000
     27723      2016  TIP3      H1            -17.1812311052        7.4664481138       29.8403524403  TIP3      1824            0.0000000000
     27724      2016  TIP3      H2            -17.2671610806        8.5395933331       30.8434420299  TIP3      1824            0.0000000000
     27725      2017  TIP3      OH2             0.3218423037        4.0523802274       36.8619642776  TIP3      1825            0.0000000000
     27726      2017  TIP3      H1             -0.6152871544        4.3237413223       36.8077730158  TIP3      1825            0.0000000000
     27727      2017  TIP3      H2              0.3555151653        3.5011864148       36.0652365899  TIP3      1825            0.0000000000
     27728      2018  TIP3      OH2             0.4316721310        3.8836607828       21.6791122090  TIP3      1826            0.0000000000
     27729      2018  TIP3      H1              0.6705129886        3.2559134601       20.9702515461  TIP3      1826            0.0000000000
     27730      2018  TIP3      H2              0.9975362179        4.6129555024       21.4308084286  TIP3      1826            0.0000000000
     27731      2019  TIP3      OH2            -2.6236012452       18.9608836976       26.5904338933  TIP3      1827            0.0000000000
     27732      2019  TIP3      H1             -1.9707935939       18.6101715612       25.9757857320  TIP3      1827            0.0000000000
     27733      2019  TIP3      H2             -2.1039296472       19.4380909182       27.2542404044  TIP3      1827            0.0000000000
     27734      2020  TIP3      OH2           -17.4286118032        2.6146656019       32.9389939444  TIP3      1828            0.0000000000
     27735      2020  TIP3      H1            -18.0897037165        2.4585815091       33.6441260919  TIP3      1828            0.0000000000
     27736      2020  TIP3      H2            -17.8766139106        3.2989905855       32.4029101396  TIP3      1828            0.0000000000
     27737      2021  TIP3      OH2           -15.1863195300       15.8247505648       37.1098587311  TIP3      1829            0.0000000000
     27738      2021  TIP3      H1            -16.0326223692       16.0281114507       36.6776900264  TIP3      1829            0.0000000000
     27739      2021  TIP3      H2            -15.4492977194       15.7539059669       38.0321343060  TIP3      1829            0.0000000000
     27740      2022  TIP3      OH2           -12.2858997615       16.8399461206       33.3933590920  TIP3      1830            0.0000000000
     27741      2022  TIP3      H1            -12.6164667262       17.7046795220       33.1131566346  TIP3      1830            0.0000000000
     27742      2022  TIP3      H2            -11.3584172083       16.9228724692       33.0893877151  TIP3      1830            0.0000000000
     27743      2023  TIP3      OH2            -7.9644824321       18.2619980602       36.2954012215  TIP3      1831            0.0000000000
     27744      2023  TIP3      H1             -7.8265874835       17.9078431977       37.2049162266  TIP3      1831            0.0000000000
     27745      2023  TIP3      H2             -7.0613130626       18.5646313523       36.0550430508  TIP3      1831            0.0000000000
     27746      2024  TIP3      OH2            -5.6771586744       19.5297680125       35.6092509244  TIP3      1832            0.0000000000
     27747      2024  TIP3      H1             -4.9433336280       18.9472684265       35.3705176590  TIP3      1832            0.0000000000
     27748      2024  TIP3      H2             -5.3027978367       19.9707372648       36.4050205243  TIP3      1832            0.0000000000
     27749      2025  TIP3      OH2            -0.6567833923        2.1424088639       34.7153929197  TIP3      1833            0.0000000000
     27750      2025  TIP3      H1             -1.4857201291        2.4412464493       34.3035136600  TIP3      1833            0.0000000000
     27751      2025  TIP3      H2             -0.4895488093        1.3195953791       34.1977129960  TIP3      1833            0.0000000000
     27752      2026  TIP3      OH2           -14.8645614894       20.0737546691       33.3856215426  TIP3      1834            0.0000000000
     27753      2026  TIP3      H1            -15.5946134600       20.5757606495       32.9918254796  TIP3      1834            0.0000000000
     27754      2026  TIP3      H2            -15.1720323560       19.8833894456       34.2833462045  TIP3      1834            0.0000000000
     27755      2027  TIP3      OH2           -12.3853224538       19.6643742552       32.4781260147  TIP3      1835            0.0000000000
     27756      2027  TIP3      H1            -13.2869216346       19.8119303318       32.8474370700  TIP3      1835            0.0000000000
     27757      2027  TIP3      H2            -12.4344420774       20.2435136230       31.6964271223  TIP3      1835            0.0000000000
     27758      2028  TIP3      OH2            -7.6849112604       19.5632299234       31.6307859024  TIP3      1836            0.0000000000
     27759      2028  TIP3      H1             -8.1477732835       20.1195963569       30.9841825577  TIP3      1836            0.0000000000
     27760      2028  TIP3      H2             -7.5537967383       20.1968903571       32.3678039765  TIP3      1836            0.0000000000
     27761      2029  TIP3      OH2            -5.3986341118       18.3718532776       32.6624276490  TIP3      1837            0.0000000000
     27762      2029  TIP3      H1             -6.2510101362       18.6504784432       32.2900985403  TIP3      1837            0.0000000000
     27763      2029  TIP3      H2             -4.9112168599       19.2086715929       32.5685164008  TIP3      1837            0.0000000000
     27764      2030  TIP3      OH2            -2.8163018299       19.9442898052       32.8814683303  TIP3      1838            0.0000000000
     27765      2030  TIP3      H1             -2.8679399736       20.9033755958       32.6537742205  TIP3      1838            0.0000000000
     27766      2030  TIP3      H2             -2.6023109838       19.5720655426       32.0031206006  TIP3      1838            0.0000000000
     27767      2031  TIP3      OH2           -15.3955283144       18.7300143942       30.3220566782  TIP3      1839            0.0000000000
     27768      2031  TIP3      H1            -15.4768018781       18.2666057153       31.1822359380  TIP3      1839            0.0000000000
     27769      2031  TIP3      H2            -14.5855466738       18.3382530926       29.9364080467  TIP3      1839            0.0000000000
     27770      2032  TIP3      OH2           -13.3107666770       17.4424713285       28.9746948101  TIP3      1840            0.0000000000
     27771      2032  TIP3      H1            -13.5001074779       16.5113404641       29.1998045305  TIP3      1840            0.0000000000
     27772      2032  TIP3      H2            -12.4661666272       17.5827890970       29.4467368827  TIP3      1840            0.0000000000
     27773      2033  TIP3      OH2           -10.7122691618       17.9161556222       29.8524189319  TIP3      1841            0.0000000000
     27774      2033  TIP3      H1            -10.5674014128       16.9868579135       29.5968935491  TIP3      1841            0.0000000000
     27775      2033  TIP3      H2            -10.6729571479       17.8642717549       30.8199704078  TIP3      1841            0.0000000000
     27776      2034  TIP3      OH2            -7.2747001352        3.5709928364       28.9993582694  TIP3      1842            0.0000000000
     27777      2034  TIP3      H1             -7.9394180637        2.9227651927       29.2631028430  TIP3      1842            0.0000000000
     27778      2034  TIP3      H2             -6.7215127650        3.0559359125       28.3951462157  TIP3      1842            0.0000000000
     27779      2035  TIP3      OH2            -2.1320445868        1.6179609811       29.0663293164  TIP3      1843            0.0000000000
     27780      2035  TIP3      H1             -1.5194574806        2.2086359593       28.5567924987  TIP3      1843            0.0000000000
     27781      2035  TIP3      H2             -3.0143507521        1.9751755246       28.8289662385  TIP3      1843            0.0000000000
     27782      2036  TIP3      OH2            -0.4555802142        2.8618987850       27.3760014312  TIP3      1844            0.0000000000
     27783      2036  TIP3      H1              0.2115515308        2.2911868255       26.9257283527  TIP3      1844            0.0000000000
     27784      2036  TIP3      H2              0.0446718012        3.7030223159       27.4573140556  TIP3      1844            0.0000000000
     27785      2037  TIP3      OH2           -14.8594244685        2.2178890117       26.8456658146  TIP3      1845            0.0000000000
     27786      2037  TIP3      H1            -15.6888240863        2.0085234556       26.3817998201  TIP3      1845            0.0000000000
     27787      2037  TIP3      H2            -14.4411855248        1.3350215158       26.7408133652  TIP3      1845            0.0000000000
     27788      2038  TIP3      OH2           -10.4736840008        2.1326205205       26.6853340560  TIP3      1846            0.0000000000
     27789      2038  TIP3      H1             -9.5606855336        2.4821484399       26.4908483693  TIP3      1846            0.0000000000
     27790      2038  TIP3      H2            -10.3339187753        1.8672094123       27.5876959835  TIP3      1846            0.0000000000
     27791      2039  TIP3      OH2            -4.7003929212        2.1327431928       28.2447349933  TIP3      1847            0.0000000000
     27792      2039  TIP3      H1             -4.7785981787        2.2460727636       27.2836354817  TIP3      1847            0.0000000000
     27793      2039  TIP3      H2             -5.0916247662        1.2346660448       28.3672883880  TIP3      1847            0.0000000000
     27794      2040  TIP3      OH2            -3.4549752583        2.1659546926       23.9574286700  TIP3      1848            0.0000000000
     27795      2040  TIP3      H1             -4.1958506634        2.7340034902       23.7050420084  TIP3      1848            0.0000000000
     27796      2040  TIP3      H2             -3.9268932700        1.3085086897       24.1146014721  TIP3      1848            0.0000000000
     27797      2041  TIP3      OH2            -7.3843198757       19.2326137478       21.8805162062  TIP3      1849            0.0000000000
     27798      2041  TIP3      H1             -6.4387590176       19.4673016856       21.7296910764  TIP3      1849            0.0000000000
     27799      2041  TIP3      H2             -7.5521185968       18.7082978487       21.0883304534  TIP3      1849            0.0000000000
     27800      2042  TIP3      OH2           -15.0098916820        2.7256843088       36.2851888993  TIP3      1850            0.0000000000
     27801      2042  TIP3      H1            -15.4049340189        1.9400467124       36.7083951828  TIP3      1850            0.0000000000
     27802      2042  TIP3      H2            -14.1062192525        2.6950080998       36.6828648489  TIP3      1850            0.0000000000
     27803      2043  TIP3      OH2           -13.0106916808        2.1197429680       37.9419875488  TIP3      1851            0.0000000000
     27804      2043  TIP3      H1            -12.1139598633        1.7826072925       37.7332418189  TIP3      1851            0.0000000000
     27805      2043  TIP3      H2            -13.3852483590        1.3141301403       38.3497621300  TIP3      1851            0.0000000000
     27806      2044  TIP3      OH2            -4.6049801929        1.4097231909       38.0943520922  TIP3      1852            0.0000000000
     27807      2044  TIP3      H1             -4.5135568818        0.9330526885       38.9416458244  TIP3      1852            0.0000000000
     27808      2044  TIP3      H2             -3.6897765931        1.3723799670       37.7485251728  TIP3      1852            0.0000000000
     27809      2045  TIP3      OH2            -1.3984261404       17.4572626404       36.7232803348  TIP3      1853            0.0000000000
     27810      2045  TIP3      H1             -2.2026501308       17.3209560980       36.1765691930  TIP3      1853            0.0000000000
     27811      2045  TIP3      H2             -1.5147397996       18.4043484762       36.9401136496  TIP3      1853            0.0000000000
     27812      2046  TIP3      OH2            13.0623220659       11.3381692778       26.6533221410  TIP3      1854            0.0000000000
     27813      2046  TIP3      H1             13.0385261233       12.2991663514       26.7225713828  TIP3      1854            0.0000000000
     27814      2046  TIP3      H2             12.2710826001       11.1388074390       26.1405112811  TIP3      1854            0.0000000000
     27815      2047  TIP3      OH2            11.8993751975       10.5906530140       30.1655132392  TIP3      1855            0.0000000000
     27816      2047  TIP3      H1             11.8910147410        9.9667770936       30.9081797107  TIP3      1855            0.0000000000
     27817      2047  TIP3      H2             11.5242191525       10.0663348193       29.4428776981  TIP3      1855            0.0000000000
     27818      2048  TIP3      OH2             4.2532212588       10.2667277674       31.7567893198  TIP3      1856            0.0000000000
     27819      2048  TIP3      H1              4.3373639843        9.5784474923       32.4498662549  TIP3      1856            0.0000000000
     27820      2048  TIP3      H2              5.0031840294       10.8366139362       31.9805516926  TIP3      1856            0.0000000000
     27821      2049  TIP3      OH2            15.5563180732       13.5418573853       28.4854769697  TIP3      1857            0.0000000000
     27822      2049  TIP3      H1             15.1943739867       12.8077829845       28.9897152839  TIP3      1857            0.0000000000
     27823      2049  TIP3      H2             15.6149532226       14.2394941479       29.1642399855  TIP3      1857            0.0000000000
     27824      2050  TIP3      OH2             5.1774541914       14.7136524855       30.2566562588  TIP3      1858            0.0000000000
     27825      2050  TIP3      H1              4.8692344664       13.8430965065       29.9388367845  TIP3      1858            0.0000000000
     27826      2050  TIP3      H2              6.1347062857       14.5324321069       30.3027348016  TIP3      1858            0.0000000000
     27827      2051  TIP3      OH2             1.8500479682        8.2800719240       25.6786499868  TIP3      1859            0.0000000000
     27828      2051  TIP3      H1              1.3683993887        9.1391466019       25.6925852986  TIP3      1859            0.0000000000
     27829      2051  TIP3      H2              1.2400795436        7.7206060886       25.1889100183  TIP3      1859            0.0000000000
     27830      2052  TIP3      OH2             2.5346671510       10.4974104891       27.8779177916  TIP3      1860            0.0000000000
     27831      2052  TIP3      H1              2.8094936980        9.6788384902       28.3297211845  TIP3      1860            0.0000000000
     27832      2052  TIP3      H2              3.2353759689       10.6134170219       27.2183991248  TIP3      1860            0.0000000000
     27833      2053  TIP3      OH2            12.7153156448       18.6860772857       28.7082205805  TIP3      1861            0.0000000000
     27834      2053  TIP3      H1             13.3627024035       17.9942343229       28.4455049325  TIP3      1861            0.0000000000
     27835      2053  TIP3      H2             12.4907257534       18.3820853097       29.5936651131  TIP3      1861            0.0000000000
     27836      2054  TIP3      OH2            10.2842682252       13.0029520614       30.6553131392  TIP3      1862            0.0000000000
     27837      2054  TIP3      H1             10.6150859393       12.3627100700       30.0056360880  TIP3      1862            0.0000000000
     27838      2054  TIP3      H2             11.0829108086       13.1430442189       31.1955883411  TIP3      1862            0.0000000000
     27839      2055  TIP3      OH2            18.9089230831        4.6477713710       31.4427710867  TIP3      1863            0.0000000000
     27840      2055  TIP3      H1             19.0409729592        5.2828425938       32.1623693032  TIP3      1863            0.0000000000
     27841      2055  TIP3      H2             19.4298602121        5.0589359770       30.7330028342  TIP3      1863            0.0000000000
     27842      2056  TIP3      OH2            13.4382321082        7.4638019536       30.9718038647  TIP3      1864            0.0000000000
     27843      2056  TIP3      H1             13.6073843452        6.5049487834       30.9900776814  TIP3      1864            0.0000000000
     27844      2056  TIP3      H2             13.3397763883        7.5984133630       30.0125161055  TIP3      1864            0.0000000000
     27845      2057  TIP3      OH2             6.5495975730        5.5444917112       28.2050935503  TIP3      1865            0.0000000000
     27846      2057  TIP3      H1              6.6672283581        6.3803719525       27.7113871109  TIP3      1865            0.0000000000
     27847      2057  TIP3      H2              6.1609395783        4.9741773096       27.5048322421  TIP3      1865            0.0000000000
     27848      2058  TIP3      OH2            14.2858663668        5.6662990003       26.5629476951  TIP3      1866            0.0000000000
     27849      2058  TIP3      H1             14.9180610196        5.3085937100       27.2374746599  TIP3      1866            0.0000000000
     27850      2058  TIP3      H2             14.9036873717        6.1847522360       26.0314129241  TIP3      1866            0.0000000000
     27851      2059  TIP3      OH2             3.1810728257        7.9621905174       28.9455405693  TIP3      1867            0.0000000000
     27852      2059  TIP3      H1              3.8516651715        7.4146867594       29.3961332179  TIP3      1867            0.0000000000
     27853      2059  TIP3      H2              3.2928142340        7.6492440527       28.0313847275  TIP3      1867            0.0000000000
     27854      2060  TIP3      OH2             8.3654422183        9.5118835095       28.2447155363  TIP3      1868            0.0000000000
     27855      2060  TIP3      H1              9.0120487081        8.9228387041       28.6615515781  TIP3      1868            0.0000000000
     27856      2060  TIP3      H2              7.8163861414        8.8624190229       27.7590643079  TIP3      1868            0.0000000000
     27857      2061  TIP3      OH2            19.3530138201        6.1196685459       33.7124328508  TIP3      1869            0.0000000000
     27858      2061  TIP3      H1             18.6793299400        6.8183113740       33.4961361006  TIP3      1869            0.0000000000
     27859      2061  TIP3      H2             19.0546443198        5.8856245253       34.5997008101  TIP3      1869            0.0000000000
     27860      2062  TIP3      OH2             5.4676948300        4.4466301699       32.2449485399  TIP3      1870            0.0000000000
     27861      2062  TIP3      H1              5.1849739625        5.0169695320       31.4986369223  TIP3      1870            0.0000000000
     27862      2062  TIP3      H2              4.7899416081        4.6748426453       32.9270981013  TIP3      1870            0.0000000000
     27863      2063  TIP3      OH2             7.9789038770       12.0890748907       32.4829500458  TIP3      1871            0.0000000000
     27864      2063  TIP3      H1              7.2739268286       12.7337889486       32.7047191659  TIP3      1871            0.0000000000
     27865      2063  TIP3      H2              8.6843017521       12.6880401188       32.1900746661  TIP3      1871            0.0000000000
     27866      2064  TIP3      OH2            16.0866940802        4.9854235955       28.5576457738  TIP3      1872            0.0000000000
     27867      2064  TIP3      H1             15.8824131513        4.2107759559       29.0904988742  TIP3      1872            0.0000000000
     27868      2064  TIP3      H2             16.7679204291        5.4146133710       29.1025895088  TIP3      1872            0.0000000000
     27869      2065  TIP3      OH2             5.0377971173        6.3011733656       30.2771006783  TIP3      1873            0.0000000000
     27870      2065  TIP3      H1              5.6652859589        6.9900548904       30.5879369439  TIP3      1873            0.0000000000
     27871      2065  TIP3      H2              5.5521458702        5.8968245157       29.5311229712  TIP3      1873            0.0000000000
     27872      2066  TIP3      OH2             6.4284303001       14.0935153509       33.3051350505  TIP3      1874            0.0000000000
     27873      2066  TIP3      H1              6.3795062599       15.0076283353       32.9671614254  TIP3      1874            0.0000000000
     27874      2066  TIP3      H2              5.5453681993       14.0143865534       33.7472607698  TIP3      1874            0.0000000000
     27875      2067  TIP3      OH2             2.5995219132       13.7833964905       24.0530365905  TIP3      1875            0.0000000000
     27876      2067  TIP3      H1              2.1251220102       14.0341313025       23.2611733293  TIP3      1875            0.0000000000
     27877      2067  TIP3      H2              2.5394443698       14.5550123770       24.6382859965  TIP3      1875            0.0000000000
     27878      2068  TIP3      OH2            16.1193753499       15.3787754461       30.8623988632  TIP3      1876            0.0000000000
     27879      2068  TIP3      H1             15.1508604221       15.4877421921       30.9829110505  TIP3      1876            0.0000000000
     27880      2068  TIP3      H2             16.3855040726       16.2932666443       30.6536084757  TIP3      1876            0.0000000000
     27881      2069  TIP3      OH2            16.4539988378        3.6814407258       32.2833441440  TIP3      1877            0.0000000000
     27882      2069  TIP3      H1             15.7139977526        4.2899613749       32.1562381247  TIP3      1877            0.0000000000
     27883      2069  TIP3      H2             17.1388864418        4.0666108306       31.7038667026  TIP3      1877            0.0000000000
     27884      2070  TIP3      OH2             9.4044170502        1.7813491505       29.7123631561  TIP3      1878            0.0000000000
     27885      2070  TIP3      H1              9.2612152029        0.8181725534       29.6356649711  TIP3      1878            0.0000000000
     27886      2070  TIP3      H2              8.5256732795        2.0863157120       30.0173832360  TIP3      1878            0.0000000000
     27887      2071  TIP3      OH2            14.3524934247       17.1538829842       27.3916164042  TIP3      1879            0.0000000000
     27888      2071  TIP3      H1             14.8670276633       16.4392898152       27.0122922622  TIP3      1879            0.0000000000
     27889      2071  TIP3      H2             14.8216388129       17.9629051373       27.0853146639  TIP3      1879            0.0000000000
     27890      2072  TIP3      OH2            17.2022033445       13.6851862296       34.4564336782  TIP3      1880            0.0000000000
     27891      2072  TIP3      H1             17.3508161686       13.0301361507       33.7386432017  TIP3      1880            0.0000000000
     27892      2072  TIP3      H2             17.4059733317       14.5281108921       34.0116485711  TIP3      1880            0.0000000000
     27893      2073  TIP3      OH2            19.0938312281        9.9863952442       32.4997456956  TIP3      1881            0.0000000000
     27894      2073  TIP3      H1             18.4367675469       10.7147727925       32.5377466653  TIP3      1881            0.0000000000
     27895      2073  TIP3      H2             19.5834821873       10.2327258851       31.6924321815  TIP3      1881            0.0000000000
     27896      2074  TIP3      OH2            15.1611515161       10.7811910537       25.1557010208  TIP3      1882            0.0000000000
     27897      2074  TIP3      H1             14.4348756045       11.0291604711       25.7783253975  TIP3      1882            0.0000000000
     27898      2074  TIP3      H2             15.6617472711       10.1458035967       25.7017450040  TIP3      1882            0.0000000000
     27899      2075  TIP3      OH2            15.0759286641        8.9480233314       34.2656131226  TIP3      1883            0.0000000000
     27900      2075  TIP3      H1             15.0873419810        9.7681676441       34.7866963064  TIP3      1883            0.0000000000
     27901      2075  TIP3      H2             14.4463633784        9.2424241168       33.5752466667  TIP3      1883            0.0000000000
     27902      2076  TIP3      OH2             6.7563723688       11.4367486514       27.0952646948  TIP3      1884            0.0000000000
     27903      2076  TIP3      H1              6.4596046945       11.0742631550       26.2218248191  TIP3      1884            0.0000000000
     27904      2076  TIP3      H2              7.3826637060       10.7475676246       27.3975980021  TIP3      1884            0.0000000000
     27905      2077  TIP3      OH2             8.0503642893       14.8229265438       29.7711830891  TIP3      1885            0.0000000000
     27906      2077  TIP3      H1              8.0580625171       14.3199941360       28.9422826317  TIP3      1885            0.0000000000
     27907      2077  TIP3      H2              8.8534834894       14.4726535927       30.2002159396  TIP3      1885            0.0000000000
     27908      2078  TIP3      OH2             7.0921095839       10.1866623548       30.7198535059  TIP3      1886            0.0000000000
     27909      2078  TIP3      H1              7.6392669910       10.2888382718       29.9173424261  TIP3      1886            0.0000000000
     27910      2078  TIP3      H2              7.4816282485       10.8552323873       31.3266317153  TIP3      1886            0.0000000000
     27911      2079  TIP3      OH2            13.5132133811       15.7592114953       31.4117926153  TIP3      1887            0.0000000000
     27912      2079  TIP3      H1             13.2312820820       16.3864771692       32.0869638002  TIP3      1887            0.0000000000
     27913      2079  TIP3      H2             13.2611012456       14.9038365358       31.8311242488  TIP3      1887            0.0000000000
     27914      2080  TIP3      OH2             8.0444186059       14.6185396848       35.4157997882  TIP3      1888            0.0000000000
     27915      2080  TIP3      H1              7.6294439501       15.3574027232       35.9061919502  TIP3      1888            0.0000000000
     27916      2080  TIP3      H2              7.3719864393       14.4186064015       34.7186309936  TIP3      1888            0.0000000000
     27917      2081  TIP3      OH2             4.9862592674       10.7775142158       34.5691661430  TIP3      1889            0.0000000000
     27918      2081  TIP3      H1              5.0391839946       11.4457250213       35.2778428261  TIP3      1889            0.0000000000
     27919      2081  TIP3      H2              4.0441680181       10.8662023040       34.3563227338  TIP3      1889            0.0000000000
     27920      2082  TIP3      OH2            11.8269034395       16.7531685487       26.1929472215  TIP3      1890            0.0000000000
     27921      2082  TIP3      H1             12.1421044251       16.9869103222       27.0789242722  TIP3      1890            0.0000000000
     27922      2082  TIP3      H2             11.1580598161       17.4433498692       26.0678759517  TIP3      1890            0.0000000000
     27923      2083  TIP3      OH2             6.2915670217       16.6518528097       36.1590383508  TIP3      1891            0.0000000000
     27924      2083  TIP3      H1              6.2326368865       16.5512334392       35.1914344480  TIP3      1891            0.0000000000
     27925      2083  TIP3      H2              5.3619417181       16.5189034667       36.4292881491  TIP3      1891            0.0000000000
     27926      2084  TIP3      OH2            17.7214070217        1.6778365683       22.7082420868  TIP3      1892            0.0000000000
     27927      2084  TIP3      H1             16.7779320667        1.8277810503       22.9358032528  TIP3      1892            0.0000000000
     27928      2084  TIP3      H2             17.9377218394        2.5135564307       22.2741558695  TIP3      1892            0.0000000000
     27929      2085  TIP3      OH2             5.6955905883       10.4849894909       24.7672936404  TIP3      1893            0.0000000000
     27930      2085  TIP3      H1              5.5751643228       11.2311927045       24.1507308480  TIP3      1893            0.0000000000
     27931      2085  TIP3      H2              5.0949209184        9.8151723220       24.4480967231  TIP3      1893            0.0000000000
     27932      2086  TIP3      OH2             1.8160697467       12.8922573793       33.5760696425  TIP3      1894            0.0000000000
     27933      2086  TIP3      H1              1.3765730999       12.8111695074       32.7097436772  TIP3      1894            0.0000000000
     27934      2086  TIP3      H2              1.9018397742       11.9442812752       33.7887747503  TIP3      1894            0.0000000000
     27935      2087  TIP3      OH2             1.5932803122       15.6182487756       30.3593653581  TIP3      1895            0.0000000000
     27936      2087  TIP3      H1              2.5537414298       15.5157969663       30.3203491998  TIP3      1895            0.0000000000
     27937      2087  TIP3      H2              1.5028876020       16.4436131937       30.8517090422  TIP3      1895            0.0000000000
     27938      2088  TIP3      OH2            19.8226626435       16.3343642898       36.0405651664  TIP3      1896            0.0000000000
     27939      2088  TIP3      H1             19.7028535121       15.3737840722       36.0101500790  TIP3      1896            0.0000000000
     27940      2088  TIP3      H2             18.9475906631       16.5811619798       36.4241156862  TIP3      1896            0.0000000000
     27941      2089  TIP3      OH2            10.7774624573       15.8720366406       34.8997116760  TIP3      1897            0.0000000000
     27942      2089  TIP3      H1             10.8365355019       16.7142986721       35.4090226489  TIP3      1897            0.0000000000
     27943      2089  TIP3      H2              9.9049245020       15.5127995528       35.1514141785  TIP3      1897            0.0000000000
     27944      2090  TIP3      OH2            11.1970357511       19.6023898745       24.6818946396  TIP3      1898            0.0000000000
     27945      2090  TIP3      H1             11.1462737321       19.5358634362       23.7063882119  TIP3      1898            0.0000000000
     27946      2090  TIP3      H2             11.2442386177       20.5582120145       24.8569459963  TIP3      1898            0.0000000000
     27947      2091  TIP3      OH2             4.8201495131       18.5289746406       26.5168152224  TIP3      1899            0.0000000000
     27948      2091  TIP3      H1              4.9865548372       18.0777658223       27.3729569151  TIP3      1899            0.0000000000
     27949      2091  TIP3      H2              3.9890451382       18.1025824327       26.2599003145  TIP3      1899            0.0000000000
     27950      2092  TIP3      OH2            13.9346547915       18.7492590912       24.4420298413  TIP3      1900            0.0000000000
     27951      2092  TIP3      H1             12.9884552232       18.8673456004       24.6637100023  TIP3      1900            0.0000000000
     27952      2092  TIP3      H2             14.2214586833       18.0882173289       25.0733319135  TIP3      1900            0.0000000000
     27953      2093  TIP3      OH2            17.0107456814        7.7942339583       36.4786396202  TIP3      1901            0.0000000000
     27954      2093  TIP3      H1             16.4755629113        8.2560925457       35.8072599923  TIP3      1901            0.0000000000
     27955      2093  TIP3      H2             16.9077138261        6.8723716813       36.2074736234  TIP3      1901            0.0000000000
     27956      2094  TIP3      OH2             4.1042533910       14.2149295736       34.5038311949  TIP3      1902            0.0000000000
     27957      2094  TIP3      H1              4.3243272396       13.8493264036       35.3847825112  TIP3      1902            0.0000000000
     27958      2094  TIP3      H2              3.2364965592       13.8121874884       34.2966466304  TIP3      1902            0.0000000000
     27959      2095  TIP3      OH2             6.7862700959        2.6889890459       30.4529918960  TIP3      1903            0.0000000000
     27960      2095  TIP3      H1              5.8825213168        2.5572681888       30.0927195670  TIP3      1903            0.0000000000
     27961      2095  TIP3      H2              6.6514851504        3.5147941216       30.9459906894  TIP3      1903            0.0000000000
     27962      2096  TIP3      OH2            11.4317368892        2.3480941739       33.8217444577  TIP3      1904            0.0000000000
     27963      2096  TIP3      H1             11.8243509688        1.9263655535       34.6090924092  TIP3      1904            0.0000000000
     27964      2096  TIP3      H2             10.4596500646        2.2332355549       33.9690669768  TIP3      1904            0.0000000000
     27965      2097  TIP3      OH2            14.7251369531        6.1926424861       34.7305041630  TIP3      1905            0.0000000000
     27966      2097  TIP3      H1             14.1530115236        5.9813115241       35.5065635504  TIP3      1905            0.0000000000
     27967      2097  TIP3      H2             14.5427971158        7.1189411349       34.4983783596  TIP3      1905            0.0000000000
     27968      2098  TIP3      OH2            11.1006286869        4.8702693457       21.2078947492  TIP3      1906            0.0000000000
     27969      2098  TIP3      H1             10.7335848778        4.8926913981       22.1061623948  TIP3      1906            0.0000000000
     27970      2098  TIP3      H2             10.7810391321        4.0381423961       20.8764259350  TIP3      1906            0.0000000000
     27971      2099  TIP3      OH2             6.8993364399        7.6599626463       31.7289931123  TIP3      1907            0.0000000000
     27972      2099  TIP3      H1              6.1509162548        7.6471127078       32.3541787963  TIP3      1907            0.0000000000
     27973      2099  TIP3      H2              6.8421974315        8.5640665989       31.3439245418  TIP3      1907            0.0000000000
     27974      2100  TIP3      OH2             6.8449030035        7.7389410159       26.6150719895  TIP3      1908            0.0000000000
     27975      2100  TIP3      H1              5.9096956963        7.5199364290       26.4283667994  TIP3      1908            0.0000000000
     27976      2100  TIP3      H2              7.2281198861        7.5159264556       25.7397440489  TIP3      1908            0.0000000000
     27977      2101  TIP3      OH2            11.4241377799        8.4854798942       36.7859843472  TIP3      1909            0.0000000000
     27978      2101  TIP3      H1             10.8985589380        7.7104077710       37.0971973174  TIP3      1909            0.0000000000
     27979      2101  TIP3      H2             12.2618380400        8.3651290001       37.2632234565  TIP3      1909            0.0000000000
     27980      2102  TIP3      OH2            13.3986539671        7.7615881385       28.1832435033  TIP3      1910            0.0000000000
     27981      2102  TIP3      H1             13.1372983353        8.3444926330       27.4680623619  TIP3      1910            0.0000000000
     27982      2102  TIP3      H2             13.5133710056        6.8969077508       27.7408593091  TIP3      1910            0.0000000000
     27983      2103  TIP3      OH2             4.5108530595        7.9068161163       33.3934234528  TIP3      1911            0.0000000000
     27984      2103  TIP3      H1              4.5942398342        8.3139714885       34.2734181698  TIP3      1911            0.0000000000
     27985      2103  TIP3      H2              4.0699321887        7.0682637883       33.6029054887  TIP3      1911            0.0000000000
     27986      2104  TIP3      OH2             1.1728247074        5.0053294471       27.3834110281  TIP3      1912            0.0000000000
     27987      2104  TIP3      H1              1.8554025773        4.9686779597       28.0823158002  TIP3      1912            0.0000000000
     27988      2104  TIP3      H2              1.6156084364        4.6332171066       26.5942025981  TIP3      1912            0.0000000000
     27989      2105  TIP3      OH2            12.5986435064        9.3513990600       32.7463424413  TIP3      1913            0.0000000000
     27990      2105  TIP3      H1             12.9767174468        8.6664402284       32.1595722744  TIP3      1913            0.0000000000
     27991      2105  TIP3      H2             12.1339800559        8.8226369862       33.4202352583  TIP3      1913            0.0000000000
     27992      2106  TIP3      OH2             9.4097520032        5.3359444978       27.5829016920  TIP3      1914            0.0000000000
     27993      2106  TIP3      H1              8.4745212281        5.3255318082       27.8717581793  TIP3      1914            0.0000000000
     27994      2106  TIP3      H2              9.8857114847        5.1545183794       28.4077659297  TIP3      1914            0.0000000000
     27995      2107  TIP3      OH2             4.2158986269        6.8934420630       26.4323622781  TIP3      1915            0.0000000000
     27996      2107  TIP3      H1              3.3129385112        7.0130088142       26.0727295906  TIP3      1915            0.0000000000
     27997      2107  TIP3      H2              4.5060274176        6.0366973539       26.0750930359  TIP3      1915            0.0000000000
     27998      2108  TIP3      OH2             7.7778621931        6.9630536761       24.1609635966  TIP3      1916            0.0000000000
     27999      2108  TIP3      H1              8.7479029600        6.9956581008       24.2293294685  TIP3      1916            0.0000000000
     28000      2108  TIP3      H2              7.6647460408        7.5703806509       23.3971607898  TIP3      1916            0.0000000000
     28001      2109  TIP3      OH2            13.8075610548        4.5627453520       30.8250862520  TIP3      1917            0.0000000000
     28002      2109  TIP3      H1             13.1216675393        4.6113241602       31.5277370000  TIP3      1917            0.0000000000
     28003      2109  TIP3      H2             13.2997743379        4.3087498928       30.0397769747  TIP3      1917            0.0000000000
     28004      2110  TIP3      OH2            17.0092837791       20.2038711304       37.1506878321  TIP3      1918            0.0000000000
     28005      2110  TIP3      H1             17.2758220840       20.5878407409       36.2963619556  TIP3      1918            0.0000000000
     28006      2110  TIP3      H2             17.7333258300       20.5240935824       37.7095005693  TIP3      1918            0.0000000000
     28007      2111  TIP3      OH2             4.6863767955       12.6725847691       36.7225429432  TIP3      1919            0.0000000000
     28008      2111  TIP3      H1              5.4064680283       12.9191045200       37.3260212475  TIP3      1919            0.0000000000
     28009      2111  TIP3      H2              3.9137732981       12.7535084954       37.3236941864  TIP3      1919            0.0000000000
     28010      2112  TIP3      OH2            10.6869873749        8.0857218123       29.4623111089  TIP3      1920            0.0000000000
     28011      2112  TIP3      H1             11.2906146733        7.5267537427       28.9659515473  TIP3      1920            0.0000000000
     28012      2112  TIP3      H2             10.5284421410        7.5546578087       30.2587958020  TIP3      1920            0.0000000000
     28013      2113  TIP3      OH2             5.7088149876        4.2407926724       25.9265150029  TIP3      1921            0.0000000000
     28014      2113  TIP3      H1              5.3982528169        3.3190058183       25.8954724157  TIP3      1921            0.0000000000
     28015      2113  TIP3      H2              6.4660061404        4.1866091851       25.3238414934  TIP3      1921            0.0000000000
     28016      2114  TIP3      OH2             9.3278773403        6.4077715427       31.9019919351  TIP3      1922            0.0000000000
     28017      2114  TIP3      H1              8.5015925668        6.9296012481       31.9815057968  TIP3      1922            0.0000000000
     28018      2114  TIP3      H2              9.8822903202        6.7660923976       32.6188973015  TIP3      1922            0.0000000000
     28019      2115  TIP3      OH2            17.1001788253       11.8373535744       32.3848319874  TIP3      1923            0.0000000000
     28020      2115  TIP3      H1             17.6610555178       12.3238940535       31.7531605947  TIP3      1923            0.0000000000
     28021      2115  TIP3      H2             16.2398159685       11.8870944575       31.9211376543  TIP3      1923            0.0000000000
     28022      2116  TIP3      OH2            13.7034805878        5.5095310506       21.9880154032  TIP3      1924            0.0000000000
     28023      2116  TIP3      H1             12.8368875021        5.5881183194       21.5238167594  TIP3      1924            0.0000000000
     28024      2116  TIP3      H2             14.0961591793        6.3629816400       21.8779606092  TIP3      1924            0.0000000000
     28025      2117  TIP3      OH2            11.4057412800       12.9051911726       34.8347971243  TIP3      1925            0.0000000000
     28026      2117  TIP3      H1             11.0585787868       12.4752536004       35.6234265945  TIP3      1925            0.0000000000
     28027      2117  TIP3      H2             11.1492225643       13.8264382949       34.9419513528  TIP3      1925            0.0000000000
     28028      2118  TIP3      OH2             5.0286272811       12.0331550344       29.3870035885  TIP3      1926            0.0000000000
     28029      2118  TIP3      H1              5.7058105058       11.9471875203       28.6853523228  TIP3      1926            0.0000000000
     28030      2118  TIP3      H2              5.0871787888       11.1751097848       29.8446635042  TIP3      1926            0.0000000000
     28031      2119  TIP3      OH2             2.0132683192       10.4305226848       34.6512288890  TIP3      1927            0.0000000000
     28032      2119  TIP3      H1              2.1829172693        9.9867590398       35.5049477609  TIP3      1927            0.0000000000
     28033      2119  TIP3      H2              1.3927814280        9.8217896289       34.2122127085  TIP3      1927            0.0000000000
     28034      2120  TIP3      OH2             9.0255134920        9.9931199483       36.8259962086  TIP3      1928            0.0000000000
     28035      2120  TIP3      H1              8.7060878163        9.6828154243       35.9669778553  TIP3      1928            0.0000000000
     28036      2120  TIP3      H2              9.9485210762        9.6674264672       36.8253140642  TIP3      1928            0.0000000000
     28037      2121  TIP3      OH2            13.7127639310       15.3280552249       34.7830030428  TIP3      1929            0.0000000000
     28038      2121  TIP3      H1             12.7874314992       15.5060827771       34.5489160800  TIP3      1929            0.0000000000
     28039      2121  TIP3      H2             13.6791747524       15.6211182113       35.7137195779  TIP3      1929            0.0000000000
     28040      2122  TIP3      OH2            19.3674975999       13.3700206065       35.9753069010  TIP3      1930            0.0000000000
     28041      2122  TIP3      H1             18.4745019959       13.5903614234       35.6109746965  TIP3      1930            0.0000000000
     28042      2122  TIP3      H2             19.9120089098       13.3182773225       35.1632814936  TIP3      1930            0.0000000000
     28043      2123  TIP3      OH2            17.6836052966       16.3225683261       23.5723707297  TIP3      1931            0.0000000000
     28044      2123  TIP3      H1             17.3003691882       15.5074044778       23.8986375773  TIP3      1931            0.0000000000
     28045      2123  TIP3      H2             17.9164764485       16.1745713445       22.6461434836  TIP3      1931            0.0000000000
     28046      2124  TIP3      OH2            14.8727453027       11.1553301385       30.6699943544  TIP3      1932            0.0000000000
     28047      2124  TIP3      H1             13.9339605318       10.9350088713       30.5733753742  TIP3      1932            0.0000000000
     28048      2124  TIP3      H2             15.3062298423       10.4029766221       30.2259217311  TIP3      1932            0.0000000000
     28049      2125  TIP3      OH2             7.3719587234       15.5016008691       26.8212230028  TIP3      1933            0.0000000000
     28050      2125  TIP3      H1              7.8985317428       16.2690734219       26.5407154061  TIP3      1933            0.0000000000
     28051      2125  TIP3      H2              6.5110198128       15.7108252409       26.4468208460  TIP3      1933            0.0000000000
     28052      2126  TIP3      OH2             8.8768017514       13.1749983347       26.4292968931  TIP3      1934            0.0000000000
     28053      2126  TIP3      H1              8.4811512197       14.0631140287       26.3566335492  TIP3      1934            0.0000000000
     28054      2126  TIP3      H2              8.0980434645       12.6513676441       26.6918914417  TIP3      1934            0.0000000000
     28055      2127  TIP3      OH2             9.2597910906       17.3338271742       32.7060199691  TIP3      1935            0.0000000000
     28056      2127  TIP3      H1              9.7214068824       18.1374122140       32.4177121911  TIP3      1935            0.0000000000
     28057      2127  TIP3      H2              9.8776792667       16.9905663861       33.3772567834  TIP3      1935            0.0000000000
     28058      2128  TIP3      OH2             7.4773947114       18.1468552867       25.8410343101  TIP3      1936            0.0000000000
     28059      2128  TIP3      H1              6.5170835110       18.2780916955       25.9915920789  TIP3      1936            0.0000000000
     28060      2128  TIP3      H2              7.8609464279       18.9591452955       26.2074650176  TIP3      1936            0.0000000000
     28061      2129  TIP3      OH2            12.7780730993       13.3228142972       32.3115072616  TIP3      1937            0.0000000000
     28062      2129  TIP3      H1             12.4621528061       13.1389312591       33.2234190621  TIP3      1937            0.0000000000
     28063      2129  TIP3      H2             13.4261136604       12.6197648799       32.1522946382  TIP3      1937            0.0000000000
     28064      2130  TIP3      OH2            15.6050288550       17.9123207833       34.8076661925  TIP3      1938            0.0000000000
     28065      2130  TIP3      H1             14.9118329210       17.4190367527       34.3296584792  TIP3      1938            0.0000000000
     28066      2130  TIP3      H2             15.7865814620       18.6130367143       34.1465774285  TIP3      1938            0.0000000000
     28067      2131  TIP3      OH2             3.6631962739        5.1665205674       34.1971793515  TIP3      1939            0.0000000000
     28068      2131  TIP3      H1              2.7567930363        5.5185425155       34.1792668206  TIP3      1939            0.0000000000
     28069      2131  TIP3      H2              3.5520262406        4.3217576876       34.6614378989  TIP3      1939            0.0000000000
     28070      2132  TIP3      OH2            15.9106849936       13.0333895196       23.6799210148  TIP3      1940            0.0000000000
     28071      2132  TIP3      H1             15.6488753327       12.2345134629       24.1888395342  TIP3      1940            0.0000000000
     28072      2132  TIP3      H2             16.8304457128       13.0780198749       23.9188350245  TIP3      1940            0.0000000000
     28073      2133  TIP3      OH2             3.2751214325       16.9500879062       32.6279615198  TIP3      1941            0.0000000000
     28074      2133  TIP3      H1              3.5805734504       16.0299530925       32.6333795230  TIP3      1941            0.0000000000
     28075      2133  TIP3      H2              3.5386677316       17.2414333736       33.5079420293  TIP3      1941            0.0000000000
     28076      2134  TIP3      OH2            12.3969584334        4.9398262981       33.1659986356  TIP3      1942            0.0000000000
     28077      2134  TIP3      H1             13.1143878239        4.9987755651       33.8074931488  TIP3      1942            0.0000000000
     28078      2134  TIP3      H2             12.0125854904        4.0634572069       33.3681860768  TIP3      1942            0.0000000000
     28079      2135  TIP3      OH2            13.0788555660        4.5913210265       24.3062883480  TIP3      1943            0.0000000000
     28080      2135  TIP3      H1             13.3814142417        4.9115002258       23.4207412339  TIP3      1943            0.0000000000
     28081      2135  TIP3      H2             13.7670579433        4.9266931486       24.8810111587  TIP3      1943            0.0000000000
     28082      2136  TIP3      OH2            10.3612527709        6.2949851997       25.0493126948  TIP3      1944            0.0000000000
     28083      2136  TIP3      H1             11.1626739042        6.8138559550       25.0853650513  TIP3      1944            0.0000000000
     28084      2136  TIP3      H2             10.0840447135        6.1310041964       25.9718328468  TIP3      1944            0.0000000000
     28085      2137  TIP3      OH2            10.9282669930        7.2938595601       34.2595303327  TIP3      1945            0.0000000000
     28086      2137  TIP3      H1             10.9973281963        7.8463613156       35.0605040200  TIP3      1945            0.0000000000
     28087      2137  TIP3      H2             11.5829024626        6.5908527441       34.3565543286  TIP3      1945            0.0000000000
     28088      2138  TIP3      OH2            11.2285333078        3.3250664777       25.9538079598  TIP3      1946            0.0000000000
     28089      2138  TIP3      H1             10.8920685144        3.9598210979       26.6106414654  TIP3      1946            0.0000000000
     28090      2138  TIP3      H2             11.9172329290        3.8694896893       25.4993494484  TIP3      1946            0.0000000000
     28091      2139  TIP3      OH2             8.1693958970       17.8013364269       23.0748039767  TIP3      1947            0.0000000000
     28092      2139  TIP3      H1              8.3861543056       18.5584116894       22.5262022194  TIP3      1947            0.0000000000
     28093      2139  TIP3      H2              7.9573156174       18.0647262392       23.9915524408  TIP3      1947            0.0000000000
     28094      2140  TIP3      OH2             6.8656610607        4.3902826963       22.7953634449  TIP3      1948            0.0000000000
     28095      2140  TIP3      H1              6.8506950040        5.3402847557       22.9800643662  TIP3      1948            0.0000000000
     28096      2140  TIP3      H2              7.8108989388        4.1973369305       22.8800038460  TIP3      1948            0.0000000000
     28097      2141  TIP3      OH2            17.1338688285        5.1734690862       35.0821359349  TIP3      1949            0.0000000000
     28098      2141  TIP3      H1             16.1833063999        5.4560725668       34.9933135581  TIP3      1949            0.0000000000
     28099      2141  TIP3      H2             17.3570850829        5.1101172463       34.1438988428  TIP3      1949            0.0000000000
     28100      2142  TIP3      OH2            15.7138591645        8.9422268774       29.1261664778  TIP3      1950            0.0000000000
     28101      2142  TIP3      H1             14.8972328150        8.4938088522       28.8500468446  TIP3      1950            0.0000000000
     28102      2142  TIP3      H2             16.1910493910        8.2563389003       29.6452745844  TIP3      1950            0.0000000000
     28103      2143  TIP3      OH2            16.7738948830       18.1995888740       30.7692125485  TIP3      1951            0.0000000000
     28104      2143  TIP3      H1             16.6910972676       18.8961930600       30.0919093463  TIP3      1951            0.0000000000
     28105      2143  TIP3      H2             17.7372118672       18.2478676112       30.9520122801  TIP3      1951            0.0000000000
     28106      2144  TIP3      OH2             4.2676459262        2.3243616883       29.5835089638  TIP3      1952            0.0000000000
     28107      2144  TIP3      H1              4.0705056085        2.3351991566       28.6180629331  TIP3      1952            0.0000000000
     28108      2144  TIP3      H2              3.8562648246        1.4735471318       29.8437092545  TIP3      1952            0.0000000000
     28109      2145  TIP3      OH2             3.2219905839       16.2866305757       25.7195324288  TIP3      1953            0.0000000000
     28110      2145  TIP3      H1              2.3593520110       16.7231126879       25.7079117840  TIP3      1953            0.0000000000
     28111      2145  TIP3      H2              3.7168048269       16.7620868558       25.0472079946  TIP3      1953            0.0000000000
     28112      2146  TIP3      OH2             2.4364082532       18.8938081602       37.0085548456  TIP3      1954            0.0000000000
     28113      2146  TIP3      H1              3.0342972163       18.6965728689       37.7567901498  TIP3      1954            0.0000000000
     28114      2146  TIP3      H2              2.0295010885       18.0265314372       36.8367667008  TIP3      1954            0.0000000000
     28115      2147  TIP3      OH2             7.1125822256       17.8161786970       38.6274443141  TIP3      1955            0.0000000000
     28116      2147  TIP3      H1              7.8688108924       17.3156033121       38.9601347188  TIP3      1955            0.0000000000
     28117      2147  TIP3      H2              7.0855747402       17.5363131426       37.6907214076  TIP3      1955            0.0000000000
     28118      2148  TIP3      OH2            11.2205762532       17.2832166410       20.1839946112  TIP3      1956            0.0000000000
     28119      2148  TIP3      H1             10.4966874780       16.6589985920       20.2815725399  TIP3      1956            0.0000000000
     28120      2148  TIP3      H2             11.9330725110       16.7987876238       19.7396676609  TIP3      1956            0.0000000000
     28121      2149  TIP3      OH2            13.6146280482       16.1992014746       37.3769199937  TIP3      1957            0.0000000000
     28122      2149  TIP3      H1             13.2995821996       15.3119093734       37.6514833288  TIP3      1957            0.0000000000
     28123      2149  TIP3      H2             14.3834131280       16.3179619726       37.9693305215  TIP3      1957            0.0000000000
     28124      2150  TIP3      OH2             2.3401388018       12.6685240449       38.0158920299  TIP3      1958            0.0000000000
     28125      2150  TIP3      H1              2.5068689305       11.7571045849       37.7142484357  TIP3      1958            0.0000000000
     28126      2150  TIP3      H2              1.6005846980       12.9263956566       37.4411420779  TIP3      1958            0.0000000000
     28127      2151  TIP3      OH2             9.0581443038       12.6571048308       37.4003240932  TIP3      1959            0.0000000000
     28128      2151  TIP3      H1              8.7230225108       12.9696867618       36.5368425851  TIP3      1959            0.0000000000
     28129      2151  TIP3      H2              9.1321550980       11.6796796372       37.2920540568  TIP3      1959            0.0000000000
     28130      2152  TIP3      OH2            14.7539832251       12.5164132721       34.7924886046  TIP3      1960            0.0000000000
     28131      2152  TIP3      H1             15.5420947474       13.0990323918       34.7309310765  TIP3      1960            0.0000000000
     28132      2152  TIP3      H2             14.0536541323       13.1842085533       34.8281587753  TIP3      1960            0.0000000000
     28133      2153  TIP3      OH2             3.2647202761        9.8948085317       37.3962139617  TIP3      1961            0.0000000000
     28134      2153  TIP3      H1              3.6801406210        9.0310445509       37.3049773613  TIP3      1961            0.0000000000
     28135      2153  TIP3      H2              3.0290228192        9.8994781273       38.3378837768  TIP3      1961            0.0000000000
     28136      2154  TIP3      OH2             7.1604140055        8.8378116902       34.7488899363  TIP3      1962            0.0000000000
     28137      2154  TIP3      H1              6.5642956980        9.5593595185       35.0057795606  TIP3      1962            0.0000000000
     28138      2154  TIP3      H2              7.5582838934        9.2057775666       33.9415184815  TIP3      1962            0.0000000000
     28139      2155  TIP3      OH2            12.2349214044       11.4076678374       38.0861341663  TIP3      1963            0.0000000000
     28140      2155  TIP3      H1             13.1915347332       11.3946136677       37.9624735221  TIP3      1963            0.0000000000
     28141      2155  TIP3      H2             12.0633536212       10.6410006911       38.6559899169  TIP3      1963            0.0000000000
     28142      2156  TIP3      OH2             7.5667346353        6.2159544338       35.8064307524  TIP3      1964            0.0000000000
     28143      2156  TIP3      H1              7.6835138409        5.5072880899       35.1470638869  TIP3      1964            0.0000000000
     28144      2156  TIP3      H2              7.5223809595        7.0271119687       35.2575958046  TIP3      1964            0.0000000000
     28145      2157  TIP3      OH2             7.9710794891        4.5980065532       33.3612051103  TIP3      1965            0.0000000000
     28146      2157  TIP3      H1              8.4791409868        5.0637842024       32.6543341566  TIP3      1965            0.0000000000
     28147      2157  TIP3      H2              7.0774758450        4.5204484801       32.9552773564  TIP3      1965            0.0000000000
     28148      2158  TIP3      OH2             9.5090503546       10.0903132618       33.6028069232  TIP3      1966            0.0000000000
     28149      2158  TIP3      H1             10.2634269662        9.9230711295       33.0320295279  TIP3      1966            0.0000000000
     28150      2158  TIP3      H2              9.1437270190       10.9232160767       33.2664603888  TIP3      1966            0.0000000000
     28151      2159  TIP3      OH2            13.9048773515        7.8385211158       38.5639595787  TIP3      1967            0.0000000000
     28152      2159  TIP3      H1             14.1396166419        6.9037550718       38.4740682507  TIP3      1967            0.0000000000
     28153      2159  TIP3      H2             14.7680756984        8.2835382859       38.5989102283  TIP3      1967            0.0000000000
     28154      2160  TIP3      OH2            15.2585982868       10.6327176711       36.7285859057  TIP3      1968            0.0000000000
     28155      2160  TIP3      H1             15.0003685502       11.3544764180       36.1135947094  TIP3      1968            0.0000000000
     28156      2160  TIP3      H2             16.2188104471       10.6037526053       36.5439285874  TIP3      1968            0.0000000000
     28157      2161  TIP3      OH2             6.0291933143        7.4671704655       37.7269647730  TIP3      1969            0.0000000000
     28158      2161  TIP3      H1              5.2594997166        6.8897690383       37.5591011451  TIP3      1969            0.0000000000
     28159      2161  TIP3      H2              6.6829283249        7.0977778030       37.1054120030  TIP3      1969            0.0000000000
     28160      2162  TIP3      OH2             8.7613700119        2.0350296245       33.7468878144  TIP3      1970            0.0000000000
     28161      2162  TIP3      H1              8.5777960853        2.9990249682       33.6519671984  TIP3      1970            0.0000000000
     28162      2162  TIP3      H2              8.0106926063        1.6687625397       33.2473889711  TIP3      1970            0.0000000000
     28163      2163  TIP3      OH2            10.0287253993        6.3648113885       37.3780459929  TIP3      1971            0.0000000000
     28164      2163  TIP3      H1              9.7143149025        6.1314700426       38.2733093349  TIP3      1971            0.0000000000
     28165      2163  TIP3      H2              9.2475992141        6.1614556810       36.8362237934  TIP3      1971            0.0000000000
     28166      2164  TIP3      OH2            12.7515827690        5.5098502736       36.4692792330  TIP3      1972            0.0000000000
     28167      2164  TIP3      H1             11.7861604526        5.5623240419       36.5761034978  TIP3      1972            0.0000000000
     28168      2164  TIP3      H2             13.0144171574        4.8675246074       37.1554970927  TIP3      1972            0.0000000000
     28169      2165  TIP3      OH2            14.3543165121        4.1280149067       38.3696857121  TIP3      1973            0.0000000000
     28170      2165  TIP3      H1             14.2858489392        3.1517872641       38.3956558189  TIP3      1973            0.0000000000
     28171      2165  TIP3      H2             14.0856575569        4.4207296116       39.2630742542  TIP3      1973            0.0000000000
     28172      2166  TIP3      OH2             4.1049406372        5.4045628538       37.4829690336  TIP3      1974            0.0000000000
     28173      2166  TIP3      H1              4.3547357008        4.6688124425       36.8968378769  TIP3      1974            0.0000000000
     28174      2166  TIP3      H2              4.0175074764        4.9561424810       38.3468151135  TIP3      1974            0.0000000000
     28175      2167  TIP3      OH2             8.9738224419        1.4287229784       36.4495787418  TIP3      1975            0.0000000000
     28176      2167  TIP3      H1              9.6533861237        0.7252863935       36.4328015018  TIP3      1975            0.0000000000
     28177      2167  TIP3      H2              8.8591981057        1.5712311686       35.4894460120  TIP3      1975            0.0000000000
     28178      2168  TIP3      OH2             9.3359661612        3.0413685675       38.5663702882  TIP3      1976            0.0000000000
     28179      2168  TIP3      H1              9.1623208677        2.5358796349       37.7335790633  TIP3      1976            0.0000000000
     28180      2168  TIP3      H2              8.7364371901        3.8059450905       38.4657754579  TIP3      1976            0.0000000000
     28181      2169  TIP3      OH2             1.0757600864       19.9218117408       26.2101725120  TIP3      1977            0.0000000000
     28182      2169  TIP3      H1              0.4723711637       19.4302849083       25.6433128629  TIP3      1977            0.0000000000
     28183      2169  TIP3      H2              1.4245113163       19.2523824218       26.8210840922  TIP3      1977            0.0000000000
     28184      2170  TIP3      OH2             1.9519482023       18.0459442540       28.0389244796  TIP3      1978            0.0000000000
     28185      2170  TIP3      H1              1.6058894523       17.1643125840       28.2229412667  TIP3      1978            0.0000000000
     28186      2170  TIP3      H2              2.1822490710       18.3759415165       28.9252525587  TIP3      1978            0.0000000000
     28187      2171  TIP3      OH2            19.4981610329       18.8468153243       30.9801409745  TIP3      1979            0.0000000000
     28188      2171  TIP3      H1             19.5293719835       19.0070463188       31.9389935519  TIP3      1979            0.0000000000
     28189      2171  TIP3      H2             20.2024233832       19.4287893545       30.6764263559  TIP3      1979            0.0000000000
     28190      2172  TIP3      OH2            19.0678246332       18.4446925785       33.9328193908  TIP3      1980            0.0000000000
     28191      2172  TIP3      H1             18.6020954249       17.6740946568       33.5447893609  TIP3      1980            0.0000000000
     28192      2172  TIP3      H2             19.5594105543       17.9950786463       34.6397400728  TIP3      1980            0.0000000000
     28193      2173  TIP3      OH2            17.5166817334       14.1643967953       38.5974104790  TIP3      1981            0.0000000000
     28194      2173  TIP3      H1             16.6113820077       14.1354288217       38.9625518361  TIP3      1981            0.0000000000
     28195      2173  TIP3      H2             17.8886838161       14.9682219422       39.0094858820  TIP3      1981            0.0000000000
     28196      2174  TIP3      OH2            19.2005572033       10.5529311597       25.9197360129  TIP3      1982            0.0000000000
     28197      2174  TIP3      H1             18.4399400042       10.0774859549       26.3127335170  TIP3      1982            0.0000000000
     28198      2174  TIP3      H2             19.7822085682       10.7223799515       26.6839632814  TIP3      1982            0.0000000000
     28199      2175  TIP3      OH2            18.9607438941       13.2599365450       30.9192207759  TIP3      1983            0.0000000000
     28200      2175  TIP3      H1             19.7606948821       12.8851327124       30.5117055102  TIP3      1983            0.0000000000
     28201      2175  TIP3      H2             19.0982270033       14.2131368521       30.7377329665  TIP3      1983            0.0000000000
     28202      2176  TIP3      OH2            17.5071928080       16.1686296553       33.1651798112  TIP3      1984            0.0000000000
     28203      2176  TIP3      H1             16.8174005312       16.5096495946       33.7551987483  TIP3      1984            0.0000000000
     28204      2176  TIP3      H2             16.9600382842       15.7671192009       32.4539472495  TIP3      1984            0.0000000000
     28205      2177  TIP3      OH2            16.9688356762        9.0229548806       26.4643008989  TIP3      1985            0.0000000000
     28206      2177  TIP3      H1             16.8657622405        8.0619496316       26.4830578054  TIP3      1985            0.0000000000
     28207      2177  TIP3      H2             16.7019071237        9.2728446323       27.3708917247  TIP3      1985            0.0000000000
     28208      2178  TIP3      OH2             2.0195938271       11.1288526392       30.5334342200  TIP3      1986            0.0000000000
     28209      2178  TIP3      H1              2.1953734324       11.0494623593       29.5660504930  TIP3      1986            0.0000000000
     28210      2178  TIP3      H2              2.9114652574       10.9496104283       30.8917389964  TIP3      1986            0.0000000000
     28211      2179  TIP3      OH2            17.8765288029       11.0082765582       36.1697962348  TIP3      1987            0.0000000000
     28212      2179  TIP3      H1             18.4842179204       10.2543835124       36.3108448520  TIP3      1987            0.0000000000
     28213      2179  TIP3      H2             18.4778007729       11.7795617429       36.1792561004  TIP3      1987            0.0000000000
     28214      2180  TIP3      OH2            19.3832428735        8.8972216789       36.7332065315  TIP3      1988            0.0000000000
     28215      2180  TIP3      H1             18.4755941431        8.5142755278       36.6910119392  TIP3      1988            0.0000000000
     28216      2180  TIP3      H2             19.9279940721        8.1178406851       36.8606745303  TIP3      1988            0.0000000000
     28217      2181  TIP3      OH2            16.6606558221        6.5991239472       24.9610106748  TIP3      1989            0.0000000000
     28218      2181  TIP3      H1             16.9782742280        5.6687056581       25.0657320355  TIP3      1989            0.0000000000
     28219      2181  TIP3      H2             17.4491472108        6.9896799516       24.5628071542  TIP3      1989            0.0000000000
     28220      2182  TIP3      OH2            17.3151032766        7.1649346008       30.3763247047  TIP3      1990            0.0000000000
     28221      2182  TIP3      H1             18.2707264504        7.4067446456       30.3575368087  TIP3      1990            0.0000000000
     28222      2182  TIP3      H2             17.1140884405        7.3185228106       31.3097147163  TIP3      1990            0.0000000000
     28223      2183  TIP3      OH2            17.3928794770        7.8990838084       33.1971161065  TIP3      1991            0.0000000000
     28224      2183  TIP3      H1             16.4930224281        8.1796843882       33.4782671044  TIP3      1991            0.0000000000
     28225      2183  TIP3      H2             17.8009343447        8.7633365757       32.9399209372  TIP3      1991            0.0000000000
     28226      2184  TIP3      OH2             1.6379113736        6.4305616290       36.7055230318  TIP3      1992            0.0000000000
     28227      2184  TIP3      H1              2.5748886104        6.2152834108       36.8912130024  TIP3      1992            0.0000000000
     28228      2184  TIP3      H2              1.1796823393        5.6041255533       36.9721174261  TIP3      1992            0.0000000000
     28229      2185  TIP3      OH2            19.6384924452        1.9583626650       38.4973296634  TIP3      1993            0.0000000000
     28230      2185  TIP3      H1             20.0072053937        1.2821346624       37.8983433602  TIP3      1993            0.0000000000
     28231      2185  TIP3      H2             19.7737226588        2.7646369499       37.9799606555  TIP3      1993            0.0000000000
     28232      2186  TIP3      OH2            17.3250834942        3.9149875774       24.9671889178  TIP3      1994            0.0000000000
     28233      2186  TIP3      H1             17.5736700606        3.4692510722       25.8043138537  TIP3      1994            0.0000000000
     28234      2186  TIP3      H2             16.7452579549        3.2500762014       24.5354287823  TIP3      1994            0.0000000000
     28235      2187  TIP3      OH2             2.8344169257        4.7197849716       29.5485203138  TIP3      1995            0.0000000000
     28236      2187  TIP3      H1              3.2943203765        3.8912664895       29.7984835925  TIP3      1995            0.0000000000
     28237      2187  TIP3      H2              3.3889467341        5.4100091096       29.9367109414  TIP3      1995            0.0000000000
     28238      2188  TIP3      OH2             1.1174979519        7.7209157361       30.5837243166  TIP3      1996            0.0000000000
     28239      2188  TIP3      H1              1.6821851266        7.4691376378       29.8246368417  TIP3      1996            0.0000000000
     28240      2188  TIP3      H2              1.5865905122        8.5236821650       30.8535491915  TIP3      1996            0.0000000000
     28241      2189  TIP3      OH2            19.2182100588        4.1541191091       36.7465613268  TIP3      1997            0.0000000000
     28242      2189  TIP3      H1             18.2481939731        4.3035830560       36.8378977594  TIP3      1997            0.0000000000
     28243      2189  TIP3      H2             19.1785564865        3.4471405899       36.0809217577  TIP3      1997            0.0000000000
     28244      2190  TIP3      OH2             1.4685453539        4.1029336059       24.7019262295  TIP3      1998            0.0000000000
     28245      2190  TIP3      H1              0.5250076910        4.1256598589       24.4796621101  TIP3      1998            0.0000000000
     28246      2190  TIP3      H2              1.8638155640        4.3587427494       23.8650575302  TIP3      1998            0.0000000000
     28247      2191  TIP3      OH2            16.2115214080       18.9118349684       26.5878245635  TIP3      1999            0.0000000000
     28248      2191  TIP3      H1             16.9114776560       18.6330743656       25.9762278833  TIP3      1999            0.0000000000
     28249      2191  TIP3      H2             16.7191468624       19.4297547499       27.2345710365  TIP3      1999            0.0000000000
     28250      2192  TIP3      OH2             1.4321296103        2.6288932387       32.9505431836  TIP3      2000            0.0000000000
     28251      2192  TIP3      H1              0.7643139756        2.4398978458       33.6329864043  TIP3      2000            0.0000000000
     28252      2192  TIP3      H2              0.9756352695        3.3049918553       32.4099517427  TIP3      2000            0.0000000000
     28253      2193  TIP3      OH2             3.6726178507       15.8230520202       37.1149320729  TIP3      2001            0.0000000000
     28254      2193  TIP3      H1              2.8354296585       16.0513305792       36.6766756174  TIP3      2001            0.0000000000
     28255      2193  TIP3      H2              3.4031107253       15.7558304978       38.0343807066  TIP3      2001            0.0000000000
     28256      2194  TIP3      OH2             6.5726415143       16.8359590151       33.3940089701  TIP3      2002            0.0000000000
     28257      2194  TIP3      H1              6.2429875483       17.7059960797       33.1211825407  TIP3      2002            0.0000000000
     28258      2194  TIP3      H2              7.4989359048       16.9227169252       33.0882208220  TIP3      2002            0.0000000000
     28259      2195  TIP3      OH2            10.8914621082       18.2616661560       36.2960924069  TIP3      2003            0.0000000000
     28260      2195  TIP3      H1             11.0298773096       17.9080528962       37.2052084842  TIP3      2003            0.0000000000
     28261      2195  TIP3      H2             11.7943890038       18.5645317496       36.0548837512  TIP3      2003            0.0000000000
     28262      2196  TIP3      OH2            13.1784923445       19.5287322013       35.6084827881  TIP3      2004            0.0000000000
     28263      2196  TIP3      H1             13.9106447358       18.9440954484       35.3705588357  TIP3      2004            0.0000000000
     28264      2196  TIP3      H2             13.5539148273       19.9671899295       36.4025923325  TIP3      2004            0.0000000000
     28265      2197  TIP3      OH2            18.2164832575        2.1516051968       34.7022304460  TIP3      2005            0.0000000000
     28266      2197  TIP3      H1             17.3663097756        2.4231908871       34.3069180948  TIP3      2005            0.0000000000
     28267      2197  TIP3      H2             18.3609342362        1.3084541839       34.2074002791  TIP3      2005            0.0000000000
     28268      2198  TIP3      OH2             3.9945254538       20.0738232213       33.3859954756  TIP3      2006            0.0000000000
     28269      2198  TIP3      H1              3.2644618401       20.5746231574       32.9915935522  TIP3      2006            0.0000000000
     28270      2198  TIP3      H2              3.6853460846       19.8831346052       34.2832124546  TIP3      2006            0.0000000000
     28271      2199  TIP3      OH2             6.4636091892       19.6510173701       32.4619573068  TIP3      2007            0.0000000000
     28272      2199  TIP3      H1              5.5707981471       19.7986361442       32.8553277957  TIP3      2007            0.0000000000
     28273      2199  TIP3      H2              6.4079807329       20.2413373976       31.6882823745  TIP3      2007            0.0000000000
     28274      2200  TIP3      OH2            11.1734049865       19.5669864229       31.6260474910  TIP3      2008            0.0000000000
     28275      2200  TIP3      H1             10.7077053366       20.1236009038       30.9843142264  TIP3      2008            0.0000000000
     28276      2200  TIP3      H2             11.3019550049       20.1956377047       32.3673304133  TIP3      2008            0.0000000000
     28277      2201  TIP3      OH2            13.4579292695       18.3713743956       32.6622447811  TIP3      2009            0.0000000000
     28278      2201  TIP3      H1             12.6050384482       18.6498196385       32.2905725194  TIP3      2009            0.0000000000
     28279      2201  TIP3      H2             13.9445417827       19.2087009461       32.5689719747  TIP3      2009            0.0000000000
     28280      2202  TIP3      OH2            16.0406823116       19.9413188665       32.8792158028  TIP3      2010            0.0000000000
     28281      2202  TIP3      H1             15.9885848542       20.9027086246       32.6527603146  TIP3      2010            0.0000000000
     28282      2202  TIP3      H2             16.2582996943       19.5695760652       32.0024568380  TIP3      2010            0.0000000000
     28283      2203  TIP3      OH2             3.4583494414       18.7223159418       30.3299036970  TIP3      2011            0.0000000000
     28284      2203  TIP3      H1              3.3821853201       18.2576852130       31.1895703626  TIP3      2011            0.0000000000
     28285      2203  TIP3      H2              4.2720536870       18.3435689955       29.9409094475  TIP3      2011            0.0000000000
     28286      2204  TIP3      OH2             5.5268746116       17.4399954712       28.9864698702  TIP3      2012            0.0000000000
     28287      2204  TIP3      H1              5.3677278588       16.5031488914       29.2167214801  TIP3      2012            0.0000000000
     28288      2204  TIP3      H2              6.3858837797       17.5901652915       29.4358452041  TIP3      2012            0.0000000000
     28289      2205  TIP3      OH2             8.1369440773       17.9217697439       29.8616104462  TIP3      2013            0.0000000000
     28290      2205  TIP3      H1              8.2943950678       16.9969690583       29.5962813005  TIP3      2013            0.0000000000
     28291      2205  TIP3      H2              8.1788502576       17.8624695818       30.8270831465  TIP3      2013            0.0000000000
     28292      2206  TIP3      OH2            11.5880684083        3.5802671107       28.9718534652  TIP3      2014            0.0000000000
     28293      2206  TIP3      H1             10.9203919169        2.9397982932       29.2763180214  TIP3      2014            0.0000000000
     28294      2206  TIP3      H2             12.1464391422        3.0333675572       28.4103688175  TIP3      2014            0.0000000000
     28295      2207  TIP3      OH2            16.7245487926        1.6185870976       29.0643507842  TIP3      2015            0.0000000000
     28296      2207  TIP3      H1             17.3365429368        2.2085402319       28.5545885394  TIP3      2015            0.0000000000
     28297      2207  TIP3      H2             15.8417010412        1.9776486594       28.8329110323  TIP3      2015            0.0000000000
     28298      2208  TIP3      OH2            18.3874442593        2.8662619720       27.3381601777  TIP3      2016            0.0000000000
     28299      2208  TIP3      H1             19.0806674448        2.2941745600       26.9299627867  TIP3      2016            0.0000000000
     28300      2208  TIP3      H2             18.8968258651        3.6938364569       27.4906735102  TIP3      2016            0.0000000000
     28301      2209  TIP3      OH2             3.9468635217        2.1971361613       26.8487215616  TIP3      2017            0.0000000000
     28302      2209  TIP3      H1              3.1521530207        2.0024825780       26.3167313276  TIP3      2017            0.0000000000
     28303      2209  TIP3      H2              4.4183958432        1.3461137606       26.7537645503  TIP3      2017            0.0000000000
     28304      2210  TIP3      OH2             8.4308434524        2.1172166458       26.6306199738  TIP3      2018            0.0000000000
     28305      2210  TIP3      H1              9.3289692354        2.4794499365       26.5601889834  TIP3      2018            0.0000000000
     28306      2210  TIP3      H2              8.3946864105        1.9047427531       27.5607944802  TIP3      2018            0.0000000000
     28307      2211  TIP3      OH2            14.1456589363        2.1372773324       28.2561369962  TIP3      2019            0.0000000000
     28308      2211  TIP3      H1             14.0926182557        2.2531235310       27.2986937179  TIP3      2019            0.0000000000
     28309      2211  TIP3      H2             13.7650313154        1.2330444288       28.3813682320  TIP3      2019            0.0000000000
     28310      2212  TIP3      OH2            15.3911918847        2.1807618528       23.9598907575  TIP3      2020            0.0000000000
     28311      2212  TIP3      H1             14.6550814589        2.7710744150       23.7554062537  TIP3      2020            0.0000000000
     28312      2212  TIP3      H2             14.9514031586        1.3247389397       24.1629790403  TIP3      2020            0.0000000000
     28313      2213  TIP3      OH2             9.6388081070        4.1823504737       23.4495956352  TIP3      2021            0.0000000000
     28314      2213  TIP3      H1              9.8294483546        3.5816489402       24.1825494222  TIP3      2021            0.0000000000
     28315      2213  TIP3      H2              9.6214554697        5.0185451197       23.9510505736  TIP3      2021            0.0000000000
     28316      2214  TIP3      OH2            11.5496868861       19.2673651334       21.9749766261  TIP3      2022            0.0000000000
     28317      2214  TIP3      H1             12.4387287725       19.4640696183       21.6888786237  TIP3      2022            0.0000000000
     28318      2214  TIP3      H2             11.2911904666       18.7177962790       21.1893391735  TIP3      2022            0.0000000000
     28319      2215  TIP3      OH2            18.2092927237       18.7497354662       24.5964687434  TIP3      2023            0.0000000000
     28320      2215  TIP3      H1             18.0185252295       17.9481540906       24.0619778891  TIP3      2023            0.0000000000
     28321      2215  TIP3      H2             18.1413031057       19.4829716847       23.9526302267  TIP3      2023            0.0000000000
     28322      2216  TIP3      OH2             3.8448591455        2.7387639803       36.2964922056  TIP3      2024            0.0000000000
     28323      2216  TIP3      H1              3.4552500346        1.9418316715       36.7031380055  TIP3      2024            0.0000000000
     28324      2216  TIP3      H2              4.7528258432        2.6950124685       36.6792258393  TIP3      2024            0.0000000000
     28325      2217  TIP3      OH2             5.8449859817        2.1196214379       37.9419446018  TIP3      2025            0.0000000000
     28326      2217  TIP3      H1              6.7381017841        1.7827299510       37.7248898009  TIP3      2025            0.0000000000
     28327      2217  TIP3      H2              5.4712427102        1.3123484751       38.3448100707  TIP3      2025            0.0000000000
     28328      2218  TIP3      OH2            14.2458514629        1.4054894456       38.0908015919  TIP3      2026            0.0000000000
     28329      2218  TIP3      H1             14.3409884160        0.9338090961       38.9409030029  TIP3      2026            0.0000000000
     28330      2218  TIP3      H2             15.1637973014        1.3728533913       37.7483770655  TIP3      2026            0.0000000000
     28331      2219  TIP3      OH2            17.4575941373       17.4569310796       36.7232375687  TIP3      2027            0.0000000000
     28332      2219  TIP3      H1             16.6534120400       17.3208160229       36.1766443365  TIP3      2027            0.0000000000
     28333      2219  TIP3      H2             17.3416934263       18.4045065312       36.9368709918  TIP3      2027            0.0000000000
     28334      2220  TIP3      OH2            31.8959536004       11.3165263693       26.7035380095  TIP3      2028            0.0000000000
     28335      2220  TIP3      H1             31.9123533715       12.2996873797       26.6679402896  TIP3      2028            0.0000000000
     28336      2220  TIP3      H2             31.1711438000       11.1031727922       26.0905922717  TIP3      2028            0.0000000000
     28337      2221  TIP3      OH2            30.7654634527       10.5897244801       30.2016636768  TIP3      2029            0.0000000000
     28338      2221  TIP3      H1             30.7414112148        9.9415202287       30.9246092429  TIP3      2029            0.0000000000
     28339      2221  TIP3      H2             30.4287412433       10.0776345754       29.4469284635  TIP3      2029            0.0000000000
     28340      2222  TIP3      OH2            23.1005159844       10.2629180127       31.7629119652  TIP3      2030            0.0000000000
     28341      2222  TIP3      H1             23.2136160133        9.5813547626       32.4496088619  TIP3      2030            0.0000000000
     28342      2222  TIP3      H2             23.8514788801       10.8360832070       31.9732229921  TIP3      2030            0.0000000000
     28343      2223  TIP3      OH2            34.4643558279       13.5155699866       28.5016199408  TIP3      2031            0.0000000000
     28344      2223  TIP3      H1             34.0392870939       12.8061424294       28.9913859202  TIP3      2031            0.0000000000
     28345      2223  TIP3      H2             34.4675369216       14.2355517080       29.1534093042  TIP3      2031            0.0000000000
     28346      2224  TIP3      OH2            24.0362913036       14.7151570443       30.2584193532  TIP3      2032            0.0000000000
     28347      2224  TIP3      H1             23.7277307971       13.8453679414       29.9419670073  TIP3      2032            0.0000000000
     28348      2224  TIP3      H2             24.9919780741       14.5328214502       30.3030179598  TIP3      2032            0.0000000000
     28349      2225  TIP3      OH2            20.7069177835        8.2875004158       25.6791852301  TIP3      2033            0.0000000000
     28350      2225  TIP3      H1             20.2525122069        9.1510330994       25.7278645969  TIP3      2033            0.0000000000
     28351      2225  TIP3      H2             20.0926149420        7.7206286434       25.2235914930  TIP3      2033            0.0000000000
     28352      2226  TIP3      OH2            21.3734883122       10.4770271676       27.8627022880  TIP3      2034            0.0000000000
     28353      2226  TIP3      H1             21.6561578669        9.6730754066       28.3375396356  TIP3      2034            0.0000000000
     28354      2226  TIP3      H2             22.1042866937       10.6173944988       27.2487746757  TIP3      2034            0.0000000000
     28355      2227  TIP3      OH2            31.5810720485       18.7017648073       28.7228554260  TIP3      2035            0.0000000000
     28356      2227  TIP3      H1             32.2145133099       17.9968468195       28.4427167929  TIP3      2035            0.0000000000
     28357      2227  TIP3      H2             31.3348835439       18.3603800939       29.5868885834  TIP3      2035            0.0000000000
     28358      2228  TIP3      OH2            29.1405302220       12.9855732255       30.6810478180  TIP3      2036            0.0000000000
     28359      2228  TIP3      H1             29.4707924848       12.3607480786       30.0181044097  TIP3      2036            0.0000000000
     28360      2228  TIP3      H2             29.9521755430       13.1453604739       31.1932952028  TIP3      2036            0.0000000000
     28361      2229  TIP3      OH2            32.3122853847        7.4639703437       30.9859401198  TIP3      2037            0.0000000000
     28362      2229  TIP3      H1             32.4760954751        6.5040020056       30.9762566704  TIP3      2037            0.0000000000
     28363      2229  TIP3      H2             32.2097844126        7.6082776884       30.0256639966  TIP3      2037            0.0000000000
     28364      2230  TIP3      OH2            25.4039071362        5.5521824381       28.2089066725  TIP3      2038            0.0000000000
     28365      2230  TIP3      H1             25.5216179549        6.3827128682       27.7108365599  TIP3      2038            0.0000000000
     28366      2230  TIP3      H2             25.0152092490        4.9743958798       27.5152765849  TIP3      2038            0.0000000000
     28367      2231  TIP3      OH2            33.1624940747        5.6627904831       26.5878491446  TIP3      2039            0.0000000000
     28368      2231  TIP3      H1             33.7935630725        5.3082074268       27.2646884359  TIP3      2039            0.0000000000
     28369      2231  TIP3      H2             33.7711473278        6.1909078567       26.0579679559  TIP3      2039            0.0000000000
     28370      2232  TIP3      OH2            22.0379359818        7.9566418737       28.9432868598  TIP3      2040            0.0000000000
     28371      2232  TIP3      H1             22.7048845295        7.4154905750       29.4008409966  TIP3      2040            0.0000000000
     28372      2232  TIP3      H2             22.1521884068        7.6426023830       28.0332099363  TIP3      2040            0.0000000000
     28373      2233  TIP3      OH2            27.1929562532        9.5120562877       28.2663281325  TIP3      2041            0.0000000000
     28374      2233  TIP3      H1             27.8693394893        8.9311951688       28.6556403995  TIP3      2041            0.0000000000
     28375      2233  TIP3      H2             26.6806460943        8.8554265311       27.7551554350  TIP3      2041            0.0000000000
     28376      2234  TIP3      OH2            24.3293000464        4.4445539480       32.2376217212  TIP3      2042            0.0000000000
     28377      2234  TIP3      H1             24.0574516360        5.0141411529       31.4848688230  TIP3      2042            0.0000000000
     28378      2234  TIP3      H2             23.6627708193        4.6700322011       32.9207054231  TIP3      2042            0.0000000000
     28379      2235  TIP3      OH2            31.6222006705       13.9133670993       25.7821977179  TIP3      2043            0.0000000000
     28380      2235  TIP3      H1             31.3008342836       13.6429002500       24.9160419504  TIP3      2043            0.0000000000
     28381      2235  TIP3      H2             31.2931018184       14.8373950487       25.8498085849  TIP3      2043            0.0000000000
     28382      2236  TIP3      OH2            26.8358506584       12.0877990504       32.4846046888  TIP3      2044            0.0000000000
     28383      2236  TIP3      H1             26.1323650996       12.7332758810       32.7025716391  TIP3      2044            0.0000000000
     28384      2236  TIP3      H2             27.5423703526       12.6867405853       32.1940672415  TIP3      2044            0.0000000000
     28385      2237  TIP3      OH2            34.6702171110        4.9509388462       28.6677887006  TIP3      2045            0.0000000000
     28386      2237  TIP3      H1             34.6865709884        4.1357306208       29.1785607822  TIP3      2045            0.0000000000
     28387      2237  TIP3      H2             35.4268827138        5.4204018125       29.0769915501  TIP3      2045            0.0000000000
     28388      2238  TIP3      OH2            23.8920273606        6.2962966648       30.3053264698  TIP3      2046            0.0000000000
     28389      2238  TIP3      H1             24.5239353399        6.9976132679       30.5833163976  TIP3      2046            0.0000000000
     28390      2238  TIP3      H2             24.4015391914        5.8954318745       29.5531317099  TIP3      2046            0.0000000000
     28391      2239  TIP3      OH2            25.2802328669       14.0909416636       33.3005113022  TIP3      2047            0.0000000000
     28392      2239  TIP3      H1             25.2355459912       15.0050308167       32.9668693906  TIP3      2047            0.0000000000
     28393      2239  TIP3      H2             24.3996304751       14.0147407926       33.7480696735  TIP3      2047            0.0000000000
     28394      2240  TIP3      OH2            21.3097839357       13.7486008067       24.0586478235  TIP3      2048            0.0000000000
     28395      2240  TIP3      H1             21.1856961867       14.1106097407       23.1889277991  TIP3      2048            0.0000000000
     28396      2240  TIP3      H2             21.4557374669       14.5348096700       24.6386571780  TIP3      2048            0.0000000000
     28397      2241  TIP3      OH2            34.7715382209       15.2997966285       30.9520698373  TIP3      2049            0.0000000000
     28398      2241  TIP3      H1             33.8138317664       15.5126338484       30.9946291449  TIP3      2049            0.0000000000
     28399      2241  TIP3      H2             35.1499341177       16.1498019754       30.6616543363  TIP3      2049            0.0000000000
     28400      2242  TIP3      OH2            35.0967446407        3.7896707778       31.9949859470  TIP3      2050            0.0000000000
     28401      2242  TIP3      H1             34.4023918818        4.4677009173       32.1065336124  TIP3      2050            0.0000000000
     28402      2242  TIP3      H2             35.8594304670        4.2846789764       31.6757665469  TIP3      2050            0.0000000000
     28403      2243  TIP3      OH2            28.2613729011        1.7800366870       29.7108976346  TIP3      2051            0.0000000000
     28404      2243  TIP3      H1             28.1299974941        0.8152498841       29.6358555438  TIP3      2051            0.0000000000
     28405      2243  TIP3      H2             27.3808318705        2.0800929854       30.0132659268  TIP3      2051            0.0000000000
     28406      2244  TIP3      OH2            33.1650745060       17.0922788643       27.4841212614  TIP3      2052            0.0000000000
     28407      2244  TIP3      H1             33.6429209265       16.4153822021       26.9648244645  TIP3      2052            0.0000000000
     28408      2244  TIP3      H2             33.5881131545       17.8953171118       27.1050007277  TIP3      2052            0.0000000000
     28409      2245  TIP3      OH2            34.4438628578       15.0713930745       25.9580084571  TIP3      2053            0.0000000000
     28410      2245  TIP3      H1             34.1669256689       14.3630759734       25.3599243951  TIP3      2053            0.0000000000
     28411      2245  TIP3      H2             34.4969819472       14.5741052487       26.8010157329  TIP3      2053            0.0000000000
     28412      2246  TIP3      OH2            35.8018824419       13.8191789028       34.5788500634  TIP3      2054            0.0000000000
     28413      2246  TIP3      H1             36.0794115548       13.1216366195       33.9522959420  TIP3      2054            0.0000000000
     28414      2246  TIP3      H2             36.2075443685       14.5809526250       34.1234266726  TIP3      2054            0.0000000000
     28415      2247  TIP3      OH2            30.5344162642       10.6058461452       24.2061808421  TIP3      2055            0.0000000000
     28416      2247  TIP3      H1             29.8395648722       11.1737986416       23.8061968896  TIP3      2055            0.0000000000
     28417      2247  TIP3      H2             31.2415249745       10.6545500866       23.5369943021  TIP3      2055            0.0000000000
     28418      2248  TIP3      OH2            30.6380751656        9.0659089691       21.2928408840  TIP3      2056            0.0000000000
     28419      2248  TIP3      H1             31.3798187699        9.1067999556       21.9101925181  TIP3      2056            0.0000000000
     28420      2248  TIP3      H2             30.9173459493        8.4226226344       20.6444051348  TIP3      2056            0.0000000000
     28421      2249  TIP3      OH2            33.9962024108       10.8176727452       25.1322610343  TIP3      2057            0.0000000000
     28422      2249  TIP3      H1             33.2478291765       11.0434120228       25.7317899082  TIP3      2057            0.0000000000
     28423      2249  TIP3      H2             34.4607527414       10.1482935560       25.6821260163  TIP3      2057            0.0000000000
     28424      2250  TIP3      OH2            33.9517698168        8.9618810910       34.2366369108  TIP3      2058            0.0000000000
     28425      2250  TIP3      H1             33.9027661622        9.7602878731       34.7870923946  TIP3      2058            0.0000000000
     28426      2250  TIP3      H2             33.3105192366        9.2297387940       33.5524051761  TIP3      2058            0.0000000000
     28427      2251  TIP3      OH2            25.6182294706       11.4415617731       27.0570376805  TIP3      2059            0.0000000000
     28428      2251  TIP3      H1             25.3082919231       11.0544795104       26.2047606201  TIP3      2059            0.0000000000
     28429      2251  TIP3      H2             26.2328944120       10.7514575230       27.3936097693  TIP3      2059            0.0000000000
     28430      2252  TIP3      OH2            26.9353458580       14.8231049830       29.7408376232  TIP3      2060            0.0000000000
     28431      2252  TIP3      H1             26.9275330813       14.3007664151       28.9301178522  TIP3      2060            0.0000000000
     28432      2252  TIP3      H2             27.7200732619       14.4680152394       30.1967690743  TIP3      2060            0.0000000000
     28433      2253  TIP3      OH2            25.9434848238       10.1886215439       30.7209151363  TIP3      2061            0.0000000000
     28434      2253  TIP3      H1             26.4960392387       10.2851246243       29.9198986955  TIP3      2061            0.0000000000
     28435      2253  TIP3      H2             26.3361180297       10.8522685985       31.3302914258  TIP3      2061            0.0000000000
     28436      2254  TIP3      OH2            32.2858317973       15.7769005105       31.4114825002  TIP3      2062            0.0000000000
     28437      2254  TIP3      H1             32.0900218321       16.3997447880       32.1145396483  TIP3      2062            0.0000000000
     28438      2254  TIP3      H2             32.1078131937       14.9072148163       31.8438814494  TIP3      2062            0.0000000000
     28439      2255  TIP3      OH2            26.8996862690       14.6182660988       35.4150116271  TIP3      2063            0.0000000000
     28440      2255  TIP3      H1             26.4856348813       15.3572728747       35.9061628007  TIP3      2063            0.0000000000
     28441      2255  TIP3      H2             26.2272665177       14.4189013541       34.7183954930  TIP3      2063            0.0000000000
     28442      2256  TIP3      OH2            32.8897275477        9.9109379667       22.8254336260  TIP3      2064            0.0000000000
     28443      2256  TIP3      H1             33.4110885044       10.1475039251       23.6285392300  TIP3      2064            0.0000000000
     28444      2256  TIP3      H2             33.2588541899       10.4909523064       22.1462766057  TIP3      2064            0.0000000000
     28445      2257  TIP3      OH2            23.8092497432       10.7196909443       34.6029735558  TIP3      2065            0.0000000000
     28446      2257  TIP3      H1             23.8960497583       11.4304048448       35.2704052175  TIP3      2065            0.0000000000
     28447      2257  TIP3      H2             22.8885136582       10.8731461764       34.3490328452  TIP3      2065            0.0000000000
     28448      2258  TIP3      OH2            30.5932541984       16.7058692124       26.2726136410  TIP3      2066            0.0000000000
     28449      2258  TIP3      H1             31.0123841396       17.0072032721       27.0899346780  TIP3      2066            0.0000000000
     28450      2258  TIP3      H2             30.0314350272       17.4465894630       26.0147468733  TIP3      2066            0.0000000000
     28451      2259  TIP3      OH2            25.1472868008       16.6524990667       36.1627338506  TIP3      2067            0.0000000000
     28452      2259  TIP3      H1             25.0857912731       16.5542078406       35.1971568470  TIP3      2067            0.0000000000
     28453      2259  TIP3      H2             24.2175327049       16.5187144724       36.4305231318  TIP3      2067            0.0000000000
     28454      2260  TIP3      OH2            24.5979793620       10.4573168466       24.6645093635  TIP3      2068            0.0000000000
     28455      2260  TIP3      H1             24.3058457554       11.2370887958       24.1479431772  TIP3      2068            0.0000000000
     28456      2260  TIP3      H2             23.9372036304        9.7998863887       24.4315051019  TIP3      2068            0.0000000000
     28457      2261  TIP3      OH2            20.6796539355       12.8963493774       33.5766213132  TIP3      2069            0.0000000000
     28458      2261  TIP3      H1             20.2328933762       12.8138230155       32.7131267944  TIP3      2069            0.0000000000
     28459      2261  TIP3      H2             20.7558230612       11.9463101696       33.7844359050  TIP3      2069            0.0000000000
     28460      2262  TIP3      OH2            20.4412821888       15.6298357973       30.3440219243  TIP3      2070            0.0000000000
     28461      2262  TIP3      H1             21.4012873785       15.5147726244       30.3209675573  TIP3      2070            0.0000000000
     28462      2262  TIP3      H2             20.3560104860       16.4459753337       30.8522740047  TIP3      2070            0.0000000000
     28463      2263  TIP3      OH2            29.6337662710       15.8720682728       34.8997237745  TIP3      2071            0.0000000000
     28464      2263  TIP3      H1             29.6920316436       16.7145349489       35.4082709556  TIP3      2071            0.0000000000
     28465      2263  TIP3      H2             28.7612860994       15.5124206732       35.1509630358  TIP3      2071            0.0000000000
     28466      2264  TIP3      OH2            30.0888816357       19.6108642605       24.7099369752  TIP3      2072            0.0000000000
     28467      2264  TIP3      H1             29.9701308734       19.5540863606       23.7602344251  TIP3      2072            0.0000000000
     28468      2264  TIP3      H2             30.1063931629       20.5719443340       24.8707477277  TIP3      2072            0.0000000000
     28469      2265  TIP3      OH2            23.7054331799       18.5170646165       26.5473234250  TIP3      2073            0.0000000000
     28470      2265  TIP3      H1             23.8608947681       18.0752124216       27.4092465553  TIP3      2073            0.0000000000
     28471      2265  TIP3      H2             22.8782614302       18.0852320271       26.2780800595  TIP3      2073            0.0000000000
     28472      2266  TIP3      OH2            33.1459061887       18.8220111749       21.7043103615  TIP3      2074            0.0000000000
     28473      2266  TIP3      H1             33.5404692220       18.0750809017       21.1986857264  TIP3      2074            0.0000000000
     28474      2266  TIP3      H2             33.1157982151       18.5001380228       22.6119828563  TIP3      2074            0.0000000000
     28475      2267  TIP3      OH2            32.8242180371       18.7788071071       24.5127433899  TIP3      2075            0.0000000000
     28476      2267  TIP3      H1             31.8485027594       18.8305326787       24.6135528940  TIP3      2075            0.0000000000
     28477      2267  TIP3      H2             33.0453431257       17.9985791073       25.0317451184  TIP3      2075            0.0000000000
     28478      2268  TIP3      OH2            35.3252660034        7.9743635987       36.5395513316  TIP3      2076            0.0000000000
     28479      2268  TIP3      H1             35.2884849290        8.3233674843       35.6451795216  TIP3      2076            0.0000000000
     28480      2268  TIP3      H2             35.8633861452        7.1481534344       36.3865418755  TIP3      2076            0.0000000000
     28481      2269  TIP3      OH2            22.9658480790       14.2060932678       34.5141841260  TIP3      2077            0.0000000000
     28482      2269  TIP3      H1             23.1848460149       13.8433424969       35.3974302114  TIP3      2077            0.0000000000
     28483      2269  TIP3      H2             22.0945853218       13.8114734360       34.3006067005  TIP3      2077            0.0000000000
     28484      2270  TIP3      OH2            25.6374771703        2.6866899192       30.4676286650  TIP3      2078            0.0000000000
     28485      2270  TIP3      H1             24.7382958738        2.5573567797       30.0961477988  TIP3      2078            0.0000000000
     28486      2270  TIP3      H2             25.5048248478        3.5169013803       30.9477355056  TIP3      2078            0.0000000000
     28487      2271  TIP3      OH2            30.2890545936        2.3491816151       33.8242157509  TIP3      2079            0.0000000000
     28488      2271  TIP3      H1             30.6849871428        1.9290144111       34.6101682521  TIP3      2079            0.0000000000
     28489      2271  TIP3      H2             29.3163321255        2.2318831509       33.9689247077  TIP3      2079            0.0000000000
     28490      2272  TIP3      OH2            33.5024451351        6.1554162317       34.6623989202  TIP3      2080            0.0000000000
     28491      2272  TIP3      H1             33.0188268046        5.9838355477       35.5050155081  TIP3      2080            0.0000000000
     28492      2272  TIP3      H2             33.4266193463        7.1111203005       34.5288186676  TIP3      2080            0.0000000000
     28493      2273  TIP3      OH2            29.9341134422        4.9073529580       21.1836464502  TIP3      2081            0.0000000000
     28494      2273  TIP3      H1             29.6064166337        4.8778164518       22.0971891242  TIP3      2081            0.0000000000
     28495      2273  TIP3      H2             29.6954922692        4.0466765196       20.8501432211  TIP3      2081            0.0000000000
     28496      2274  TIP3      OH2            25.7532109627        7.6622351765       31.7186486050  TIP3      2082            0.0000000000
     28497      2274  TIP3      H1             25.0157760740        7.6507547066       32.3507470068  TIP3      2082            0.0000000000
     28498      2274  TIP3      H2             25.7001409479        8.5680015416       31.3414129352  TIP3      2082            0.0000000000
     28499      2275  TIP3      OH2            25.7010903896        7.7669667386       26.5864914157  TIP3      2083            0.0000000000
     28500      2275  TIP3      H1             24.7616130782        7.5259332939       26.4463678838  TIP3      2083            0.0000000000
     28501      2275  TIP3      H2             26.0767870998        7.4843794070       25.7313718364  TIP3      2083            0.0000000000
     28502      2276  TIP3      OH2            31.2490400931        8.2584666593       25.3473269281  TIP3      2084            0.0000000000
     28503      2276  TIP3      H1             30.8119471378        9.0813787800       25.0193008142  TIP3      2084            0.0000000000
     28504      2276  TIP3      H2             31.9202138525        8.1511835788       24.6708610517  TIP3      2084            0.0000000000
     28505      2277  TIP3      OH2            30.2909943619        8.4866487765       36.7924989212  TIP3      2085            0.0000000000
     28506      2277  TIP3      H1             29.7736466020        7.7053240638       37.0968436313  TIP3      2085            0.0000000000
     28507      2277  TIP3      H2             31.1346641071        8.3644758624       37.2626888630  TIP3      2085            0.0000000000
     28508      2278  TIP3      OH2            32.2300782850        7.7767383325       28.2118673346  TIP3      2086            0.0000000000
     28509      2278  TIP3      H1             32.0019539523        8.3269300367       27.4424002132  TIP3      2086            0.0000000000
     28510      2278  TIP3      H2             32.3596908651        6.9237182413       27.7493568768  TIP3      2086            0.0000000000
     28511      2279  TIP3      OH2            23.3324340623        7.9215283250       33.3992555921  TIP3      2087            0.0000000000
     28512      2279  TIP3      H1             23.4888004469        8.3365296248       34.2700406015  TIP3      2087            0.0000000000
     28513      2279  TIP3      H2             22.9881505016        7.0494155087       33.5912349808  TIP3      2087            0.0000000000
     28514      2280  TIP3      OH2            20.0316008784        5.0113612525       27.3730511004  TIP3      2088            0.0000000000
     28515      2280  TIP3      H1             20.7090391748        4.9590381588       28.0772990008  TIP3      2088            0.0000000000
     28516      2280  TIP3      H2             20.4796578037        4.6337701970       26.5909219500  TIP3      2088            0.0000000000
     28517      2281  TIP3      OH2            21.3362149798        5.8515220156       22.8422011072  TIP3      2089            0.0000000000
     28518      2281  TIP3      H1             21.7320807112        6.3439580100       22.0982460951  TIP3      2089            0.0000000000
     28519      2281  TIP3      H2             20.5723978746        6.4041509638       22.9789541840  TIP3      2089            0.0000000000
     28520      2282  TIP3      OH2            31.4425380906        9.3407039393       32.7433695656  TIP3      2090            0.0000000000
     28521      2282  TIP3      H1             31.8384192533        8.6483887896       32.1707839952  TIP3      2090            0.0000000000
     28522      2282  TIP3      H2             30.9787727198        8.8186275775       33.4212151113  TIP3      2090            0.0000000000
     28523      2283  TIP3      OH2            28.2528927537        5.3313484832       27.5872592351  TIP3      2091            0.0000000000
     28524      2283  TIP3      H1             27.3190083401        5.3330618892       27.8887897706  TIP3      2091            0.0000000000
     28525      2283  TIP3      H2             28.7518916009        5.1601441764       28.4021160085  TIP3      2091            0.0000000000
     28526      2284  TIP3      OH2            23.0616225432        6.8814784396       26.4297597820  TIP3      2092            0.0000000000
     28527      2284  TIP3      H1             22.1807605672        7.0147714066       26.0232279425  TIP3      2092            0.0000000000
     28528      2284  TIP3      H2             23.3554858199        6.0445554738       26.0310239258  TIP3      2092            0.0000000000
     28529      2285  TIP3      OH2            26.6858710706        6.9317180293       24.0729716047  TIP3      2093            0.0000000000
     28530      2285  TIP3      H1             27.6383880422        7.0357817572       24.2528527517  TIP3      2093            0.0000000000
     28531      2285  TIP3      H2             26.4761920403        7.6047861905       23.4046189667  TIP3      2093            0.0000000000
     28532      2286  TIP3      OH2            32.5962393000        4.5342030534       30.8380576013  TIP3      2094            0.0000000000
     28533      2286  TIP3      H1             31.9280682379        4.6050400660       31.5438791164  TIP3      2094            0.0000000000
     28534      2286  TIP3      H2             32.0984457560        4.3205782507       30.0345928532  TIP3      2094            0.0000000000
     28535      2287  TIP3      OH2            25.4067635878        8.1031792824       21.6693578828  TIP3      2095            0.0000000000
     28536      2287  TIP3      H1             24.8837857845        7.6994991486       20.9663369311  TIP3      2095            0.0000000000
     28537      2287  TIP3      H2             26.2361917863        8.3114262283       21.2049418571  TIP3      2095            0.0000000000
     28538      2288  TIP3      OH2            35.7685855787       20.2493057265       37.1815026136  TIP3      2096            0.0000000000
     28539      2288  TIP3      H1             36.1097016112       20.5792657339       36.3361025927  TIP3      2096            0.0000000000
     28540      2288  TIP3      H2             36.5162977870       20.5062490613       37.7490180334  TIP3      2096            0.0000000000
     28541      2289  TIP3      OH2            23.5432456217       12.6721890132       36.7239358687  TIP3      2097            0.0000000000
     28542      2289  TIP3      H1             24.2629538433       12.9200440978       37.3276217260  TIP3      2097            0.0000000000
     28543      2289  TIP3      H2             22.7697427298       12.7544053460       37.3234748747  TIP3      2097            0.0000000000
     28544      2290  TIP3      OH2            29.5369909341        8.0819448277       29.4771538457  TIP3      2098            0.0000000000
     28545      2290  TIP3      H1             30.1439879223        7.5515820401       28.9464270173  TIP3      2098            0.0000000000
     28546      2290  TIP3      H2             29.3949610519        7.5346779883       30.2607870251  TIP3      2098            0.0000000000
     28547      2291  TIP3      OH2            24.5528584203        4.2342549798       25.9461180187  TIP3      2099            0.0000000000
     28548      2291  TIP3      H1             24.2270703282        3.3181123615       25.9143421990  TIP3      2099            0.0000000000
     28549      2291  TIP3      H2             25.3302913633        4.1617476932       25.3756403886  TIP3      2099            0.0000000000
     28550      2292  TIP3      OH2            28.1809030811        6.4158276240       31.8910771692  TIP3      2100            0.0000000000
     28551      2292  TIP3      H1             27.3548075648        6.9312844919       31.9810376494  TIP3      2100            0.0000000000
     28552      2292  TIP3      H2             28.7367061719        6.7641807167       32.6140252753  TIP3      2100            0.0000000000
     28553      2293  TIP3      OH2            28.7633091485       12.6496365309       23.6059313036  TIP3      2101            0.0000000000
     28554      2293  TIP3      H1             27.9738971401       12.1750186391       23.2620022259  TIP3      2101            0.0000000000
     28555      2293  TIP3      H2             28.5471448808       12.7650782087       24.5443823380  TIP3      2101            0.0000000000
     28556      2294  TIP3      OH2            35.6403400735       11.8566022613       32.3871726628  TIP3      2102            0.0000000000
     28557      2294  TIP3      H1             36.3650381873       11.9858973251       31.7368154244  TIP3      2102            0.0000000000
     28558      2294  TIP3      H2             34.8766779496       11.8609961887       31.7792028041  TIP3      2102            0.0000000000
     28559      2295  TIP3      OH2            30.2733706382       12.9025384749       34.8325305582  TIP3      2103            0.0000000000
     28560      2295  TIP3      H1             29.9104260292       12.4771738223       35.6153920841  TIP3      2103            0.0000000000
     28561      2295  TIP3      H2             30.0326821325       13.8280273576       34.9399251874  TIP3      2103            0.0000000000
     28562      2296  TIP3      OH2            23.8796425879       12.0307680942       29.3904313561  TIP3      2104            0.0000000000
     28563      2296  TIP3      H1             24.5645857308       11.9479422461       28.6989461362  TIP3      2104            0.0000000000
     28564      2296  TIP3      H2             23.9421759747       11.1740331270       29.8489686485  TIP3      2104            0.0000000000
     28565      2297  TIP3      OH2            20.8789589585       10.4033790569       34.6357893926  TIP3      2105            0.0000000000
     28566      2297  TIP3      H1             21.0286456519       10.0081667938       35.5166395981  TIP3      2105            0.0000000000
     28567      2297  TIP3      H2             20.2176229706        9.8352001559       34.2097196105  TIP3      2105            0.0000000000
     28568      2298  TIP3      OH2            27.8805544431        9.9915759091       36.8252542145  TIP3      2106            0.0000000000
     28569      2298  TIP3      H1             27.5632733933        9.6827439405       35.9656406005  TIP3      2106            0.0000000000
     28570      2298  TIP3      H2             28.8036179429        9.6684091824       36.8261940616  TIP3      2106            0.0000000000
     28571      2299  TIP3      OH2            32.5661193416       15.3121695419       34.7802041346  TIP3      2107            0.0000000000
     28572      2299  TIP3      H1             31.6468784415       15.4955588129       34.5412569572  TIP3      2107            0.0000000000
     28573      2299  TIP3      H2             32.5397223972       15.6161015907       35.7074874241  TIP3      2107            0.0000000000
     28574      2300  TIP3      OH2            33.6770815869       11.1257977232       30.6840199079  TIP3      2108            0.0000000000
     28575      2300  TIP3      H1             32.7402885436       10.9095062552       30.5373322741  TIP3      2108            0.0000000000
     28576      2300  TIP3      H2             34.1562186075       10.3926619677       30.2579842901  TIP3      2108            0.0000000000
     28577      2301  TIP3      OH2            26.2272145204       15.4919669777       26.7971781388  TIP3      2109            0.0000000000
     28578      2301  TIP3      H1             26.7600057550       16.2731218387       26.5630642851  TIP3      2109            0.0000000000
     28579      2301  TIP3      H2             25.3642724859       15.7280913689       26.4382282203  TIP3      2109            0.0000000000
     28580      2302  TIP3      OH2            27.6796650473       13.1469953977       26.3386475440  TIP3      2110            0.0000000000
     28581      2302  TIP3      H1             27.3582091794       14.0677594021       26.3938080531  TIP3      2110            0.0000000000
     28582      2302  TIP3      H2             26.9353755155       12.6572740333       26.7360124585  TIP3      2110            0.0000000000
     28583      2303  TIP3      OH2            28.1167785152       17.3339042096       32.7048037641  TIP3      2111            0.0000000000
     28584      2303  TIP3      H1             28.5791223473       18.1377718986       32.4171831856  TIP3      2111            0.0000000000
     28585      2303  TIP3      H2             28.7299090666       16.9924608844       33.3803542721  TIP3      2111            0.0000000000
     28586      2304  TIP3      OH2            26.3541902922       18.1296424042       25.8469533077  TIP3      2112            0.0000000000
     28587      2304  TIP3      H1             25.3858846675       18.2769619233       25.9237311550  TIP3      2112            0.0000000000
     28588      2304  TIP3      H2             26.6972746557       18.9783434633       26.1766323220  TIP3      2112            0.0000000000
     28589      2305  TIP3      OH2            31.6604668599       13.3299171014       32.3239901665  TIP3      2113            0.0000000000
     28590      2305  TIP3      H1             31.3174113992       13.1354291283       33.2220012419  TIP3      2113            0.0000000000
     28591      2305  TIP3      H2             32.2864776316       12.6093448716       32.1528120180  TIP3      2113            0.0000000000
     28592      2306  TIP3      OH2            33.9595791817       14.2710047746       21.4358791905  TIP3      2114            0.0000000000
     28593      2306  TIP3      H1             34.2801752746       13.9052158771       22.2763622240  TIP3      2114            0.0000000000
     28594      2306  TIP3      H2             33.0026660325       14.2265714198       21.5098316817  TIP3      2114            0.0000000000
     28595      2307  TIP3      OH2            34.4656143404       17.8864314900       34.7935553727  TIP3      2115            0.0000000000
     28596      2307  TIP3      H1             33.7398214654       17.4227333590       34.3252510923  TIP3      2115            0.0000000000
     28597      2307  TIP3      H2             34.6681531246       18.6081193946       34.1594574987  TIP3      2115            0.0000000000
     28598      2308  TIP3      OH2            22.5969653514        5.1305823813       34.2045926310  TIP3      2116            0.0000000000
     28599      2308  TIP3      H1             21.7416408564        5.3330675228       33.8106464327  TIP3      2116            0.0000000000
     28600      2308  TIP3      H2             22.4802101054        4.2409568213       34.5985446354  TIP3      2116            0.0000000000
     28601      2309  TIP3      OH2            34.7511036676       12.9692334738       23.6431079758  TIP3      2117            0.0000000000
     28602      2309  TIP3      H1             34.5213068433       12.2099595735       24.2210683853  TIP3      2117            0.0000000000
     28603      2309  TIP3      H2             35.6811827749       13.1092336276       23.8794696022  TIP3      2117            0.0000000000
     28604      2310  TIP3      OH2            22.1307063922       16.9489116876       32.6263642290  TIP3      2118            0.0000000000
     28605      2310  TIP3      H1             22.4370299361       16.0290309664       32.6333837052  TIP3      2118            0.0000000000
     28606      2310  TIP3      H2             22.3946182526       17.2412071909       33.5062415351  TIP3      2118            0.0000000000
     28607      2311  TIP3      OH2            26.9066123339       15.0386384126       22.3314014916  TIP3      2119            0.0000000000
     28608      2311  TIP3      H1             27.1452585535       14.4994813966       23.0865006447  TIP3      2119            0.0000000000
     28609      2311  TIP3      H2             26.9189687347       15.9600535039       22.6597880633  TIP3      2119            0.0000000000
     28610      2312  TIP3      OH2            23.3848144389       12.2692888845       22.8160465384  TIP3      2120            0.0000000000
     28611      2312  TIP3      H1             22.7286999229       12.6570539801       23.4162292015  TIP3      2120            0.0000000000
     28612      2312  TIP3      H2             23.9371436987       13.0149226443       22.5490695646  TIP3      2120            0.0000000000
     28613      2313  TIP3      OH2            31.2202463601        4.9325607455       33.1754963803  TIP3      2121            0.0000000000
     28614      2313  TIP3      H1             31.9725864339        4.9995396178       33.7781361343  TIP3      2121            0.0000000000
     28615      2313  TIP3      H2             30.8570348795        4.0508504965       33.3773822459  TIP3      2121            0.0000000000
     28616      2314  TIP3      OH2            32.0869142240        4.4921095530       24.2073796035  TIP3      2122            0.0000000000
     28617      2314  TIP3      H1             32.2139447092        5.0477417861       23.4322075302  TIP3      2122            0.0000000000
     28618      2314  TIP3      H2             32.5882645158        4.9457690562       24.9063225178  TIP3      2122            0.0000000000
     28619      2315  TIP3      OH2            29.7229544232       16.7663199829       23.1160363465  TIP3      2123            0.0000000000
     28620      2315  TIP3      H1             28.8368394350       17.1760276765       23.0860593012  TIP3      2123            0.0000000000
     28621      2315  TIP3      H2             30.1918418085       17.1652953845       22.3700469465  TIP3      2123            0.0000000000
     28622      2316  TIP3      OH2            29.2305596128        6.2481311690       25.0461585528  TIP3      2124            0.0000000000
     28623      2316  TIP3      H1             29.9982080559        6.8457252651       25.0923553767  TIP3      2124            0.0000000000
     28624      2316  TIP3      H2             28.9563526757        6.1402665197       25.9771565347  TIP3      2124            0.0000000000
     28625      2317  TIP3      OH2            29.8058966362        7.2904060961       34.2610791450  TIP3      2125            0.0000000000
     28626      2317  TIP3      H1             29.8915183654        7.8505867561       35.0576142584  TIP3      2125            0.0000000000
     28627      2317  TIP3      H2             30.4585154526        6.5811179239       34.3493060954  TIP3      2125            0.0000000000
     28628      2318  TIP3      OH2            30.0348874449        3.3490924720       25.9067975970  TIP3      2126            0.0000000000
     28629      2318  TIP3      H1             29.7464876587        3.9427658618       26.6186802984  TIP3      2126            0.0000000000
     28630      2318  TIP3      H2             30.7714342566        3.8813319174       25.5297988768  TIP3      2126            0.0000000000
     28631      2319  TIP3      OH2            27.0997368202       17.7125165018       23.0949815365  TIP3      2127            0.0000000000
     28632      2319  TIP3      H1             27.1735718759       18.5113158049       22.5233820844  TIP3      2127            0.0000000000
     28633      2319  TIP3      H2             26.8095094052       18.0673586690       23.9604428689  TIP3      2127            0.0000000000
     28634      2320  TIP3      OH2            25.7426108570        4.4012333193       22.7240220831  TIP3      2128            0.0000000000
     28635      2320  TIP3      H1             25.6745205384        5.3275150420       23.0155948021  TIP3      2128            0.0000000000
     28636      2320  TIP3      H2             26.6699481074        4.2067185439       22.9167179701  TIP3      2128            0.0000000000
     28637      2321  TIP3      OH2            35.8340764907        4.9241110244       34.9113746677  TIP3      2129            0.0000000000
     28638      2321  TIP3      H1             35.0020400439        5.4544679540       34.9449664314  TIP3      2129            0.0000000000
     28639      2321  TIP3      H2             36.2303930509        5.2089418771       34.0887335098  TIP3      2129            0.0000000000
     28640      2322  TIP3      OH2            34.5653318148        8.9482105826       29.1715376429  TIP3      2130            0.0000000000
     28641      2322  TIP3      H1             33.7523701497        8.5074213269       28.8550846067  TIP3      2130            0.0000000000
     28642      2322  TIP3      H2             34.9998888122        8.2275622227       29.6346694436  TIP3      2130            0.0000000000
     28643      2323  TIP3      OH2            35.6974627104       18.2302236776       30.7712750128  TIP3      2131            0.0000000000
     28644      2323  TIP3      H1             35.5429803631       18.8995784149       30.0792371584  TIP3      2131            0.0000000000
     28645      2323  TIP3      H2             36.6414469300       18.3182144491       30.9366360979  TIP3      2131            0.0000000000
     28646      2324  TIP3      OH2            23.1226352431        2.3228416575       29.5855976461  TIP3      2132            0.0000000000
     28647      2324  TIP3      H1             22.9297798143        2.3412560760       28.6206515351  TIP3      2132            0.0000000000
     28648      2324  TIP3      H2             22.7161050265        1.4649778965       29.8334014178  TIP3      2132            0.0000000000
     28649      2325  TIP3      OH2            22.0783398227       16.2246392455       25.7244569853  TIP3      2133            0.0000000000
     28650      2325  TIP3      H1             21.2491174138       16.7202289751       25.7090342859  TIP3      2133            0.0000000000
     28651      2325  TIP3      H2             22.5826714866       16.7133089179       25.0583699986  TIP3      2133            0.0000000000
     28652      2326  TIP3      OH2            21.2844812600       18.8969762317       37.0177752977  TIP3      2134            0.0000000000
     28653      2326  TIP3      H1             21.8902356760       18.6965097083       37.7575229803  TIP3      2134            0.0000000000
     28654      2326  TIP3      H2             20.8853186902       18.0279908323       36.8374059252  TIP3      2134            0.0000000000
     28655      2327  TIP3      OH2            25.9683303493       17.8161621554       38.6263066746  TIP3      2135            0.0000000000
     28656      2327  TIP3      H1             26.7245324460       17.3156522276       38.9600586669  TIP3      2135            0.0000000000
     28657      2327  TIP3      H2             25.9415416631       17.5359598898       37.6902488842  TIP3      2135            0.0000000000
     28658      2328  TIP3      OH2            32.5279679995       16.1852423868       37.3738956649  TIP3      2136            0.0000000000
     28659      2328  TIP3      H1             32.1783791024       15.3150345196       37.6583487479  TIP3      2136            0.0000000000
     28660      2328  TIP3      H2             33.2810712188       16.2927384028       37.9843593489  TIP3      2136            0.0000000000
     28661      2329  TIP3      OH2            34.7204185650       17.1155900840       20.3205211487  TIP3      2137            0.0000000000
     28662      2329  TIP3      H1             34.9175481392       16.2246688402       20.6463977746  TIP3      2137            0.0000000000
     28663      2329  TIP3      H2             35.4045583034       17.3168584748       19.6750056396  TIP3      2137            0.0000000000
     28664      2330  TIP3      OH2            21.1958574512       12.6666327750       38.0163336733  TIP3      2138            0.0000000000
     28665      2330  TIP3      H1             21.3605690098       11.7556117718       37.7136317802  TIP3      2138            0.0000000000
     28666      2330  TIP3      H2             20.4572015644       12.9267215604       37.4410997200  TIP3      2138            0.0000000000
     28667      2331  TIP3      OH2            27.9137915625       12.6583135565       37.4000344472  TIP3      2139            0.0000000000
     28668      2331  TIP3      H1             27.5788239174       12.9698180180       36.5368099345  TIP3      2139            0.0000000000
     28669      2331  TIP3      H2             27.9882656198       11.6799926761       37.2925910343  TIP3      2139            0.0000000000
     28670      2332  TIP3      OH2            33.5791985603       12.4774543582       34.7919531199  TIP3      2140            0.0000000000
     28671      2332  TIP3      H1             34.3717192889       13.0725569471       34.7389640873  TIP3      2140            0.0000000000
     28672      2332  TIP3      H2             32.9082515201       13.1684454752       34.8367626039  TIP3      2140            0.0000000000
     28673      2333  TIP3      OH2            22.0774580080        9.8641389876       37.3876186700  TIP3      2141            0.0000000000
     28674      2333  TIP3      H1             22.5605192181        9.0349608949       37.3383182457  TIP3      2141            0.0000000000
     28675      2333  TIP3      H2             21.8887483431        9.9185682258       38.3403506241  TIP3      2141            0.0000000000
     28676      2334  TIP3      OH2            26.7809063542       11.0307536987       22.4766605979  TIP3      2142            0.0000000000
     28677      2334  TIP3      H1             26.2526650198       10.5029723428       23.0870164798  TIP3      2142            0.0000000000
     28678      2334  TIP3      H2             27.0608207293       10.3706509596       21.8007768617  TIP3      2142            0.0000000000
     28679      2335  TIP3      OH2            25.9837705607        8.8233307943       34.7377346185  TIP3      2143            0.0000000000
     28680      2335  TIP3      H1             25.4340553132        9.5746243642       35.0118877806  TIP3      2143            0.0000000000
     28681      2335  TIP3      H2             26.4096111166        9.1969039662       33.9463275761  TIP3      2143            0.0000000000
     28682      2336  TIP3      OH2            27.8190018286        9.1970798342       20.6873486997  TIP3      2144            0.0000000000
     28683      2336  TIP3      H1             27.6552232439        9.1106460194       19.7369396194  TIP3      2144            0.0000000000
     28684      2336  TIP3      H2             28.7898094220        9.3495093605       20.7368151044  TIP3      2144            0.0000000000
     28685      2337  TIP3      OH2            31.0878186621       11.4168800482       38.0895156097  TIP3      2145            0.0000000000
     28686      2337  TIP3      H1             32.0427054526       11.4007469464       37.9667163955  TIP3      2145            0.0000000000
     28687      2337  TIP3      H2             30.9356160942       10.6373205162       38.6481238147  TIP3      2145            0.0000000000
     28688      2338  TIP3      OH2            26.3472499033        6.2110052598       35.7940611804  TIP3      2146            0.0000000000
     28689      2338  TIP3      H1             26.5616231064        5.5085108323       35.1509263039  TIP3      2146            0.0000000000
     28690      2338  TIP3      H2             26.3977643907        7.0298158859       35.2584907014  TIP3      2146            0.0000000000
     28691      2339  TIP3      OH2            26.8367423056        4.5984278820       33.3594969958  TIP3      2147            0.0000000000
     28692      2339  TIP3      H1             27.3412807334        5.0634522393       32.6511928696  TIP3      2147            0.0000000000
     28693      2339  TIP3      H2             25.9489943883        4.5131516401       32.9468946402  TIP3      2147            0.0000000000
     28694      2340  TIP3      OH2            28.3666523343       10.0905004292       33.6014511788  TIP3      2148            0.0000000000
     28695      2340  TIP3      H1             29.1223296646        9.9237920595       33.0301045835  TIP3      2148            0.0000000000
     28696      2340  TIP3      H2             28.0055963316       10.9257826176       33.2666500774  TIP3      2148            0.0000000000
     28697      2341  TIP3      OH2            32.8158871540        7.8691963658       38.5765557173  TIP3      2149            0.0000000000
     28698      2341  TIP3      H1             33.0371008400        6.9314725262       38.4631324444  TIP3      2149            0.0000000000
     28699      2341  TIP3      H2             33.6887396076        8.2871467162       38.5352719611  TIP3      2149            0.0000000000
     28700      2342  TIP3      OH2            34.1236804535       10.6789087961       36.7360081009  TIP3      2150            0.0000000000
     28701      2342  TIP3      H1             33.8283558303       11.3618682945       36.0930609615  TIP3      2150            0.0000000000
     28702      2342  TIP3      H2             35.0528603004       10.5649140953       36.5229400516  TIP3      2150            0.0000000000
     28703      2343  TIP3      OH2            24.8667755386        7.4773264816       37.7125878291  TIP3      2151            0.0000000000
     28704      2343  TIP3      H1             24.1235034303        6.8735921417       37.5696613813  TIP3      2151            0.0000000000
     28705      2343  TIP3      H2             25.5453537137        7.1043657062       37.1162120921  TIP3      2151            0.0000000000
     28706      2344  TIP3      OH2            27.6161940199        2.0350067685       33.7493345601  TIP3      2152            0.0000000000
     28707      2344  TIP3      H1             27.4339044931        2.9980330953       33.6554108316  TIP3      2152            0.0000000000
     28708      2344  TIP3      H2             26.8672893664        1.6685166584       33.2475301466  TIP3      2152            0.0000000000
     28709      2345  TIP3      OH2            28.8754506756        6.3678064165       37.3762263858  TIP3      2153            0.0000000000
     28710      2345  TIP3      H1             28.5671166533        6.1314586314       38.2732186222  TIP3      2153            0.0000000000
     28711      2345  TIP3      H2             28.0969047823        6.1572644164       36.8366880401  TIP3      2153            0.0000000000
     28712      2346  TIP3      OH2            31.5630408848        5.5281484131       36.4718119592  TIP3      2154            0.0000000000
     28713      2346  TIP3      H1             30.6017975797        5.5509352079       36.5968102254  TIP3      2154            0.0000000000
     28714      2346  TIP3      H2             31.8834114114        4.8811320541       37.1262687334  TIP3      2154            0.0000000000
     28715      2347  TIP3      OH2            33.2820304282        4.1018041391       38.4036607539  TIP3      2155            0.0000000000
     28716      2347  TIP3      H1             33.1299729453        3.1333292059       38.3986605456  TIP3      2155            0.0000000000
     28717      2347  TIP3      H2             32.9233025475        4.4135779840       39.2583695436  TIP3      2155            0.0000000000
     28718      2348  TIP3      OH2            22.9213651421        5.3944456823       37.4269604390  TIP3      2156            0.0000000000
     28719      2348  TIP3      H1             23.2636505609        4.6391337846       36.9123724335  TIP3      2156            0.0000000000
     28720      2348  TIP3      H2             22.8899660778        4.9924179383       38.3295679898  TIP3      2156            0.0000000000
     28721      2349  TIP3      OH2            27.8309839091        1.4283845935       36.4498797944  TIP3      2157            0.0000000000
     28722      2349  TIP3      H1             28.5097637229        0.7246098685       36.4345764406  TIP3      2157            0.0000000000
     28723      2349  TIP3      H2             27.7220252002        1.5683891251       35.4891420281  TIP3      2157            0.0000000000
     28724      2350  TIP3      OH2            28.1931675525        3.0427758251       38.5656186651  TIP3      2158            0.0000000000
     28725      2350  TIP3      H1             28.0181052505        2.5353620235       37.7340606047  TIP3      2158            0.0000000000
     28726      2350  TIP3      H2             27.5915434365        3.8055073092       38.4658099487  TIP3      2158            0.0000000000
     28727      2351  TIP3      OH2            27.6937104051       19.9777920520       21.7816626432  TIP3      2159            0.0000000000
     28728      2351  TIP3      H1             28.6549013823       20.0392910194       21.7620048871  TIP3      2159            0.0000000000
     28729      2351  TIP3      H2             27.4914356202       20.5707855218       21.0567103024  TIP3      2159            0.0000000000
     28730      2352  TIP3      OH2            19.9896590705       19.9206512102       26.1783451436  TIP3      2160            0.0000000000
     28731      2352  TIP3      H1             19.2739145904       19.4421931867       25.7144304700  TIP3      2160            0.0000000000
     28732      2352  TIP3      H2             20.2709587717       19.2632985015       26.8405363869  TIP3      2160            0.0000000000
     28733      2353  TIP3      OH2            20.8188499930       18.0511367137       28.0530668744  TIP3      2161            0.0000000000
     28734      2353  TIP3      H1             20.4733792864       17.1668738058       28.2448988186  TIP3      2161            0.0000000000
     28735      2353  TIP3      H2             21.0574749309       18.3756334756       28.9372215971  TIP3      2161            0.0000000000
     28736      2354  TIP3      OH2            36.2810456128       16.1062280938       33.2287977899  TIP3      2162            0.0000000000
     28737      2354  TIP3      H1             35.6199963530       16.5393041296       33.7871061912  TIP3      2162            0.0000000000
     28738      2354  TIP3      H2             35.7539759616       15.7401923457       32.4950102618  TIP3      2162            0.0000000000
     28739      2355  TIP3      OH2            35.3881518485        9.1177372524       26.5628482806  TIP3      2163            0.0000000000
     28740      2355  TIP3      H1             35.6209883818        8.1840105872       26.6102692184  TIP3      2163            0.0000000000
     28741      2355  TIP3      H2             35.4857789670        9.3680045955       27.5046483228  TIP3      2163            0.0000000000
     28742      2356  TIP3      OH2            20.8664110620       11.1202004157       30.5264189475  TIP3      2164            0.0000000000
     28743      2356  TIP3      H1             21.0509209033       11.0545072819       29.5656441806  TIP3      2164            0.0000000000
     28744      2356  TIP3      H2             21.7592590496       10.9485102782       30.8916916987  TIP3      2164            0.0000000000
     28745      2357  TIP3      OH2            35.9519466358        5.0640791716       20.0119666335  TIP3      2165            0.0000000000
     28746      2357  TIP3      H1             36.5595660695        4.6570409419       20.6196052371  TIP3      2165            0.0000000000
     28747      2357  TIP3      H2             35.1228783453        4.5885943719       20.1391686818  TIP3      2165            0.0000000000
     28748      2358  TIP3      OH2            35.4593545900        6.5723947139       24.7962037206  TIP3      2166            0.0000000000
     28749      2358  TIP3      H1             35.7907456205        5.7339500265       25.1623993577  TIP3      2166            0.0000000000
     28750      2358  TIP3      H2             36.2825961644        6.9371486153       24.4656851407  TIP3      2166            0.0000000000
     28751      2359  TIP3      OH2           -37.0517820139        6.3300224548       30.3874898584  TIP3      2167            0.0000000000
     28752      2359  TIP3      H1            -36.1664012252        6.6849280861       30.2462270699  TIP3      2167            0.0000000000
     28753      2359  TIP3      H2            -37.2774677001        6.9708759710       31.0865347900  TIP3      2167            0.0000000000
     28754      2360  TIP3      OH2            36.2588084659        7.9504971848       33.4191098344  TIP3      2168            0.0000000000
     28755      2360  TIP3      H1             35.3228271721        8.2126482926       33.5115551477  TIP3      2168            0.0000000000
     28756      2360  TIP3      H2             36.6128774265        8.6426778217       32.8309710703  TIP3      2168            0.0000000000
     28757      2361  TIP3      OH2            20.4407135194        6.4595740226       37.1582299025  TIP3      2169            0.0000000000
     28758      2361  TIP3      H1             21.3996500126        6.2312980484       37.1799951067  TIP3      2169            0.0000000000
     28759      2361  TIP3      H2             19.9683853517        5.5842368783       37.1767848710  TIP3      2169            0.0000000000
     28760      2362  TIP3      OH2            35.3121837204        3.6130266468       25.6165188993  TIP3      2170            0.0000000000
     28761      2362  TIP3      H1             36.2265952436        3.4085215241       25.8830906348  TIP3      2170            0.0000000000
     28762      2362  TIP3      H2             35.3028402646        3.1747156016       24.7430879778  TIP3      2170            0.0000000000
     28763      2363  TIP3      OH2            21.6842046024        4.7200251937       29.5764522165  TIP3      2171            0.0000000000
     28764      2363  TIP3      H1             22.1594999317        3.8894821740       29.7902943660  TIP3      2171            0.0000000000
     28765      2363  TIP3      H2             22.2649742264        5.4097491796       29.9186281682  TIP3      2171            0.0000000000
     28766      2364  TIP3      OH2            20.0003787048        7.6992858987       30.6186717337  TIP3      2172            0.0000000000
     28767      2364  TIP3      H1             20.5263975533        7.4714160316       29.8204239262  TIP3      2172            0.0000000000
     28768      2364  TIP3      H2             20.4359292686        8.5378980509       30.8351402867  TIP3      2172            0.0000000000
     28769      2365  TIP3      OH2            20.3460363273        4.0357776504       24.7242588828  TIP3      2173            0.0000000000
     28770      2365  TIP3      H1             19.4099574642        4.1309230124       24.5074230765  TIP3      2173            0.0000000000
     28771      2365  TIP3      H2             20.7679902798        4.4012463743       23.9221831749  TIP3      2173            0.0000000000
     28772      2366  TIP3      OH2            34.8912492717       18.7583778714       26.6901341437  TIP3      2174            0.0000000000
     28773      2366  TIP3      H1             35.5670221590       18.4170048667       26.0888645086  TIP3      2174            0.0000000000
     28774      2366  TIP3      H2             35.4040519528       19.3208620858       27.2961748000  TIP3      2174            0.0000000000
     28775      2367  TIP3      OH2            20.3159154479        2.6797652049       32.9974451761  TIP3      2175            0.0000000000
     28776      2367  TIP3      H1             19.6121094619        2.4026231328       33.6158555764  TIP3      2175            0.0000000000
     28777      2367  TIP3      H2             19.8201139175        3.2723604452       32.3909038759  TIP3      2175            0.0000000000
     28778      2368  TIP3      OH2            22.5288912375       15.8228472396       37.1148881474  TIP3      2176            0.0000000000
     28779      2368  TIP3      H1             21.6917667013       16.0504240336       36.6761802624  TIP3      2176            0.0000000000
     28780      2368  TIP3      H2             22.2589646280       15.7559201613       38.0342723735  TIP3      2176            0.0000000000
     28781      2369  TIP3      OH2            25.4274992412       16.8396138969       33.3954061378  TIP3      2177            0.0000000000
     28782      2369  TIP3      H1             25.0986602567       17.7067337207       33.1208867685  TIP3      2177            0.0000000000
     28783      2369  TIP3      H2             26.3537367099       16.9228204913       33.0884357164  TIP3      2177            0.0000000000
     28784      2370  TIP3      OH2            29.7491494415       18.2620750648       36.2950040085  TIP3      2178            0.0000000000
     28785      2370  TIP3      H1             29.8862783830       17.9088514355       37.2044469101  TIP3      2178            0.0000000000
     28786      2370  TIP3      H2             30.6509914251       18.5693844993       36.0510787239  TIP3      2178            0.0000000000
     28787      2371  TIP3      OH2            32.0568688361       19.5269844574       35.6157760329  TIP3      2179            0.0000000000
     28788      2371  TIP3      H1             32.7982931952       18.9538756280       35.3746115338  TIP3      2179            0.0000000000
     28789      2371  TIP3      H2             32.4382900258       19.9794469478       36.3982831530  TIP3      2179            0.0000000000
     28790      2372  TIP3      OH2            22.8514296224       20.0724563442       33.3859375909  TIP3      2180            0.0000000000
     28791      2372  TIP3      H1             22.1202695134       20.5748617198       32.9913726210  TIP3      2180            0.0000000000
     28792      2372  TIP3      H2             22.5410438506       19.8831580675       34.2831181350  TIP3      2180            0.0000000000
     28793      2373  TIP3      OH2            25.3194795734       19.6511466773       32.4615016571  TIP3      2181            0.0000000000
     28794      2373  TIP3      H1             24.4276330121       19.8050146150       32.8536163210  TIP3      2181            0.0000000000
     28795      2373  TIP3      H2             25.2662434317       20.2408554362       31.6865365911  TIP3      2181            0.0000000000
     28796      2374  TIP3      OH2            29.9887943015       19.5477360031       31.6387338572  TIP3      2182            0.0000000000
     28797      2374  TIP3      H1             29.5588190157       20.1198788496       30.9812385336  TIP3      2182            0.0000000000
     28798      2374  TIP3      H2             30.1556503492       20.1878092191       32.3628425425  TIP3      2182            0.0000000000
     28799      2375  TIP3      OH2            32.3104180098       18.3664139498       32.6561060631  TIP3      2183            0.0000000000
     28800      2375  TIP3      H1             31.4546485621       18.6422778128       32.2911918309  TIP3      2183            0.0000000000
     28801      2375  TIP3      H2             32.7721539891       19.2231587439       32.5899388346  TIP3      2183            0.0000000000
     28802      2376  TIP3      OH2            34.7601124335       19.9416359994       32.8708081755  TIP3      2184            0.0000000000
     28803      2376  TIP3      H1             34.7566088138       20.8922917545       32.6554273443  TIP3      2184            0.0000000000
     28804      2376  TIP3      H2             35.1036141219       19.5708890400       32.0358708332  TIP3      2184            0.0000000000
     28805      2377  TIP3      OH2            22.3129539911       18.7228537834       30.3305231933  TIP3      2185            0.0000000000
     28806      2377  TIP3      H1             22.2301083822       18.2635416893       31.1930256826  TIP3      2185            0.0000000000
     28807      2377  TIP3      H2             23.1272400502       18.3434091204       29.9425693595  TIP3      2185            0.0000000000
     28808      2378  TIP3      OH2            24.3824432508       17.4273575381       28.9758370250  TIP3      2186            0.0000000000
     28809      2378  TIP3      H1             24.2223379482       16.4964117262       29.2180220561  TIP3      2186            0.0000000000
     28810      2378  TIP3      H2             25.2373908070       17.5898161018       29.4320796477  TIP3      2186            0.0000000000
     28811      2379  TIP3      OH2            26.9615144810       17.9234362124       29.8629171346  TIP3      2187            0.0000000000
     28812      2379  TIP3      H1             27.1410921854       17.0028349077       29.5979787619  TIP3      2187            0.0000000000
     28813      2379  TIP3      H2             27.0336250038       17.8670253304       30.8263235229  TIP3      2187            0.0000000000
     28814      2380  TIP3      OH2            30.4218722491        3.5761311615       29.0064146911  TIP3      2188            0.0000000000
     28815      2380  TIP3      H1             29.7601751208        2.9212526099       29.2852054574  TIP3      2188            0.0000000000
     28816      2380  TIP3      H2             30.9890562292        3.0492315476       28.4264191357  TIP3      2188            0.0000000000
     28817      2381  TIP3      OH2            35.5880786702        1.6043160369       29.0712583344  TIP3      2189            0.0000000000
     28818      2381  TIP3      H1             36.1651874401        2.2338748527       28.6305331045  TIP3      2189            0.0000000000
     28819      2381  TIP3      H2             34.6931756593        1.9566602675       28.8574147525  TIP3      2189            0.0000000000
     28820      2382  TIP3      OH2            22.8024406674        2.1977738452       26.8518208294  TIP3      2190            0.0000000000
     28821      2382  TIP3      H1             22.0162571316        2.0122549383       26.3028930279  TIP3      2190            0.0000000000
     28822      2382  TIP3      H2             23.2654435410        1.3386897997       26.7945568454  TIP3      2190            0.0000000000
     28823      2383  TIP3      OH2            27.3120193838        2.0855472403       26.6159862617  TIP3      2191            0.0000000000
     28824      2383  TIP3      H1             28.1878986337        2.4975705449       26.5728400356  TIP3      2191            0.0000000000
     28825      2383  TIP3      H2             27.2455691284        1.9016851080       27.5537900958  TIP3      2191            0.0000000000
     28826      2384  TIP3      OH2            33.0258053649        2.0957842873       28.2541711516  TIP3      2192            0.0000000000
     28827      2384  TIP3      H1             32.9649450148        2.2735012608       27.3070782955  TIP3      2192            0.0000000000
     28828      2384  TIP3      H2             32.5868468677        1.2157139604       28.3669194194  TIP3      2192            0.0000000000
     28829      2385  TIP3      OH2            34.2338160555        2.1046291464       23.7725779084  TIP3      2193            0.0000000000
     28830      2385  TIP3      H1             33.5119737519        2.7481726464       23.7628161762  TIP3      2193            0.0000000000
     28831      2385  TIP3      H2             33.7909989721        1.2953286251       24.1077111278  TIP3      2193            0.0000000000
     28832      2386  TIP3      OH2            21.4009186579       17.9484737247       23.6654893960  TIP3      2194            0.0000000000
     28833      2386  TIP3      H1             20.9373540475       17.8865723194       22.8308937745  TIP3      2194            0.0000000000
     28834      2386  TIP3      H2             21.5609247986       18.9028473635       23.7385117495  TIP3      2194            0.0000000000
     28835      2387  TIP3      OH2            23.4240537741        3.8417521760       21.1127624201  TIP3      2195            0.0000000000
     28836      2387  TIP3      H1             23.9460303084        3.2981848283       20.5238168035  TIP3      2195            0.0000000000
     28837      2387  TIP3      H2             24.0957255689        4.2007832990       21.7049655084  TIP3      2195            0.0000000000
     28838      2388  TIP3      OH2            28.4982750993        4.1366076104       23.4824736983  TIP3      2196            0.0000000000
     28839      2388  TIP3      H1             28.7098156262        3.5785067046       24.2481518502  TIP3      2196            0.0000000000
     28840      2388  TIP3      H2             28.4848199180        5.0034017276       23.9468286764  TIP3      2196            0.0000000000
     28841      2389  TIP3      OH2            22.6889007708        2.7609336549       36.3052452981  TIP3      2197            0.0000000000
     28842      2389  TIP3      H1             22.3163469383        1.9438342906       36.6948230910  TIP3      2197            0.0000000000
     28843      2389  TIP3      H2             23.6049838547        2.6885787479       36.6762252163  TIP3      2197            0.0000000000
     28844      2390  TIP3      OH2            24.7020975952        2.1148895722       37.9406088514  TIP3      2198            0.0000000000
     28845      2390  TIP3      H1             25.5969039585        1.7818077976       37.7237449525  TIP3      2198            0.0000000000
     28846      2390  TIP3      H2             24.3268540912        1.3104098060       38.3445293113  TIP3      2198            0.0000000000
     28847      2391  TIP3      OH2            33.1037526863        1.4255135147       38.0689485320  TIP3      2199            0.0000000000
     28848      2391  TIP3      H1             33.1923773446        0.9562616470       38.9246760567  TIP3      2199            0.0000000000
     28849      2391  TIP3      H2             34.0267056327        1.4077636355       37.7290766484  TIP3      2199            0.0000000000
     28850      2392  TIP3      OH2            36.0976999183       17.3375575010       36.8608483608  TIP3      2200            0.0000000000
     28851      2392  TIP3      H1             35.4523112409       17.2788328360       36.1251464768  TIP3      2200            0.0000000000
     28852      2392  TIP3      H2             36.1214359123       18.3197880367       36.9414442031  TIP3      2200            0.0000000000
     28853      2393  TIP3      OH2           -24.6560763083       30.1821574386       26.6870776784  TIP3      2201            0.0000000000
     28854      2393  TIP3      H1            -24.6763578049       31.1591042394       26.6647722198  TIP3      2201            0.0000000000
     28855      2393  TIP3      H2            -25.4140332778       29.9709303445       26.1454378779  TIP3      2201            0.0000000000
     28856      2394  TIP3      OH2           -25.8267712204       29.4419725293       30.1938944305  TIP3      2202            0.0000000000
     28857      2394  TIP3      H1            -25.8212043257       28.8010443146       30.9168364124  TIP3      2202            0.0000000000
     28858      2394  TIP3      H2            -26.1608202845       28.9228580660       29.4468801641  TIP3      2202            0.0000000000
     28859      2395  TIP3      OH2           -33.4056474188       29.1095407920       31.7213933102  TIP3      2203            0.0000000000
     28860      2395  TIP3      H1            -33.3478767896       28.4367071919       32.4340456438  TIP3      2203            0.0000000000
     28861      2395  TIP3      H2            -32.7043469699       29.7151571297       31.9981054561  TIP3      2203            0.0000000000
     28862      2396  TIP3      OH2           -22.1033284307       32.4713911372       28.4662595247  TIP3      2204            0.0000000000
     28863      2396  TIP3      H1            -22.5071846286       31.7016491234       28.9135416676  TIP3      2204            0.0000000000
     28864      2396  TIP3      H2            -22.1146585438       33.0932269119       29.2147911096  TIP3      2204            0.0000000000
     28865      2397  TIP3      OH2           -32.5242006152       33.5605696942       30.3065972514  TIP3      2205            0.0000000000
     28866      2397  TIP3      H1            -32.8611253888       32.7203210846       29.9392040935  TIP3      2205            0.0000000000
     28867      2397  TIP3      H2            -31.5670832162       33.3823608650       30.2859233786  TIP3      2205            0.0000000000
     28868      2398  TIP3      OH2           -35.6039456990       27.1590076431       25.3060732422  TIP3      2206            0.0000000000
     28869      2398  TIP3      H1            -36.0732722193       27.9298146784       25.7028700038  TIP3      2206            0.0000000000
     28870      2398  TIP3      H2            -36.3810183690       26.5972722537       25.3056524860  TIP3      2206            0.0000000000
     28871      2399  TIP3      OH2           -35.2096393345       29.2744538942       27.8386930901  TIP3      2207            0.0000000000
     28872      2399  TIP3      H1            -34.9088151324       28.5214335184       28.3648273533  TIP3      2207            0.0000000000
     28873      2399  TIP3      H2            -34.4738471287       29.4616172934       27.2426128975  TIP3      2207            0.0000000000
     28874      2400  TIP3      OH2           -27.4645814160       31.8253435269       30.6686079742  TIP3      2208            0.0000000000
     28875      2400  TIP3      H1            -27.0941582886       31.2149362835       30.0130656266  TIP3      2208            0.0000000000
     28876      2400  TIP3      H2            -26.6512178068       32.0197744851       31.1752887175  TIP3      2208            0.0000000000
     28877      2401  TIP3      OH2           -18.8419101264       23.5095981329       31.3999612477  TIP3      2209            0.0000000000
     28878      2401  TIP3      H1            -18.6637396576       24.0947417434       32.1676125374  TIP3      2209            0.0000000000
     28879      2401  TIP3      H2            -18.2678111603       23.9262814375       30.7417412738  TIP3      2209            0.0000000000
     28880      2402  TIP3      OH2           -24.2793462879       26.3087235293       30.9922196224  TIP3      2210            0.0000000000
     28881      2402  TIP3      H1            -24.0991384471       25.3537555965       30.9969857422  TIP3      2210            0.0000000000
     28882      2402  TIP3      H2            -24.3680929536       26.4538971678       30.0293665316  TIP3      2210            0.0000000000
     28883      2403  TIP3      OH2           -31.1576624086       24.4042683241       28.2144714078  TIP3      2211            0.0000000000
     28884      2403  TIP3      H1            -31.0346181929       25.2376869893       27.7211264146  TIP3      2211            0.0000000000
     28885      2403  TIP3      H2            -31.5438081765       23.8365541459       27.5211085707  TIP3      2211            0.0000000000
     28886      2404  TIP3      OH2           -23.4457421507       24.4920022629       26.6054411475  TIP3      2212            0.0000000000
     28887      2404  TIP3      H1            -22.7701948493       24.1573740404       27.2367234995  TIP3      2212            0.0000000000
     28888      2404  TIP3      H2            -22.8935575523       25.0182869017       26.0072890719  TIP3      2212            0.0000000000
     28889      2405  TIP3      OH2           -34.5632450590       26.7242118975       28.8773843634  TIP3      2213            0.0000000000
     28890      2405  TIP3      H1            -33.8351792889       26.2625724653       29.3448757329  TIP3      2213            0.0000000000
     28891      2405  TIP3      H2            -34.3746789905       26.4539516746       27.9658061520  TIP3      2213            0.0000000000
     28892      2406  TIP3      OH2           -29.3659476616       28.3684793937       28.2459122157  TIP3      2214            0.0000000000
     28893      2406  TIP3      H1            -28.7018756670       27.7869445688       28.6557089906  TIP3      2214            0.0000000000
     28894      2406  TIP3      H2            -29.8796879054       27.7128559924       27.7314944535  TIP3      2214            0.0000000000
     28895      2407  TIP3      OH2           -18.4042210883       24.9112813714       33.6806703169  TIP3      2215            0.0000000000
     28896      2407  TIP3      H1            -19.0100882683       25.6831168647       33.5791275851  TIP3      2215            0.0000000000
     28897      2407  TIP3      H2            -18.3646410518       24.8305484655       34.6393529700  TIP3      2215            0.0000000000
     28898      2408  TIP3      OH2           -32.2029811973       23.3046663622       32.2416319333  TIP3      2216            0.0000000000
     28899      2408  TIP3      H1            -32.5132586132       23.8725784524       31.5052723175  TIP3      2216            0.0000000000
     28900      2408  TIP3      H2            -32.8883693094       23.5243726438       32.9217453076  TIP3      2216            0.0000000000
     28901      2409  TIP3      OH2           -24.9315569269       32.7918858339       25.7612598701  TIP3      2217            0.0000000000
     28902      2409  TIP3      H1            -25.3122074107       32.5390281075       24.9131387238  TIP3      2217            0.0000000000
     28903      2409  TIP3      H2            -25.3182960343       33.6863561924       25.8777274924  TIP3      2217            0.0000000000
     28904      2410  TIP3      OH2           -29.7091545806       30.9248472609       32.4961744058  TIP3      2218            0.0000000000
     28905      2410  TIP3      H1            -30.4257263515       31.5630990705       32.7075151897  TIP3      2218            0.0000000000
     28906      2410  TIP3      H2            -29.0101471897       31.5261949522       32.1970816477  TIP3      2218            0.0000000000
     28907      2411  TIP3      OH2           -21.6027921514       23.8203569715       28.5692033311  TIP3      2219            0.0000000000
     28908      2411  TIP3      H1            -21.8219357441       23.0581389716       29.1109046656  TIP3      2219            0.0000000000
     28909      2411  TIP3      H2            -20.9375506571       24.2651747789       29.1188216115  TIP3      2219            0.0000000000
     28910      2412  TIP3      OH2           -32.6955328268       25.1407942128       30.2716140131  TIP3      2220            0.0000000000
     28911      2412  TIP3      H1            -32.0840509662       25.8384465541       30.6101384509  TIP3      2220            0.0000000000
     28912      2412  TIP3      H2            -32.1414419761       24.7626702027       29.5342945687  TIP3      2220            0.0000000000
     28913      2413  TIP3      OH2           -31.2768614957       32.9346893347       33.2701339378  TIP3      2221            0.0000000000
     28914      2413  TIP3      H1            -31.3395510260       33.8477544887       32.9423868734  TIP3      2221            0.0000000000
     28915      2413  TIP3      H2            -32.1561053733       32.8464963220       33.7119775096  TIP3      2221            0.0000000000
     28916      2414  TIP3      OH2           -35.2566280628       32.6430704636       24.1131805842  TIP3      2222            0.0000000000
     28917      2414  TIP3      H1            -35.4070231182       32.8635795857       23.1855325149  TIP3      2222            0.0000000000
     28918      2414  TIP3      H2            -35.1221512093       33.4779495759       24.5884579410  TIP3      2222            0.0000000000
     28919      2415  TIP3      OH2           -21.5872636858       34.2541244702       30.8178391746  TIP3      2223            0.0000000000
     28920      2415  TIP3      H1            -22.5574718791       34.3284635709       31.0230314419  TIP3      2223            0.0000000000
     28921      2415  TIP3      H2            -21.3104682961       35.1744892764       30.6921018953  TIP3      2223            0.0000000000
     28922      2416  TIP3      OH2           -21.2735567315       22.5124287390       32.2434467112  TIP3      2224            0.0000000000
     28923      2416  TIP3      H1            -21.9972999797       23.1451679750       32.1514830928  TIP3      2224            0.0000000000
     28924      2416  TIP3      H2            -20.5589973599       22.9336491673       31.7232982487  TIP3      2224            0.0000000000
     28925      2417  TIP3      OH2           -28.2955270816       20.6278579466       29.7085111204  TIP3      2225            0.0000000000
     28926      2417  TIP3      H1            -28.4462269112       19.6655562922       29.6516129654  TIP3      2225            0.0000000000
     28927      2417  TIP3      H2            -29.1750318295       20.9466711299       29.9987408461  TIP3      2225            0.0000000000
     28928      2418  TIP3      OH2           -23.1726447929       35.6738785545       27.3592064516  TIP3      2226            0.0000000000
     28929      2418  TIP3      H1            -22.8870115832       35.0891797762       26.6547195450  TIP3      2226            0.0000000000
     28930      2418  TIP3      H2            -22.9806402068       36.5575517477       27.0313097719  TIP3      2226            0.0000000000
     28931      2419  TIP3      OH2           -22.2564846874       33.7981068295       25.7959634756  TIP3      2227            0.0000000000
     28932      2419  TIP3      H1            -22.5252076615       33.0583456307       25.2279576420  TIP3      2227            0.0000000000
     28933      2419  TIP3      H2            -22.3992104991       33.3330099607       26.6544294599  TIP3      2227            0.0000000000
     28934      2420  TIP3      OH2           -20.4490284043       32.5734504522       34.4710785617  TIP3      2228            0.0000000000
     28935      2420  TIP3      H1            -20.3964011663       31.8855471665       33.7738017598  TIP3      2228            0.0000000000
     28936      2420  TIP3      H2            -20.2847310901       33.3950054165       33.9934161061  TIP3      2228            0.0000000000
     28937      2421  TIP3      OH2           -18.6114838282       28.8516839469       32.5127628194  TIP3      2229            0.0000000000
     28938      2421  TIP3      H1            -19.2845786177       29.5671598959       32.5546424667  TIP3      2229            0.0000000000
     28939      2421  TIP3      H2            -18.1339342193       29.0888529919       31.6987862956  TIP3      2229            0.0000000000
     28940      2422  TIP3      OH2           -22.5645817850       29.6662735803       25.1598525469  TIP3      2230            0.0000000000
     28941      2422  TIP3      H1            -23.3013037649       29.8663724131       25.7770899653  TIP3      2230            0.0000000000
     28942      2422  TIP3      H2            -22.1029699893       28.9503437920       25.6326626753  TIP3      2230            0.0000000000
     28943      2423  TIP3      OH2           -22.6242975359       27.7526378499       34.0991509592  TIP3      2231            0.0000000000
     28944      2423  TIP3      H1            -22.5986305230       28.4817433063       34.7746652804  TIP3      2231            0.0000000000
     28945      2423  TIP3      H2            -23.3053060660       28.1325509332       33.5229740022  TIP3      2231            0.0000000000
     28946      2424  TIP3      OH2           -30.9255925637       30.3124376925       27.0678525700  TIP3      2232            0.0000000000
     28947      2424  TIP3      H1            -31.2807484128       29.9207539290       26.2396541678  TIP3      2232            0.0000000000
     28948      2424  TIP3      H2            -30.3275298640       29.6062636479       27.3965061997  TIP3      2232            0.0000000000
     28949      2425  TIP3      OH2           -29.6320151646       33.7023566270       29.7462848703  TIP3      2233            0.0000000000
     28950      2425  TIP3      H1            -29.6373226047       33.1619362965       28.9473253755  TIP3      2233            0.0000000000
     28951      2425  TIP3      H2            -28.8549169241       33.3296458272       30.2021981504  TIP3      2233            0.0000000000
     28952      2426  TIP3      OH2           -30.5897905929       29.0373436139       30.7187356418  TIP3      2234            0.0000000000
     28953      2426  TIP3      H1            -30.0569718416       29.1514166268       29.9109741504  TIP3      2234            0.0000000000
     28954      2426  TIP3      H2            -30.2293135503       29.7187523170       31.3307617999  TIP3      2234            0.0000000000
     28955      2427  TIP3      OH2           -24.1529244393       34.6107736550       31.4306116780  TIP3      2235            0.0000000000
     28956      2427  TIP3      H1            -24.5367201605       35.2397823010       32.0413258896  TIP3      2235            0.0000000000
     28957      2427  TIP3      H2            -24.4603216201       33.7579731509       31.8347660985  TIP3      2235            0.0000000000
     28958      2428  TIP3      OH2           -29.6726304943       33.4773679855       35.4194707245  TIP3      2236            0.0000000000
     28959      2428  TIP3      H1            -30.1037428098       34.2238204382       35.8940027309  TIP3      2236            0.0000000000
     28960      2428  TIP3      H2            -30.3303306473       33.2483519073       34.7138095927  TIP3      2236            0.0000000000
     28961      2429  TIP3      OH2           -32.7326134769       29.6452160971       34.5966557348  TIP3      2237            0.0000000000
     28962      2429  TIP3      H1            -32.6839466622       30.3292215547       35.2866564314  TIP3      2237            0.0000000000
     28963      2429  TIP3      H2            -33.6715969221       29.7341753025       34.3613008728  TIP3      2237            0.0000000000
     28964      2430  TIP3      OH2           -25.9645769960       35.5286359571       26.2607740763  TIP3      2238            0.0000000000
     28965      2430  TIP3      H1            -25.5734728846       35.8429913450       27.0772485620  TIP3      2238            0.0000000000
     28966      2430  TIP3      H2            -26.5242143941       36.2813169159       26.0145374908  TIP3      2238            0.0000000000
     28967      2431  TIP3      OH2           -31.4426579808       35.4260339373       36.1415018143  TIP3      2239            0.0000000000
     28968      2431  TIP3      H1            -31.5236800866       35.3955972656       35.1643379960  TIP3      2239            0.0000000000
     28969      2431  TIP3      H2            -32.3823853901       35.3545874421       36.4072890128  TIP3      2239            0.0000000000
     28970      2432  TIP3      OH2           -31.9400656266       29.3025022006       24.6409189788  TIP3      2240            0.0000000000
     28971      2432  TIP3      H1            -32.2103457916       30.1291265791       24.1958119305  TIP3      2240            0.0000000000
     28972      2432  TIP3      H2            -32.6730065796       28.6992466077       24.5057268529  TIP3      2240            0.0000000000
     28973      2433  TIP3      OH2           -35.2932996310       31.6116384294       33.3247131097  TIP3      2241            0.0000000000
     28974      2433  TIP3      H1            -36.0590618199       31.7354113524       32.7238296688  TIP3      2241            0.0000000000
     28975      2433  TIP3      H2            -35.6701991100       30.8268189615       33.7831775660  TIP3      2241            0.0000000000
     28976      2434  TIP3      OH2           -35.8360958829       34.6859321702       30.1162285648  TIP3      2242            0.0000000000
     28977      2434  TIP3      H1            -34.9856620558       34.3507617010       30.3899816502  TIP3      2242            0.0000000000
     28978      2434  TIP3      H2            -36.0706893356       35.2557401256       30.8569630012  TIP3      2242            0.0000000000
     28979      2435  TIP3      OH2           -17.9132025586       35.1791385559       36.1080790216  TIP3      2243            0.0000000000
     28980      2435  TIP3      H1            -18.0285651893       34.2179972378       35.9818800333  TIP3      2243            0.0000000000
     28981      2435  TIP3      H2            -18.8104898317       35.4207978406       36.4237047428  TIP3      2243            0.0000000000
     28982      2436  TIP3      OH2           -26.9504121981       34.7447634365       34.8897447401  TIP3      2244            0.0000000000
     28983      2436  TIP3      H1            -26.8490268144       35.5548513723       35.4005857256  TIP3      2244            0.0000000000
     28984      2436  TIP3      H2            -27.7943137597       34.3458399566       35.1725390189  TIP3      2244            0.0000000000
     28985      2437  TIP3      OH2           -20.7014861208       26.6197585907       36.4976900953  TIP3      2245            0.0000000000
     28986      2437  TIP3      H1            -21.2226770105       27.1288298305       35.8442053798  TIP3      2245            0.0000000000
     28987      2437  TIP3      H2            -20.7737835331       25.7118751805       36.1808605727  TIP3      2245            0.0000000000
     28988      2438  TIP3      OH2           -33.5608643395       33.1301364605       34.5770778041  TIP3      2246            0.0000000000
     28989      2438  TIP3      H1            -33.4087618437       32.6886756891       35.4342381455  TIP3      2246            0.0000000000
     28990      2438  TIP3      H2            -34.4008325595       32.7146836849       34.2761771251  TIP3      2246            0.0000000000
     28991      2439  TIP3      OH2           -30.9151143860       21.5583761405       30.4502431496  TIP3      2247            0.0000000000
     28992      2439  TIP3      H1            -31.8202034531       21.4253996476       30.0912121723  TIP3      2247            0.0000000000
     28993      2439  TIP3      H2            -31.0575006256       22.3758383786       30.9543354217  TIP3      2247            0.0000000000
     28994      2440  TIP3      OH2           -26.2778131057       21.1907151690       33.8062178668  TIP3      2248            0.0000000000
     28995      2440  TIP3      H1            -25.8900533687       20.7972142119       34.6163654952  TIP3      2248            0.0000000000
     28996      2440  TIP3      H2            -27.2478802546       21.0923449435       33.9816852231  TIP3      2248            0.0000000000
     28997      2441  TIP3      OH2           -22.9979934592       25.0422215014       34.7218498881  TIP3      2249            0.0000000000
     28998      2441  TIP3      H1            -23.5600548846       24.8327336221       35.5097139689  TIP3      2249            0.0000000000
     28999      2441  TIP3      H2            -23.1674792908       25.9736990743       34.4918469685  TIP3      2249            0.0000000000
     29000      2442  TIP3      OH2           -30.8372794152       26.5131335379       31.7121970528  TIP3      2250            0.0000000000
     29001      2442  TIP3      H1            -31.5638989757       26.5124289647       32.3656675992  TIP3      2250            0.0000000000
     29002      2442  TIP3      H2            -30.8569184515       27.4246846793       31.3463038055  TIP3      2250            0.0000000000
     29003      2443  TIP3      OH2           -30.8609849750       26.6169790067       26.5774659806  TIP3      2251            0.0000000000
     29004      2443  TIP3      H1            -31.8021030352       26.3772205790       26.4314220971  TIP3      2251            0.0000000000
     29005      2443  TIP3      H2            -30.4696832678       26.3301759352       25.7254444356  TIP3      2251            0.0000000000
     29006      2444  TIP3      OH2           -25.3449003421       27.1434521278       25.3237820721  TIP3      2252            0.0000000000
     29007      2444  TIP3      H1            -25.7726783216       27.9259464385       24.9825583186  TIP3      2252            0.0000000000
     29008      2444  TIP3      H2            -24.6514869291       26.9222644272       24.6733931713  TIP3      2252            0.0000000000
     29009      2445  TIP3      OH2           -26.3066261867       27.3403865234       36.7995387777  TIP3      2253            0.0000000000
     29010      2445  TIP3      H1            -26.8124722225       26.5452599188       37.1067378001  TIP3      2253            0.0000000000
     29011      2445  TIP3      H2            -25.4501178426       27.2355891809       37.2516640889  TIP3      2253            0.0000000000
     29012      2446  TIP3      OH2           -24.3041546324       26.6254939951       28.1961923921  TIP3      2254            0.0000000000
     29013      2446  TIP3      H1            -24.5841192390       27.1809209250       27.4526086855  TIP3      2254            0.0000000000
     29014      2446  TIP3      H2            -24.2086774058       25.7675722131       27.7348823397  TIP3      2254            0.0000000000
     29015      2447  TIP3      OH2           -33.1845185489       26.7473258308       33.3970705537  TIP3      2255            0.0000000000
     29016      2447  TIP3      H1            -33.1670676574       27.1703436225       34.2708178925  TIP3      2255            0.0000000000
     29017      2447  TIP3      H2            -33.6737224496       25.9346856145       33.5915574156  TIP3      2255            0.0000000000
     29018      2448  TIP3      OH2           -36.1687367350       24.1892681823       27.1889548432  TIP3      2256            0.0000000000
     29019      2448  TIP3      H1            -35.8305973359       23.8378534978       28.0388115729  TIP3      2256            0.0000000000
     29020      2448  TIP3      H2            -36.0302015294       23.4449520102       26.6073410456  TIP3      2256            0.0000000000
     29021      2449  TIP3      OH2           -35.2193067274       24.7893073191       22.7424903459  TIP3      2257            0.0000000000
     29022      2449  TIP3      H1            -34.8477965583       25.3276822207       22.0515526001  TIP3      2257            0.0000000000
     29023      2449  TIP3      H2            -36.0630925855       25.2178677685       22.9228321382  TIP3      2257            0.0000000000
     29024      2450  TIP3      OH2           -25.1155076166       28.2054113155       32.7500149240  TIP3      2258            0.0000000000
     29025      2450  TIP3      H1            -24.7290684838       27.5227324099       32.1640065340  TIP3      2258            0.0000000000
     29026      2450  TIP3      H2            -25.5776676405       27.6747443601       33.4211482291  TIP3      2258            0.0000000000
     29027      2451  TIP3      OH2           -28.3284959736       24.1258268077       27.6025026661  TIP3      2259            0.0000000000
     29028      2451  TIP3      H1            -29.2525455861       24.1957999776       27.9071795345  TIP3      2259            0.0000000000
     29029      2451  TIP3      H2            -27.8308222900       24.0360962910       28.4269139002  TIP3      2259            0.0000000000
     29030      2452  TIP3      OH2           -33.4934985865       25.7611149605       26.4309796055  TIP3      2260            0.0000000000
     29031      2452  TIP3      H1            -34.3854435416       25.8825544496       26.0568489343  TIP3      2260            0.0000000000
     29032      2452  TIP3      H2            -33.2570506379       24.8752665903       26.0994423372  TIP3      2260            0.0000000000
     29033      2453  TIP3      OH2           -29.8703233021       25.8460687145       24.1716494485  TIP3      2261            0.0000000000
     29034      2453  TIP3      H1            -28.9124796411       25.8849979693       24.2565167232  TIP3      2261            0.0000000000
     29035      2453  TIP3      H2            -30.0478059508       26.4366588160       23.4334461359  TIP3      2261            0.0000000000
     29036      2454  TIP3      OH2           -23.9058811502       23.4148045394       30.8274448051  TIP3      2262            0.0000000000
     29037      2454  TIP3      H1            -24.5931591965       23.4667313205       31.5242774914  TIP3      2262            0.0000000000
     29038      2454  TIP3      H2            -24.4160333193       23.1771573420       30.0374088703  TIP3      2262            0.0000000000
     29039      2455  TIP3      OH2           -33.0471053258       31.5410936739       36.7280454629  TIP3      2263            0.0000000000
     29040      2455  TIP3      H1            -32.3057443999       31.7619966258       37.3244091705  TIP3      2263            0.0000000000
     29041      2455  TIP3      H2            -33.7957380227       31.6207774507       37.3434479685  TIP3      2263            0.0000000000
     29042      2456  TIP3      OH2           -27.0308690651       26.9453458442       29.4628733785  TIP3      2264            0.0000000000
     29043      2456  TIP3      H1            -26.4287099664       26.3978571696       28.9479874264  TIP3      2264            0.0000000000
     29044      2456  TIP3      H2            -27.1765830934       26.4022661253       30.2510640718  TIP3      2264            0.0000000000
     29045      2457  TIP3      OH2           -32.0692290536       23.1120830400       25.8424489845  TIP3      2265            0.0000000000
     29046      2457  TIP3      H1            -32.3440983489       22.1862862624       25.9588691665  TIP3      2265            0.0000000000
     29047      2457  TIP3      H2            -31.2118559030       23.0096962452       25.4058462901  TIP3      2265            0.0000000000
     29048      2458  TIP3      OH2           -28.3904075590       25.2644813840       31.9036485403  TIP3      2266            0.0000000000
     29049      2458  TIP3      H1            -29.2126647128       25.7864272585       31.9848182527  TIP3      2266            0.0000000000
     29050      2458  TIP3      H2            -27.8318408916       25.6234651012       32.6199093201  TIP3      2266            0.0000000000
     29051      2459  TIP3      OH2           -20.5888655076       30.6554979613       32.3716168119  TIP3      2267            0.0000000000
     29052      2459  TIP3      H1            -20.0488829757       31.1923412728       31.7701124356  TIP3      2267            0.0000000000
     29053      2459  TIP3      H2            -21.4731228661       30.7475910064       31.9612492252  TIP3      2267            0.0000000000
     29054      2460  TIP3      OH2           -23.9847128764       24.2898652830       21.7872947389  TIP3      2268            0.0000000000
     29055      2460  TIP3      H1            -24.8972809701       24.4978767493       21.6099477166  TIP3      2268            0.0000000000
     29056      2460  TIP3      H2            -23.6377797269       25.1386100241       22.1111638795  TIP3      2268            0.0000000000
     29057      2461  TIP3      OH2           -26.3965796092       31.7748795954       34.7932585484  TIP3      2269            0.0000000000
     29058      2461  TIP3      H1            -26.6347681687       31.3433694237       35.6211309183  TIP3      2269            0.0000000000
     29059      2461  TIP3      H2            -26.5247436328       32.7085824047       34.9625977346  TIP3      2269            0.0000000000
     29060      2462  TIP3      OH2           -23.2690584638       26.3485098454       23.5101615189  TIP3      2270            0.0000000000
     29061      2462  TIP3      H1            -22.3651865153       26.0839559803       23.8070879803  TIP3      2270            0.0000000000
     29062      2462  TIP3      H2            -23.1018096207       27.0209790462       22.8524732866  TIP3      2270            0.0000000000
     29063      2463  TIP3      OH2           -32.7006307018       30.8813947357       29.3694089548  TIP3      2271            0.0000000000
     29064      2463  TIP3      H1            -32.0134597661       30.8149052524       28.6834739980  TIP3      2271            0.0000000000
     29065      2463  TIP3      H2            -32.5946553357       30.0448252839       29.8540151972  TIP3      2271            0.0000000000
     29066      2464  TIP3      OH2           -35.7304597728       29.2665664493       34.6533517394  TIP3      2272            0.0000000000
     29067      2464  TIP3      H1            -35.4707938905       28.8273101389       35.4859709942  TIP3      2272            0.0000000000
     29068      2464  TIP3      H2            -36.3182003618       28.6260073890       34.2289413258  TIP3      2272            0.0000000000
     29069      2465  TIP3      OH2           -28.6843136167       28.8577631634       36.8222865339  TIP3      2273            0.0000000000
     29070      2465  TIP3      H1            -29.0058923043       28.5364098675       35.9684077024  TIP3      2273            0.0000000000
     29071      2465  TIP3      H2            -27.7730610439       28.5039725150       36.8342838217  TIP3      2273            0.0000000000
     29072      2466  TIP3      OH2           -24.0295184305       34.2895326685       34.6921255148  TIP3      2274            0.0000000000
     29073      2466  TIP3      H1            -24.9752227617       34.3203964121       34.5420899213  TIP3      2274            0.0000000000
     29074      2466  TIP3      H2            -24.0289617644       34.4006029549       35.6778915640  TIP3      2274            0.0000000000
     29075      2467  TIP3      OH2           -18.4665686898       26.4224748831       23.2238352764  TIP3      2275            0.0000000000
     29076      2467  TIP3      H1            -18.8423931462       26.0154503674       22.4318072492  TIP3      2275            0.0000000000
     29077      2467  TIP3      H2            -18.1941831193       27.2994834767       22.8735416125  TIP3      2275            0.0000000000
     29078      2468  TIP3      OH2           -18.2995401941       32.2369862277       35.9715219254  TIP3      2276            0.0000000000
     29079      2468  TIP3      H1            -19.2274764684       32.4201887227       35.6604745759  TIP3      2276            0.0000000000
     29080      2468  TIP3      H2            -17.8120226036       32.1520509118       35.1313185842  TIP3      2276            0.0000000000
     29081      2469  TIP3      OH2           -22.8326267803       30.0351776542       30.6282955444  TIP3      2277            0.0000000000
     29082      2469  TIP3      H1            -23.7722930358       29.8009387412       30.5574871541  TIP3      2277            0.0000000000
     29083      2469  TIP3      H2            -22.4025623487       29.2496762020       30.2349947025  TIP3      2277            0.0000000000
     29084      2470  TIP3      OH2           -30.3052109806       34.3179510157       26.6936952616  TIP3      2278            0.0000000000
     29085      2470  TIP3      H1            -29.8167695460       35.1424448288       26.5597358529  TIP3      2278            0.0000000000
     29086      2470  TIP3      H2            -31.2196389125       34.5472654748       26.5024059729  TIP3      2278            0.0000000000
     29087      2471  TIP3      OH2           -28.8456571420       31.9929468737       26.3791757600  TIP3      2279            0.0000000000
     29088      2471  TIP3      H1            -29.1835633985       32.9088347076       26.3775886031  TIP3      2279            0.0000000000
     29089      2471  TIP3      H2            -29.6275425984       31.5204509625       26.7204232901  TIP3      2279            0.0000000000
     29090      2472  TIP3      OH2           -28.1391793971       35.8682624969       32.3855519523  TIP3      2280            0.0000000000
     29091      2472  TIP3      H1            -27.9973116966       36.8205781111       32.3162918858  TIP3      2280            0.0000000000
     29092      2472  TIP3      H2            -27.8327414003       35.7167657585       33.2916130927  TIP3      2280            0.0000000000
     29093      2473  TIP3      OH2           -24.9746680438       32.1698317544       32.2781182524  TIP3      2281            0.0000000000
     29094      2473  TIP3      H1            -25.2355837854       31.9913822564       33.2073179201  TIP3      2281            0.0000000000
     29095      2473  TIP3      H2            -24.2707388666       31.5050242928       32.1738513453  TIP3      2281            0.0000000000
     29096      2474  TIP3      OH2           -34.0446235658       24.0274718733       34.1713469646  TIP3      2282            0.0000000000
     29097      2474  TIP3      H1            -34.9339231160       24.3980145794       34.2495300572  TIP3      2282            0.0000000000
     29098      2474  TIP3      H2            -34.1626589729       23.1870305425       34.6459515623  TIP3      2282            0.0000000000
     29099      2475  TIP3      OH2           -34.1885272725       35.8147904687       32.5466539579  TIP3      2283            0.0000000000
     29100      2475  TIP3      H1            -34.1554910566       34.8637624675       32.6476340815  TIP3      2283            0.0000000000
     29101      2475  TIP3      H2            -34.2552892232       36.1204997085       33.4640358833  TIP3      2283            0.0000000000
     29102      2476  TIP3      OH2           -29.6418429018       33.8481406714       22.3140976433  TIP3      2284            0.0000000000
     29103      2476  TIP3      H1            -29.4729812410       33.2834191685       23.0750018299  TIP3      2284            0.0000000000
     29104      2476  TIP3      H2            -29.5380714989       34.7323368231       22.6794717223  TIP3      2284            0.0000000000
     29105      2477  TIP3      OH2           -25.3185552692       23.8020126354       33.1664834398  TIP3      2285            0.0000000000
     29106      2477  TIP3      H1            -24.5977704248       23.8564474477       33.8026755700  TIP3      2285            0.0000000000
     29107      2477  TIP3      H2            -25.6895149335       22.9172765918       33.3483325175  TIP3      2285            0.0000000000
     29108      2478  TIP3      OH2           -26.8295431435       35.6254617279       23.1364416740  TIP3      2286            0.0000000000
     29109      2478  TIP3      H1            -27.7167807850       36.0032457722       23.1466550348  TIP3      2286            0.0000000000
     29110      2478  TIP3      H2            -26.3480740650       36.0440182118       22.4235509600  TIP3      2286            0.0000000000
     29111      2479  TIP3      OH2           -26.8090455346       26.1301208083       34.2578300173  TIP3      2287            0.0000000000
     29112      2479  TIP3      H1            -26.7261836420       26.6971835418       35.0498374572  TIP3      2287            0.0000000000
     29113      2479  TIP3      H2            -26.1238835532       25.4529553619       34.3344590559  TIP3      2287            0.0000000000
     29114      2480  TIP3      OH2           -26.4711452832       22.2147743682       25.9704640450  TIP3      2288            0.0000000000
     29115      2480  TIP3      H1            -26.8405298875       22.8341257613       26.6254661303  TIP3      2288            0.0000000000
     29116      2480  TIP3      H2            -25.7642917972       22.7642166849       25.6014236503  TIP3      2288            0.0000000000
     29117      2481  TIP3      OH2           -29.5344315799      -36.7494035450       23.4677311484  TIP3      2289            0.0000000000
     29118      2481  TIP3      H1            -29.9194831859      -36.2161119305       22.7283525191  TIP3      2289            0.0000000000
     29119      2481  TIP3      H2            -29.7036123083      -36.1461942944       24.2016981010  TIP3      2289            0.0000000000
     29120      2482  TIP3      OH2           -20.6181509592       23.9733911132       35.0981215591  TIP3      2290            0.0000000000
     29121      2482  TIP3      H1            -21.5366498490       24.3137460918       34.9762177066  TIP3      2290            0.0000000000
     29122      2482  TIP3      H2            -20.3089265122       24.0034035886       34.1788994346  TIP3      2290            0.0000000000
     29123      2483  TIP3      OH2           -22.0055122743       27.7970412127       29.1616975299  TIP3      2291            0.0000000000
     29124      2483  TIP3      H1            -22.8087851133       27.3449229298       28.8276924488  TIP3      2291            0.0000000000
     29125      2483  TIP3      H2            -21.5131015093       27.0962117923       29.6405307040  TIP3      2291            0.0000000000
     29126      2484  TIP3      OH2           -33.4028562547       21.1577582673       29.5836954511  TIP3      2292            0.0000000000
     29127      2484  TIP3      H1            -33.6307135816       21.1985542390       28.6266022430  TIP3      2292            0.0000000000
     29128      2484  TIP3      H2            -33.8616950274       20.3323634720       29.8435078238  TIP3      2292            0.0000000000
     29129      2485  TIP3      OH2           -34.4503266896       35.1010630001       25.6567392977  TIP3      2293            0.0000000000
     29130      2485  TIP3      H1            -35.3212930183       35.5115160394       25.7145648569  TIP3      2293            0.0000000000
     29131      2485  TIP3      H2            -33.9753911650       35.6019704361       24.9968058589  TIP3      2293            0.0000000000
     29132      2486  TIP3      OH2           -30.3152162878       36.3504220502       38.8454214016  TIP3      2294            0.0000000000
     29133      2486  TIP3      H1            -29.4615630214       35.9475350738       39.0157439794  TIP3      2294            0.0000000000
     29134      2486  TIP3      H2            -30.3906966259       36.2114835394       37.8846035498  TIP3      2294            0.0000000000
     29135      2487  TIP3      OH2           -24.0662052213       34.7237583065       37.2417644342  TIP3      2295            0.0000000000
     29136      2487  TIP3      H1            -24.4463024587       33.9635835558       37.7162131085  TIP3      2295            0.0000000000
     29137      2487  TIP3      H2            -23.3955851377       35.0205776476       37.8714478389  TIP3      2295            0.0000000000
     29138      2488  TIP3      OH2           -22.0610897481       35.4044252278       20.0127464842  TIP3      2296            0.0000000000
     29139      2488  TIP3      H1            -21.5972238746       35.0249291183       20.7248188970  TIP3      2296            0.0000000000
     29140      2488  TIP3      H2            -21.4719045568       36.0776437580       19.5883751420  TIP3      2296            0.0000000000
     29141      2489  TIP3      OH2           -35.3998933575       31.5227084621       38.0057512023  TIP3      2297            0.0000000000
     29142      2489  TIP3      H1            -35.1897571963       30.6282741302       37.6811210874  TIP3      2297            0.0000000000
     29143      2489  TIP3      H2            -36.1154097540       31.8060816853       37.4235351238  TIP3      2297            0.0000000000
     29144      2490  TIP3      OH2           -28.6266874396       31.5147584694       37.3857473584  TIP3      2298            0.0000000000
     29145      2490  TIP3      H1            -28.9947628499       31.8142774967       36.5328327664  TIP3      2298            0.0000000000
     29146      2490  TIP3      H2            -28.5792575378       30.5296842378       37.2924981184  TIP3      2298            0.0000000000
     29147      2491  TIP3      OH2           -23.0001017286       31.4997152001       34.3140378045  TIP3      2299            0.0000000000
     29148      2491  TIP3      H1            -22.1960806928       31.8728707976       34.7422723905  TIP3      2299            0.0000000000
     29149      2491  TIP3      H2            -23.6344128921       31.9829141487       34.8590180244  TIP3      2299            0.0000000000
     29150      2492  TIP3      OH2           -34.5053987294       28.7628123457       37.3890876769  TIP3      2300            0.0000000000
     29151      2492  TIP3      H1            -34.0337273136       27.9133280112       37.3007671829  TIP3      2300            0.0000000000
     29152      2492  TIP3      H2            -34.6891053671       28.7528904935       38.3404951714  TIP3      2300            0.0000000000
     29153      2493  TIP3      OH2           -29.7594619269       29.8450613352       22.4418949970  TIP3      2301            0.0000000000
     29154      2493  TIP3      H1            -30.2871329154       29.3837575129       23.0935968417  TIP3      2301            0.0000000000
     29155      2493  TIP3      H2            -29.5282916078       29.2026518959       21.7579653255  TIP3      2301            0.0000000000
     29156      2494  TIP3      OH2           -30.5516603472       27.6895753822       34.7501258259  TIP3      2302            0.0000000000
     29157      2494  TIP3      H1            -31.1557195258       28.3986343855       35.0221858789  TIP3      2302            0.0000000000
     29158      2494  TIP3      H2            -30.1565347106       28.0649866960       33.9441119095  TIP3      2302            0.0000000000
     29159      2495  TIP3      OH2           -25.4648977220       30.2608755255       38.0876976836  TIP3      2303            0.0000000000
     29160      2495  TIP3      H1            -24.4989771059       30.3102820028       37.9733281007  TIP3      2303            0.0000000000
     29161      2495  TIP3      H2            -25.6168850046       29.4935444259       38.6534245130  TIP3      2303            0.0000000000
     29162      2496  TIP3      OH2           -30.1132192555       25.0736564567       35.8086639709  TIP3      2304            0.0000000000
     29163      2496  TIP3      H1            -30.0320879704       24.3628433124       35.1470201019  TIP3      2304            0.0000000000
     29164      2496  TIP3      H2            -30.2135563243       25.8812722815       35.2626820905  TIP3      2304            0.0000000000
     29165      2497  TIP3      OH2           -29.7296026656       23.4539040317       33.3677072255  TIP3      2305            0.0000000000
     29166      2497  TIP3      H1            -29.2286745053       23.9164763946       32.6523654539  TIP3      2305            0.0000000000
     29167      2497  TIP3      H2            -30.6280235185       23.3699628454       32.9727679838  TIP3      2305            0.0000000000
     29168      2498  TIP3      OH2           -28.1853697774       28.9463984664       33.6162379623  TIP3      2306            0.0000000000
     29169      2498  TIP3      H1            -27.4441016014       28.7769310980       33.0271488578  TIP3      2306            0.0000000000
     29170      2498  TIP3      H2            -28.5459103847       29.7818459637       33.2757908219  TIP3      2306            0.0000000000
     29171      2499  TIP3      OH2           -23.8237677618       26.6697341515       38.5837555049  TIP3      2307            0.0000000000
     29172      2499  TIP3      H1            -23.5771098460       25.7392928570       38.4689605235  TIP3      2307            0.0000000000
     29173      2499  TIP3      H2            -22.9650879599       27.1404328996       38.5789759506  TIP3      2307            0.0000000000
     29174      2500  TIP3      OH2           -22.4904078205       28.8574905064       36.4183741641  TIP3      2308            0.0000000000
     29175      2500  TIP3      H1            -22.8649350316       29.7215910954       36.1321822346  TIP3      2308            0.0000000000
     29176      2500  TIP3      H2            -21.6120517774       29.2515739608       36.6133014726  TIP3      2308            0.0000000000
     29177      2501  TIP3      OH2           -31.7134308583       26.3422434504       37.7088214862  TIP3      2309            0.0000000000
     29178      2501  TIP3      H1            -32.4710663848       25.7338692098       37.5641995115  TIP3      2309            0.0000000000
     29179      2501  TIP3      H2            -31.0457722144       25.9535090782       37.1159994259  TIP3      2309            0.0000000000
     29180      2502  TIP3      OH2           -28.9543348374       20.8875032508       33.7341001808  TIP3      2310            0.0000000000
     29181      2502  TIP3      H1            -29.1403399412       21.8484252252       33.6289109884  TIP3      2310            0.0000000000
     29182      2502  TIP3      H2            -29.7128273839       20.5178227940       33.2426576615  TIP3      2310            0.0000000000
     29183      2503  TIP3      OH2           -27.6924329315       25.2200564195       37.3713330717  TIP3      2311            0.0000000000
     29184      2503  TIP3      H1            -27.9849703176       24.9707593544       38.2745554955  TIP3      2311            0.0000000000
     29185      2503  TIP3      H2            -28.4760733454       24.9954893836       36.8406476585  TIP3      2311            0.0000000000
     29186      2504  TIP3      OH2           -24.9357763605       24.4087928489       36.4797363182  TIP3      2312            0.0000000000
     29187      2504  TIP3      H1            -25.9045339585       24.4251805231       36.5807826655  TIP3      2312            0.0000000000
     29188      2504  TIP3      H2            -24.6939635448       23.7318637878       37.1412851710  TIP3      2312            0.0000000000
     29189      2505  TIP3      OH2           -23.3033763837       22.9850123973       38.3851427314  TIP3      2313            0.0000000000
     29190      2505  TIP3      H1            -23.4753125729       22.0157459715       38.3899557777  TIP3      2313            0.0000000000
     29191      2505  TIP3      H2            -23.6579708723       23.2601591167       39.2535142314  TIP3      2313            0.0000000000
     29192      2506  TIP3      OH2           -33.4550654079       24.2332100581       37.5164702975  TIP3      2314            0.0000000000
     29193      2506  TIP3      H1            -33.3503685037       23.4991924124       36.8852063932  TIP3      2314            0.0000000000
     29194      2506  TIP3      H2            -33.6718488997       23.7758919879       38.3490726461  TIP3      2314            0.0000000000
     29195      2507  TIP3      OH2           -28.7766401157       20.2183967218       36.3975644138  TIP3      2315            0.0000000000
     29196      2507  TIP3      H1            -28.0313083962       19.5916596088       36.4455276798  TIP3      2315            0.0000000000
     29197      2507  TIP3      H2            -28.8289223643       20.4143044330       35.4511115619  TIP3      2315            0.0000000000
     29198      2508  TIP3      OH2           -29.1768317158       21.8622844973       38.4530380719  TIP3      2316            0.0000000000
     29199      2508  TIP3      H1            -28.6068712365       21.4714229435       37.7416212535  TIP3      2316            0.0000000000
     29200      2508  TIP3      H2            -29.0304327212       22.8182038631       38.3426400638  TIP3      2316            0.0000000000
     29201      2509  TIP3      OH2           -20.0944015137       33.0451176557       38.6721214012  TIP3      2317            0.0000000000
     29202      2509  TIP3      H1            -21.0588524319       32.9454954716       38.8707970121  TIP3      2317            0.0000000000
     29203      2509  TIP3      H2            -19.8064789662       33.8726617698       39.1065224028  TIP3      2317            0.0000000000
     29204      2510  TIP3      OH2           -18.5132508783       29.4324895254       25.8925445858  TIP3      2318            0.0000000000
     29205      2510  TIP3      H1            -19.2564875690       28.9145333451       26.2724710714  TIP3      2318            0.0000000000
     29206      2510  TIP3      H2            -17.9186208367       29.5363840481       26.6605649225  TIP3      2318            0.0000000000
     29207      2511  TIP3      OH2           -18.7784190883       32.1162317969       30.8810599301  TIP3      2319            0.0000000000
     29208      2511  TIP3      H1            -17.9498686277       31.7329663893       30.5352391394  TIP3      2319            0.0000000000
     29209      2511  TIP3      H2            -18.5900576923       33.0704067921       30.8045655921  TIP3      2319            0.0000000000
     29210      2512  TIP3      OH2           -20.2615518878       35.0429348202       33.1886495579  TIP3      2320            0.0000000000
     29211      2512  TIP3      H1            -20.9639925686       35.3409316188       33.7751238055  TIP3      2320            0.0000000000
     29212      2512  TIP3      H2            -20.7738580444       34.6224569736       32.4704288405  TIP3      2320            0.0000000000
     29213      2513  TIP3      OH2           -18.2588809282       29.2720647915       22.3029355888  TIP3      2321            0.0000000000
     29214      2513  TIP3      H1            -18.7951568053       29.6286026441       21.5988615449  TIP3      2321            0.0000000000
     29215      2513  TIP3      H2            -18.2778571936       29.9141406937       23.0166339599  TIP3      2321            0.0000000000
     29216      2514  TIP3      OH2           -20.7168509822       27.8999338854       26.4745000038  TIP3      2322            0.0000000000
     29217      2514  TIP3      H1            -20.8717359568       26.9440897307       26.4493360598  TIP3      2322            0.0000000000
     29218      2514  TIP3      H2            -21.0256835971       28.1232427783       27.3692568652  TIP3      2322            0.0000000000
     29219      2515  TIP3      OH2           -35.6755043398       29.9710593674       30.4650385655  TIP3      2323            0.0000000000
     29220      2515  TIP3      H1            -35.4741854290       29.9263685192       29.5084066550  TIP3      2323            0.0000000000
     29221      2515  TIP3      H2            -34.7945847854       29.8557619740       30.8848448713  TIP3      2323            0.0000000000
     29222      2516  TIP3      OH2           -19.8136280723       29.8287282989       36.1260884534  TIP3      2324            0.0000000000
     29223      2516  TIP3      H1            -19.2057086881       29.0976327403       36.3226654877  TIP3      2324            0.0000000000
     29224      2516  TIP3      H2            -19.2692744096       30.6368580344       36.2010243456  TIP3      2324            0.0000000000
     29225      2517  TIP3      OH2           -18.3115247168       27.7289247119       36.8336096328  TIP3      2325            0.0000000000
     29226      2517  TIP3      H1            -19.2098590669       27.3590520916       36.6748635029  TIP3      2325            0.0000000000
     29227      2517  TIP3      H2            -17.7636206474       26.9341998353       36.7429461449  TIP3      2325            0.0000000000
     29228      2518  TIP3      OH2           -21.0204958114       25.4571860536       24.9484255497  TIP3      2326            0.0000000000
     29229      2518  TIP3      H1            -20.7359870337       24.5190574273       25.0576210474  TIP3      2326            0.0000000000
     29230      2518  TIP3      H2            -20.2218354593       25.8620582846       24.5811071172  TIP3      2326            0.0000000000
     29231      2519  TIP3      OH2           -20.3916424116       26.0229967646       30.3860337342  TIP3      2327            0.0000000000
     29232      2519  TIP3      H1            -19.4316181776       26.2555597634       30.3694046262  TIP3      2327            0.0000000000
     29233      2519  TIP3      H2            -20.5804261982       26.1659130152       31.3258150430  TIP3      2327            0.0000000000
     29234      2520  TIP3      OH2           -20.3161739916       26.7493236880       33.1783532919  TIP3      2328            0.0000000000
     29235      2520  TIP3      H1            -21.2052681505       27.0445832367       33.4915064685  TIP3      2328            0.0000000000
     29236      2520  TIP3      H2            -19.8924505716       27.6090575837       32.9452881179  TIP3      2328            0.0000000000
     29237      2521  TIP3      OH2           -35.8035011641       25.1541435159       36.6769889166  TIP3      2329            0.0000000000
     29238      2521  TIP3      H1            -34.9174742169       24.9687975567       37.0160498038  TIP3      2329            0.0000000000
     29239      2521  TIP3      H2            -36.3811081821       24.4705065795       37.0981650283  TIP3      2329            0.0000000000
     29240      2522  TIP3      OH2           -18.0527987116       20.8106204086       38.5070038796  TIP3      2330            0.0000000000
     29241      2522  TIP3      H1            -17.7027137287       20.1490732490       37.8856485501  TIP3      2330            0.0000000000
     29242      2522  TIP3      H2            -17.9536008285       21.6251287185       37.9741543311  TIP3      2330            0.0000000000
     29243      2523  TIP3      OH2           -20.3800527733       22.7835190939       24.9710416423  TIP3      2331            0.0000000000
     29244      2523  TIP3      H1            -20.1530010807       22.3290555806       25.8035336176  TIP3      2331            0.0000000000
     29245      2523  TIP3      H2            -20.9669163539       22.1269635992       24.5310359566  TIP3      2331            0.0000000000
     29246      2524  TIP3      OH2           -34.8363961851       23.5267455679       29.4989097905  TIP3      2332            0.0000000000
     29247      2524  TIP3      H1            -34.3741655925       22.7379859124       29.8359781249  TIP3      2332            0.0000000000
     29248      2524  TIP3      H2            -34.3413966182       24.2448411321       29.9280701124  TIP3      2332            0.0000000000
     29249      2525  TIP3      OH2           -36.0150203648       27.3304142840       30.9437166965  TIP3      2333            0.0000000000
     29250      2525  TIP3      H1            -35.9827262313       26.9014501477       30.0631378366  TIP3      2333            0.0000000000
     29251      2525  TIP3      H2            -35.9410874532       28.2458120358       30.6645466876  TIP3      2333            0.0000000000
     29252      2526  TIP3      OH2           -18.5312829015       22.9071062418       36.8613839837  TIP3      2334            0.0000000000
     29253      2526  TIP3      H1            -19.4682110458       23.1785292031       36.8046727576  TIP3      2334            0.0000000000
     29254      2526  TIP3      H2            -18.5000818880       22.3567736934       36.0646286092  TIP3      2334            0.0000000000
     29255      2527  TIP3      OH2           -35.7090619468       22.9165511620       24.3714788216  TIP3      2335            0.0000000000
     29256      2527  TIP3      H1            -36.6805816967       22.9835571192       24.3877492919  TIP3      2335            0.0000000000
     29257      2527  TIP3      H2            -35.5445322532       23.5573267830       23.6500717923  TIP3      2335            0.0000000000
     29258      2528  TIP3      OH2            37.0297484983       21.4556272574       33.1667503496  TIP3      2336            0.0000000000
     29259      2528  TIP3      H1             36.2418162411       21.2459518611       33.6927511114  TIP3      2336            0.0000000000
     29260      2528  TIP3      H2             36.5482041034       21.9701413605       32.4954228689  TIP3      2336            0.0000000000
     29261      2529  TIP3      OH2           -34.0974295987       34.7588983478       37.1235449120  TIP3      2337            0.0000000000
     29262      2529  TIP3      H1            -34.9609528568       34.8922672243       36.7185265601  TIP3      2337            0.0000000000
     29263      2529  TIP3      H2            -34.3177129294       34.5816405471       38.0440197694  TIP3      2337            0.0000000000
     29264      2530  TIP3      OH2           -31.0477253563       35.7137183587       33.4967534043  TIP3      2338            0.0000000000
     29265      2530  TIP3      H1            -31.5548100646       36.4414655509       33.0928295702  TIP3      2338            0.0000000000
     29266      2530  TIP3      H2            -30.2205928462       35.6761118586       33.0063816700  TIP3      2338            0.0000000000
     29267      2531  TIP3      OH2           -19.5138964259       20.9977814147       34.7155819348  TIP3      2339            0.0000000000
     29268      2531  TIP3      H1            -20.3409571053       21.3002664731       34.3007858382  TIP3      2339            0.0000000000
     29269      2531  TIP3      H2            -19.3460545702       20.1759594907       34.1975280910  TIP3      2339            0.0000000000
     29270      2532  TIP3      OH2           -31.9291849750       36.0185133940       28.7687762194  TIP3      2340            0.0000000000
     29271      2532  TIP3      H1            -32.3522476982       35.2801609414       29.2393195574  TIP3      2340            0.0000000000
     29272      2532  TIP3      H2            -31.3532189538       36.3929444782       29.4587108874  TIP3      2340            0.0000000000
     29273      2533  TIP3      OH2           -26.1323267518       22.4401436166       28.9650543285  TIP3      2341            0.0000000000
     29274      2533  TIP3      H1            -26.7930732655       21.7954151497       29.2734841888  TIP3      2341            0.0000000000
     29275      2533  TIP3      H2            -25.5538018292       21.8924749854       28.4258111634  TIP3      2341            0.0000000000
     29276      2534  TIP3      OH2           -20.9931256888       20.4635514056       29.0483473058  TIP3      2342            0.0000000000
     29277      2534  TIP3      H1            -20.3803100429       21.0734577351       28.5656046876  TIP3      2342            0.0000000000
     29278      2534  TIP3      H2            -21.8742475874       20.8311710477       28.8331593889  TIP3      2342            0.0000000000
     29279      2535  TIP3      OH2           -19.3167658304       21.7183357634       27.3478089851  TIP3      2343            0.0000000000
     29280      2535  TIP3      H1            -18.6344373349       21.1486037807       26.9363015504  TIP3      2343            0.0000000000
     29281      2535  TIP3      H2            -18.8237417312       22.5629747155       27.4657878157  TIP3      2343            0.0000000000
     29282      2536  TIP3      OH2           -33.7470149487       21.0467362272       26.8801920096  TIP3      2344            0.0000000000
     29283      2536  TIP3      H1            -34.5484790985       20.8319344898       26.3570140570  TIP3      2344            0.0000000000
     29284      2536  TIP3      H2            -33.2549379311       20.2070014904       26.7933426167  TIP3      2344            0.0000000000
     29285      2537  TIP3      OH2           -29.2608596454       20.9616942457       26.5979065957  TIP3      2345            0.0000000000
     29286      2537  TIP3      H1            -28.3853521604       21.3859148598       26.5618468825  TIP3      2345            0.0000000000
     29287      2537  TIP3      H2            -29.3112289391       20.7598477937       27.5379173204  TIP3      2345            0.0000000000
     29288      2538  TIP3      OH2           -23.5839946375       20.9987194256       28.2817963304  TIP3      2346            0.0000000000
     29289      2538  TIP3      H1            -23.6160254762       21.1231443063       27.3253472789  TIP3      2346            0.0000000000
     29290      2538  TIP3      H2            -23.9536675334       20.0891726839       28.4100363304  TIP3      2346            0.0000000000
     29291      2539  TIP3      OH2           -22.3223773626       21.0102468969       24.1085440243  TIP3      2347            0.0000000000
     29292      2539  TIP3      H1            -22.9479338139       21.6092989877       23.6812129301  TIP3      2347            0.0000000000
     29293      2539  TIP3      H2            -22.7598437101       20.1597552495       24.0926850239  TIP3      2347            0.0000000000
     29294      2540  TIP3      OH2           -33.9197167020       21.6149634934       36.3355646983  TIP3      2348            0.0000000000
     29295      2540  TIP3      H1            -34.2399717347       20.7644397422       36.6903492381  TIP3      2348            0.0000000000
     29296      2540  TIP3      H2            -32.9914108378       21.5549992233       36.6719022758  TIP3      2348            0.0000000000
     29297      2541  TIP3      OH2           -31.8877900986       20.9661800086       37.9291923482  TIP3      2349            0.0000000000
     29298      2541  TIP3      H1            -30.9671342162       20.6827306501       37.7257609934  TIP3      2349            0.0000000000
     29299      2541  TIP3      H2            -32.2499484309       20.1516568251       38.3161657975  TIP3      2349            0.0000000000
     29300      2542  TIP3      OH2           -23.4355271510       20.2454383541       38.0703582710  TIP3      2350            0.0000000000
     29301      2542  TIP3      H1            -23.3936820946       19.8038124566       38.9418985688  TIP3      2350            0.0000000000
     29302      2542  TIP3      H2            -22.5187680328       20.2228835661       37.7614795057  TIP3      2350            0.0000000000
     29303      2543  TIP3      OH2           -20.3994191674      -36.7417179737       36.8887553569  TIP3      2351            0.0000000000
     29304      2543  TIP3      H1            -21.0451911433      -36.9129026985       36.1922745471  TIP3      2351            0.0000000000
     29305      2543  TIP3      H2            -20.3262143189      -35.7788548737       36.8753583335  TIP3      2351            0.0000000000
     29306      2544  TIP3      OH2            -5.8198566326       30.1569186849       26.6905586302  TIP3      2352            0.0000000000
     29307      2544  TIP3      H1             -5.8286997082       31.1436154503       26.6687163430  TIP3      2352            0.0000000000
     29308      2544  TIP3      H2             -6.5468245783       29.9340688695       26.0852118566  TIP3      2352            0.0000000000
     29309      2545  TIP3      OH2            -6.9546150581       29.4446224780       30.2009821115  TIP3      2353            0.0000000000
     29310      2545  TIP3      H1             -6.9663843901       28.7956311396       30.9196253915  TIP3      2353            0.0000000000
     29311      2545  TIP3      H2             -7.3048689153       28.9401255122       29.4453093438  TIP3      2353            0.0000000000
     29312      2546  TIP3      OH2           -14.6035935149       29.1227089680       31.7584288335  TIP3      2354            0.0000000000
     29313      2546  TIP3      H1            -14.5176312507       28.4349502659       32.4513179802  TIP3      2354            0.0000000000
     29314      2546  TIP3      H2            -13.8524362513       29.6921329372       31.9794892921  TIP3      2354            0.0000000000
     29315      2547  TIP3      OH2            -3.3165157203       32.3902941449       28.5000331329  TIP3      2355            0.0000000000
     29316      2547  TIP3      H1             -3.6736327416       31.6592301297       29.0045432590  TIP3      2355            0.0000000000
     29317      2547  TIP3      H2             -3.2216510347       33.0968852453       29.1663900273  TIP3      2355            0.0000000000
     29318      2548  TIP3      OH2           -13.6601006915       33.5744315159       30.2838915879  TIP3      2356            0.0000000000
     29319      2548  TIP3      H1            -13.9937959461       32.7203245663       29.9383649351  TIP3      2356            0.0000000000
     29320      2548  TIP3      H2            -12.7074257749       33.3800782217       30.2921887658  TIP3      2356            0.0000000000
     29321      2549  TIP3      OH2           -17.0341033978       27.1499025376       25.7321713298  TIP3      2357            0.0000000000
     29322      2549  TIP3      H1            -17.4809984815       28.0183656875       25.6890968059  TIP3      2357            0.0000000000
     29323      2549  TIP3      H2            -17.5933761451       26.6006998254       25.1690399998  TIP3      2357            0.0000000000
     29324      2550  TIP3      OH2           -16.3183397446       29.3441781408       27.8992212931  TIP3      2358            0.0000000000
     29325      2550  TIP3      H1            -16.0521726065       28.5222164436       28.3541099299  TIP3      2358            0.0000000000
     29326      2550  TIP3      H2            -15.6180729195       29.4438422384       27.2368889309  TIP3      2358            0.0000000000
     29327      2551  TIP3      OH2            -8.6069845964       31.8208083938       30.6730452166  TIP3      2359            0.0000000000
     29328      2551  TIP3      H1             -8.2447752243       31.2163752721       30.0060227509  TIP3      2359            0.0000000000
     29329      2551  TIP3      H2             -7.7911057505       32.0205456638       31.1738697483  TIP3      2359            0.0000000000
     29330      2552  TIP3      OH2             0.0141048365       23.5089206927       31.3991821020  TIP3      2360            0.0000000000
     29331      2552  TIP3      H1              0.1946175204       24.0929309620       32.1664828743  TIP3      2360            0.0000000000
     29332      2552  TIP3      H2              0.5851851028       23.9274824541       30.7394596929  TIP3      2360            0.0000000000
     29333      2553  TIP3      OH2            -5.4123116600       26.3128207350       30.9904653646  TIP3      2361            0.0000000000
     29334      2553  TIP3      H1             -5.2442121014       25.3540013377       30.9958240423  TIP3      2361            0.0000000000
     29335      2553  TIP3      H2             -5.5144932099       26.4542752638       30.0298794932  TIP3      2361            0.0000000000
     29336      2554  TIP3      OH2           -12.3089887209       24.4034648040       28.2018487544  TIP3      2362            0.0000000000
     29337      2554  TIP3      H1            -12.1896786041       25.2430201244       27.7194962187  TIP3      2362            0.0000000000
     29338      2554  TIP3      H2            -12.7057727118       23.8394742288       27.5121887840  TIP3      2362            0.0000000000
     29339      2555  TIP3      OH2            -4.5700176655       24.4972066922       26.5787998980  TIP3      2363            0.0000000000
     29340      2555  TIP3      H1             -3.9189089893       24.1614166647       27.2433248586  TIP3      2363            0.0000000000
     29341      2555  TIP3      H2             -3.9817740879       25.0515832754       26.0378063113  TIP3      2363            0.0000000000
     29342      2556  TIP3      OH2           -15.6750245540       26.8112050460       28.9384373207  TIP3      2364            0.0000000000
     29343      2556  TIP3      H1            -15.0037707265       26.2702342426       29.3941827904  TIP3      2364            0.0000000000
     29344      2556  TIP3      H2            -15.5678471601       26.4996301511       28.0268184692  TIP3      2364            0.0000000000
     29345      2557  TIP3      OH2           -10.5291123919       28.3677348523       28.2995328692  TIP3      2365            0.0000000000
     29346      2557  TIP3      H1             -9.8355504452       27.7885223668       28.6532486751  TIP3      2365            0.0000000000
     29347      2557  TIP3      H2            -11.0179070215       27.7299221294       27.7386138802  TIP3      2365            0.0000000000
     29348      2558  TIP3      OH2             0.4574184698       24.9080868661       33.6790373178  TIP3      2366            0.0000000000
     29349      2558  TIP3      H1             -0.1477987673       25.6770993357       33.5657298616  TIP3      2366            0.0000000000
     29350      2558  TIP3      H2              0.4907909131       24.8314441981       34.6390373169  TIP3      2366            0.0000000000
     29351      2559  TIP3      OH2           -13.3887916315       23.3012023030       32.2444284383  TIP3      2367            0.0000000000
     29352      2559  TIP3      H1            -13.6691159690       23.8800893600       31.5030137156  TIP3      2367            0.0000000000
     29353      2559  TIP3      H2            -14.0658538863       23.5290670010       32.9273379841  TIP3      2367            0.0000000000
     29354      2560  TIP3      OH2            -6.1068174829       32.7655132836       25.8188392858  TIP3      2368            0.0000000000
     29355      2560  TIP3      H1             -6.3650753170       32.5256490318       24.9252551255  TIP3      2368            0.0000000000
     29356      2560  TIP3      H2             -6.4052080956       33.6939366048       25.8649463206  TIP3      2368            0.0000000000
     29357      2561  TIP3      OH2           -10.8622421485       30.9336875384       32.5039334890  TIP3      2369            0.0000000000
     29358      2561  TIP3      H1            -11.5756219840       31.5744594226       32.7087466250  TIP3      2369            0.0000000000
     29359      2561  TIP3      H2            -10.1583453964       31.5273266179       32.1979641455  TIP3      2369            0.0000000000
     29360      2562  TIP3      OH2            -2.7765247191       23.8474067822       28.5685296686  TIP3      2370            0.0000000000
     29361      2562  TIP3      H1             -2.9696571807       23.0658855534       29.0958261691  TIP3      2370            0.0000000000
     29362      2562  TIP3      H2             -2.0813018938       24.2707705010       29.0986904313  TIP3      2370            0.0000000000
     29363      2563  TIP3      OH2           -13.8180600911       25.1548932724       30.2821753686  TIP3      2371            0.0000000000
     29364      2563  TIP3      H1            -13.1915378124       25.8467378570       30.5892374699  TIP3      2371            0.0000000000
     29365      2563  TIP3      H2            -13.3030281011       24.7477175560       29.5422251773  TIP3      2371            0.0000000000
     29366      2564  TIP3      OH2           -12.4151217686       32.9449978816       33.2893383668  TIP3      2372            0.0000000000
     29367      2564  TIP3      H1            -12.4767131018       33.8435732049       32.9310850732  TIP3      2372            0.0000000000
     29368      2564  TIP3      H2            -13.3020966379       32.8565159907       33.7189808010  TIP3      2372            0.0000000000
     29369      2565  TIP3      OH2            -2.7539663916       34.2390537363       30.8828098231  TIP3      2373            0.0000000000
     29370      2565  TIP3      H1             -3.7237842954       34.3391516798       31.0319414762  TIP3      2373            0.0000000000
     29371      2565  TIP3      H2             -2.4435751840       35.1335757099       30.6484707569  TIP3      2373            0.0000000000
     29372      2566  TIP3      OH2            -2.4182623538       22.5135935961       32.2451744179  TIP3      2374            0.0000000000
     29373      2566  TIP3      H1             -3.1409397233       23.1480685756       32.1532265847  TIP3      2374            0.0000000000
     29374      2566  TIP3      H2             -1.7030838176       22.9335313930       31.7228646070  TIP3      2374            0.0000000000
     29375      2567  TIP3      OH2            -9.4528406902       20.6379008550       29.7034870060  TIP3      2375            0.0000000000
     29376      2567  TIP3      H1             -9.5871852037       19.6737974125       29.6447359605  TIP3      2375            0.0000000000
     29377      2567  TIP3      H2            -10.3225792460       20.9451406450       30.0303299606  TIP3      2375            0.0000000000
     29378      2568  TIP3      OH2            -4.4836804038       35.7219283580       27.2063428415  TIP3      2376            0.0000000000
     29379      2568  TIP3      H1             -3.8543444046       35.0938045983       26.7922639101  TIP3      2376            0.0000000000
     29380      2568  TIP3      H2             -4.0398101110       36.5432305962       27.0266537738  TIP3      2376            0.0000000000
     29381      2569  TIP3      OH2            -3.2582116096       33.8697196668       25.9324424285  TIP3      2377            0.0000000000
     29382      2569  TIP3      H1             -3.5305161179       33.1705617547       25.3344274160  TIP3      2377            0.0000000000
     29383      2569  TIP3      H2             -3.2015856908       33.4058779646       26.7929302628  TIP3      2377            0.0000000000
     29384      2570  TIP3      OH2            -1.4443032528       32.4945717152       34.4121107369  TIP3      2378            0.0000000000
     29385      2570  TIP3      H1             -1.5121543295       31.8730227512       33.6694505434  TIP3      2378            0.0000000000
     29386      2570  TIP3      H2             -1.4713634278       33.3829179103       34.0228083583  TIP3      2378            0.0000000000
     29387      2571  TIP3      OH2            -7.1065745482       29.4609627811       24.2345020418  TIP3      2379            0.0000000000
     29388      2571  TIP3      H1             -7.8850379882       29.9103075825       23.8556615528  TIP3      2379            0.0000000000
     29389      2571  TIP3      H2             -6.4798780037       29.5488517662       23.5059776085  TIP3      2379            0.0000000000
     29390      2572  TIP3      OH2             0.2360447900       28.8464236799       32.4991111965  TIP3      2380            0.0000000000
     29391      2572  TIP3      H1             -0.4207257115       29.5722546056       32.5375572344  TIP3      2380            0.0000000000
     29392      2572  TIP3      H2              0.7328723773       29.0860095445       31.6949975104  TIP3      2380            0.0000000000
     29393      2573  TIP3      OH2            -3.7268143702       29.6489238199       25.1418680782  TIP3      2381            0.0000000000
     29394      2573  TIP3      H1             -4.4534873740       29.8847921069       25.7624172613  TIP3      2381            0.0000000000
     29395      2573  TIP3      H2             -3.2293833818       28.9869921105       25.6497837441  TIP3      2381            0.0000000000
     29396      2574  TIP3      OH2            -3.7788420860       27.7984202723       34.2701608852  TIP3      2382            0.0000000000
     29397      2574  TIP3      H1             -3.7649784514       28.6204191618       34.7883551176  TIP3      2382            0.0000000000
     29398      2574  TIP3      H2             -4.4022504479       28.0988697225       33.5756667195  TIP3      2382            0.0000000000
     29399      2575  TIP3      OH2           -12.1157238567       30.2972413514       27.0692304827  TIP3      2383            0.0000000000
     29400      2575  TIP3      H1            -12.3908222376       29.9178958226       26.1950194622  TIP3      2383            0.0000000000
     29401      2575  TIP3      H2            -11.4737855163       29.6198962148       27.3758034735  TIP3      2383            0.0000000000
     29402      2576  TIP3      OH2           -10.7780988929       33.7012813744       29.7420036207  TIP3      2384            0.0000000000
     29403      2576  TIP3      H1            -10.7759183875       33.1649702563       28.9383104506  TIP3      2384            0.0000000000
     29404      2576  TIP3      H2             -9.9994857069       33.3317736566       30.2001889804  TIP3      2384            0.0000000000
     29405      2577  TIP3      OH2           -11.7662581770       29.0473169306       30.7252836377  TIP3      2385            0.0000000000
     29406      2577  TIP3      H1            -11.2158225766       29.1408749574       29.9203573773  TIP3      2385            0.0000000000
     29407      2577  TIP3      H2            -11.3689312899       29.7121190678       31.3296775058  TIP3      2385            0.0000000000
     29408      2578  TIP3      OH2            -5.3292452927       34.6152686660       31.4550901609  TIP3      2386            0.0000000000
     29409      2578  TIP3      H1             -5.6473729534       35.2210593611       32.1202882983  TIP3      2386            0.0000000000
     29410      2578  TIP3      H2             -5.6089282780       33.7567563179       31.8559501720  TIP3      2386            0.0000000000
     29411      2579  TIP3      OH2           -10.8318561446       33.4662451256       35.4230504110  TIP3      2387            0.0000000000
     29412      2579  TIP3      H1            -11.2223348744       34.2313957677       35.8947699134  TIP3      2387            0.0000000000
     29413      2579  TIP3      H2            -11.4908650701       33.2493572544       34.7120656004  TIP3      2387            0.0000000000
     29414      2580  TIP3      OH2           -13.8716360649       29.6359085505       34.5708615659  TIP3      2388            0.0000000000
     29415      2580  TIP3      H1            -13.8157865591       30.3040028914       35.2767939044  TIP3      2388            0.0000000000
     29416      2580  TIP3      H2            -14.8146670087       29.7238069981       34.3585747497  TIP3      2388            0.0000000000
     29417      2581  TIP3      OH2            -7.1614089617       35.5433432437       26.2260946784  TIP3      2389            0.0000000000
     29418      2581  TIP3      H1             -6.6737848861       35.8020678584       27.0308478508  TIP3      2389            0.0000000000
     29419      2581  TIP3      H2             -7.6873924336       36.3271094053       26.0540840824  TIP3      2389            0.0000000000
     29420      2582  TIP3      OH2           -12.5955172983       35.4600573709       36.1503402296  TIP3      2390            0.0000000000
     29421      2582  TIP3      H1            -12.6435604303       35.3786356935       35.1718765900  TIP3      2390            0.0000000000
     29422      2582  TIP3      H2            -13.5282188865       35.3251410222       36.4094323206  TIP3      2390            0.0000000000
     29423      2583  TIP3      OH2           -13.1495638448       29.3194572712       24.7385844808  TIP3      2391            0.0000000000
     29424      2583  TIP3      H1            -13.3267060037       30.0721829716       24.1464782542  TIP3      2391            0.0000000000
     29425      2583  TIP3      H2            -13.7571805165       28.6472758864       24.4139980980  TIP3      2391            0.0000000000
     29426      2584  TIP3      OH2             0.0379034426       34.9747632582       21.0281382188  TIP3      2392            0.0000000000
     29427      2584  TIP3      H1              0.1154294817       35.8934191536       21.3122701635  TIP3      2392            0.0000000000
     29428      2584  TIP3      H2              0.9307959922       34.5973275424       21.0672695597  TIP3      2392            0.0000000000
     29429      2585  TIP3      OH2           -17.0292416601       31.7552274085       33.5571100093  TIP3      2393            0.0000000000
     29430      2585  TIP3      H1            -17.4843518214       31.6595880375       32.7053551139  TIP3      2393            0.0000000000
     29431      2585  TIP3      H2            -16.9533789115       30.8085288694       33.7892702928  TIP3      2393            0.0000000000
     29432      2586  TIP3      OH2           -17.2525802167       34.4669762439       30.3617667454  TIP3      2394            0.0000000000
     29433      2586  TIP3      H1            -16.2910877327       34.3838363681       30.3011575781  TIP3      2394            0.0000000000
     29434      2586  TIP3      H2            -17.3195427061       35.2728534173       30.9003556454  TIP3      2394            0.0000000000
     29435      2587  TIP3      OH2             0.9548300970       35.1791096167       36.1208827495  TIP3      2395            0.0000000000
     29436      2587  TIP3      H1              0.8208066982       34.2280016042       35.9780325803  TIP3      2395            0.0000000000
     29437      2587  TIP3      H2              0.0532563349       35.4399086694       36.4208413989  TIP3      2395            0.0000000000
     29438      2588  TIP3      OH2            -8.1783885059       34.7716035649       34.8535038528  TIP3      2396            0.0000000000
     29439      2588  TIP3      H1             -7.9689940381       35.5299152445       35.4129198706  TIP3      2396            0.0000000000
     29440      2588  TIP3      H2             -8.9662728715       34.3388750369       35.2131278245  TIP3      2396            0.0000000000
     29441      2589  TIP3      OH2            -1.8868744874       26.6556788435       36.5067825804  TIP3      2397            0.0000000000
     29442      2589  TIP3      H1             -2.3644443411       27.1054798462       35.7917523361  TIP3      2397            0.0000000000
     29443      2589  TIP3      H2             -1.9039658981       25.7363584971       36.2031869855  TIP3      2397            0.0000000000
     29444      2590  TIP3      OH2           -14.7490832303       33.0821400685       34.5203104808  TIP3      2398            0.0000000000
     29445      2590  TIP3      H1            -14.5428505994       32.6907449914       35.3947633127  TIP3      2398            0.0000000000
     29446      2590  TIP3      H2            -15.6097981262       32.6809617428       34.2869847551  TIP3      2398            0.0000000000
     29447      2591  TIP3      OH2           -12.0719363091       21.5320462839       30.4422427225  TIP3      2399            0.0000000000
     29448      2591  TIP3      H1            -12.9811918160       21.4086279342       30.0978960472  TIP3      2399            0.0000000000
     29449      2591  TIP3      H2            -12.2002465843       22.3575688558       30.9379144507  TIP3      2399            0.0000000000
     29450      2592  TIP3      OH2            -7.4244576282       21.2039329388       33.8218349149  TIP3      2400            0.0000000000
     29451      2592  TIP3      H1             -7.0320457899       20.7822975535       34.6090921002  TIP3      2400            0.0000000000
     29452      2592  TIP3      H2             -8.3964943565       21.0891117903       33.9693757585  TIP3      2400            0.0000000000
     29453      2593  TIP3      OH2            -4.1436116384       25.0447258346       34.6949844372  TIP3      2401            0.0000000000
     29454      2593  TIP3      H1             -4.6918414059       24.8380658983       35.4932480649  TIP3      2401            0.0000000000
     29455      2593  TIP3      H2             -4.3186020089       25.9760940255       34.4869767587  TIP3      2401            0.0000000000
     29456      2594  TIP3      OH2            -7.8515587410       23.7935994600       21.1409305053  TIP3      2402            0.0000000000
     29457      2594  TIP3      H1             -8.0976136517       23.7241512889       22.0882971894  TIP3      2402            0.0000000000
     29458      2594  TIP3      H2             -8.0143022644       22.8812757484       20.8759078612  TIP3      2402            0.0000000000
     29459      2595  TIP3      OH2           -11.9616509201       26.5146030842       31.7271318751  TIP3      2403            0.0000000000
     29460      2595  TIP3      H1            -12.7052505851       26.5042376237       32.3551985430  TIP3      2403            0.0000000000
     29461      2595  TIP3      H2            -12.0129528371       27.4196243825       31.3440275321  TIP3      2403            0.0000000000
     29462      2596  TIP3      OH2           -12.0051635584       26.6014602722       26.5980140803  TIP3      2404            0.0000000000
     29463      2596  TIP3      H1            -12.9461026750       26.3869453764       26.4344063713  TIP3      2404            0.0000000000
     29464      2596  TIP3      H2            -11.6013676580       26.4040227782       25.7455320729  TIP3      2404            0.0000000000
     29465      2597  TIP3      OH2            -6.4862922725       27.1165636214       25.3509295553  TIP3      2405            0.0000000000
     29466      2597  TIP3      H1             -6.9133842601       27.9351656961       25.0101161705  TIP3      2405            0.0000000000
     29467      2597  TIP3      H2             -5.8024252424       27.0001131616       24.6926746862  TIP3      2405            0.0000000000
     29468      2598  TIP3      OH2            -7.4321805590       27.3425715989       36.7874319771  TIP3      2406            0.0000000000
     29469      2598  TIP3      H1             -7.9565092211       26.5657936017       37.0970868126  TIP3      2406            0.0000000000
     29470      2598  TIP3      H2             -6.5930135695       27.2194879490       37.2627388644  TIP3      2406            0.0000000000
     29471      2599  TIP3      OH2            -5.4478724148       26.6330053838       28.1786345599  TIP3      2407            0.0000000000
     29472      2599  TIP3      H1             -5.7445714174       27.1866504086       27.4395487562  TIP3      2407            0.0000000000
     29473      2599  TIP3      H2             -5.3635913872       25.7691339567       27.7318400995  TIP3      2407            0.0000000000
     29474      2600  TIP3      OH2           -14.3437819052       26.7615197556       33.3943124168  TIP3      2408            0.0000000000
     29475      2600  TIP3      H1            -14.2609214463       27.1701523978       34.2734508425  TIP3      2408            0.0000000000
     29476      2600  TIP3      H2            -14.7841663838       25.9229743020       33.6066102603  TIP3      2408            0.0000000000
     29477      2601  TIP3      OH2           -17.6846002172       23.8520051889       27.3711166011  TIP3      2409            0.0000000000
     29478      2601  TIP3      H1            -17.0088799678       23.8369555976       28.0788258785  TIP3      2409            0.0000000000
     29479      2601  TIP3      H2            -17.2263331450       23.4875049226       26.5932853395  TIP3      2409            0.0000000000
     29480      2602  TIP3      OH2           -16.3877857692       24.6912103459       22.8425038981  TIP3      2410            0.0000000000
     29481      2602  TIP3      H1            -15.9462346395       25.1699020958       22.1129771428  TIP3      2410            0.0000000000
     29482      2602  TIP3      H2            -17.1245072417       25.2884963593       23.0430780279  TIP3      2410            0.0000000000
     29483      2603  TIP3      OH2            -6.2587770003       28.2044653137       32.7477409790  TIP3      2411            0.0000000000
     29484      2603  TIP3      H1             -5.8738136357       27.5203557076       32.1635015570  TIP3      2411            0.0000000000
     29485      2603  TIP3      H2             -6.7221443537       27.6768291700       33.4211418655  TIP3      2411            0.0000000000
     29486      2604  TIP3      OH2            -9.4501626828       24.1883490246       27.5863613052  TIP3      2412            0.0000000000
     29487      2604  TIP3      H1            -10.3796089408       24.1954899032       27.8864711309  TIP3      2412            0.0000000000
     29488      2604  TIP3      H2             -8.9635532843       24.0135341244       28.4058851235  TIP3      2412            0.0000000000
     29489      2605  TIP3      OH2           -14.6479257361       25.7278972960       26.4214354546  TIP3      2413            0.0000000000
     29490      2605  TIP3      H1            -15.5386632594       25.8852936613       26.0345328598  TIP3      2413            0.0000000000
     29491      2605  TIP3      H2            -14.3839558087       24.8816634540       26.0221387297  TIP3      2413            0.0000000000
     29492      2606  TIP3      OH2            -5.0509459334       23.4171834798       30.8290465455  TIP3      2414            0.0000000000
     29493      2606  TIP3      H1             -5.7329287892       23.4689923931       31.5343376240  TIP3      2414            0.0000000000
     29494      2606  TIP3      H2             -5.5573389803       23.1643796538       30.0444835071  TIP3      2414            0.0000000000
     29495      2607  TIP3      OH2           -14.1639007580       31.5733989874       36.7140772233  TIP3      2415            0.0000000000
     29496      2607  TIP3      H1            -13.4455463057       31.7738110645       37.3359230550  TIP3      2415            0.0000000000
     29497      2607  TIP3      H2            -14.9410264536       31.5939759492       37.3199839193  TIP3      2415            0.0000000000
     29498      2608  TIP3      OH2            -8.1599385869       26.9457169440       29.4929860324  TIP3      2416            0.0000000000
     29499      2608  TIP3      H1             -7.5674739664       26.4090302726       28.9533973383  TIP3      2416            0.0000000000
     29500      2608  TIP3      H2             -8.3176869937       26.3876680156       30.2651824741  TIP3      2416            0.0000000000
     29501      2609  TIP3      OH2           -13.1605366997       23.1131608878       25.8786199916  TIP3      2417            0.0000000000
     29502      2609  TIP3      H1            -13.4654937691       22.1926416737       25.9305872303  TIP3      2417            0.0000000000
     29503      2609  TIP3      H2            -12.3535880188       23.0043542631       25.3621230651  TIP3      2417            0.0000000000
     29504      2610  TIP3      OH2            -9.5295089916       25.2648462265       31.8958207412  TIP3      2418            0.0000000000
     29505      2610  TIP3      H1            -10.3548616918       25.7857834495       31.9801838303  TIP3      2418            0.0000000000
     29506      2610  TIP3      H2             -8.9757241019       25.6199924700       32.6147106823  TIP3      2418            0.0000000000
     29507      2611  TIP3      OH2            -1.7380079233       30.6645387575       32.3620556595  TIP3      2419            0.0000000000
     29508      2611  TIP3      H1             -1.1810599706       31.1952626164       31.7561112437  TIP3      2419            0.0000000000
     29509      2611  TIP3      H2             -2.6196237145       30.7574537223       31.9479581853  TIP3      2419            0.0000000000
     29510      2612  TIP3      OH2            -5.0436463630       24.3879028156       21.7845491285  TIP3      2420            0.0000000000
     29511      2612  TIP3      H1             -6.0057377905       24.4045425687       21.6240164084  TIP3      2420            0.0000000000
     29512      2612  TIP3      H2             -4.8241788168       25.2661030438       22.0851641385  TIP3      2420            0.0000000000
     29513      2613  TIP3      OH2            -7.4897268959       31.7801209053       34.8074942074  TIP3      2421            0.0000000000
     29514      2613  TIP3      H1             -7.7804947066       31.3498250251       35.6206922967  TIP3      2421            0.0000000000
     29515      2613  TIP3      H2             -7.6734059765       32.7078541163       34.9549743612  TIP3      2421            0.0000000000
     29516      2614  TIP3      OH2           -13.8310550844       30.8769657491       29.3975073653  TIP3      2422            0.0000000000
     29517      2614  TIP3      H1            -13.1392878378       30.8088609867       28.7084621848  TIP3      2422            0.0000000000
     29518      2614  TIP3      H2            -13.7690158016       30.0192762902       29.8479837838  TIP3      2422            0.0000000000
     29519      2615  TIP3      OH2           -16.8526151964       29.2987469328       34.6585357517  TIP3      2423            0.0000000000
     29520      2615  TIP3      H1            -16.6739591075       28.8478882972       35.5040161845  TIP3      2423            0.0000000000
     29521      2615  TIP3      H2            -17.4649581880       28.6823344024       34.2123617463  TIP3      2423            0.0000000000
     29522      2616  TIP3      OH2            -9.8315224617       28.8484100598       36.8270684844  TIP3      2424            0.0000000000
     29523      2616  TIP3      H1            -10.1504180435       28.5367869356       35.9674923569  TIP3      2424            0.0000000000
     29524      2616  TIP3      H2             -8.9083190613       28.5240463460       36.8251066818  TIP3      2424            0.0000000000
     29525      2617  TIP3      OH2            -5.5036591402       34.6547333884       34.4712000749  TIP3      2425            0.0000000000
     29526      2617  TIP3      H1             -6.3990681349       34.3060396749       34.5362088512  TIP3      2425            0.0000000000
     29527      2617  TIP3      H2             -5.1784245691       34.4490818927       35.3777744484  TIP3      2425            0.0000000000
     29528      2618  TIP3      OH2             0.4944955813       26.3863752670       23.1789302752  TIP3      2426            0.0000000000
     29529      2618  TIP3      H1             -0.0390441615       26.0523285178       22.4551969800  TIP3      2426            0.0000000000
     29530      2618  TIP3      H2              0.6126413143       27.3230611553       22.9031708810  TIP3      2426            0.0000000000
     29531      2619  TIP3      OH2             0.5636875508       32.2010049996       35.9956942536  TIP3      2427            0.0000000000
     29532      2619  TIP3      H1             -0.3459075954       32.4399168902       35.6507646926  TIP3      2427            0.0000000000
     29533      2619  TIP3      H2              1.0470135637       32.1661319160       35.1454190430  TIP3      2427            0.0000000000
     29534      2620  TIP3      OH2            -1.0615054594       34.9682937244       23.7484832426  TIP3      2428            0.0000000000
     29535      2620  TIP3      H1             -1.5957677846       34.2042896988       23.9256693079  TIP3      2428            0.0000000000
     29536      2620  TIP3      H2             -0.9525086085       34.9871772702       22.7820037034  TIP3      2428            0.0000000000
     29537      2621  TIP3      OH2            -3.9790752535       30.0164276141       30.6958492949  TIP3      2429            0.0000000000
     29538      2621  TIP3      H1             -4.9185736093       29.8040850756       30.5670345016  TIP3      2429            0.0000000000
     29539      2621  TIP3      H2             -3.5489493706       29.2599464551       30.2482807751  TIP3      2429            0.0000000000
     29540      2622  TIP3      OH2           -11.4416333492       34.3006116886       26.6602172856  TIP3      2430            0.0000000000
     29541      2622  TIP3      H1            -10.9575269814       35.1334745483       26.6125612291  TIP3      2430            0.0000000000
     29542      2622  TIP3      H2            -12.3528135807       34.5590531289       26.5125233583  TIP3      2430            0.0000000000
     29543      2623  TIP3      OH2           -15.7077115991       29.0836517912       21.6011115392  TIP3      2431            0.0000000000
     29544      2623  TIP3      H1            -15.0957760191       29.8276088107       21.7001786449  TIP3      2431            0.0000000000
     29545      2623  TIP3      H2            -16.5832946052       29.4885913025       21.5669673224  TIP3      2431            0.0000000000
     29546      2624  TIP3      OH2            -9.9785815484       32.0179725920       26.3695826061  TIP3      2432            0.0000000000
     29547      2624  TIP3      H1            -10.3435488134       32.9184681456       26.3628159878  TIP3      2432            0.0000000000
     29548      2624  TIP3      H2            -10.7488559175       31.5085694364       26.6778706679  TIP3      2432            0.0000000000
     29549      2625  TIP3      OH2            -9.2942393878       35.8699903659       32.3927400610  TIP3      2433            0.0000000000
     29550      2625  TIP3      H1             -9.1376345722       36.8189076363       32.3148304507  TIP3      2433            0.0000000000
     29551      2625  TIP3      H2             -8.9720319782       35.7151862577       33.2950307476  TIP3      2433            0.0000000000
     29552      2626  TIP3      OH2            -6.1058711585       32.1610140476       32.2856186971  TIP3      2434            0.0000000000
     29553      2626  TIP3      H1             -6.3871164498       31.9920632606       33.2081880603  TIP3      2434            0.0000000000
     29554      2626  TIP3      H2             -5.4126249277       31.4928592624       32.1687081838  TIP3      2434            0.0000000000
     29555      2627  TIP3      OH2            -3.7867193121       33.2213767848       21.4817128521  TIP3      2435            0.0000000000
     29556      2627  TIP3      H1             -3.4263320028       32.7441022217       22.2459667442  TIP3      2435            0.0000000000
     29557      2627  TIP3      H2             -4.7295901101       33.0403758525       21.4818106172  TIP3      2435            0.0000000000
     29558      2628  TIP3      OH2           -15.1929907862       24.0223309362       34.1967227852  TIP3      2436            0.0000000000
     29559      2628  TIP3      H1            -16.0992939410       24.3746237710       34.1799324276  TIP3      2436            0.0000000000
     29560      2628  TIP3      H2            -15.3039809931       23.1775268395       34.6611177341  TIP3      2436            0.0000000000
     29561      2629  TIP3      OH2            -2.9370050022       31.8743513571       23.7154585829  TIP3      2437            0.0000000000
     29562      2629  TIP3      H1             -3.1797395601       31.0608825278       24.1956029841  TIP3      2437            0.0000000000
     29563      2629  TIP3      H2             -1.9777878155       31.9315164592       23.8576853872  TIP3      2437            0.0000000000
     29564      2630  TIP3      OH2           -15.5807489743       35.7667680442       32.6136971419  TIP3      2438            0.0000000000
     29565      2630  TIP3      H1            -15.2886757642       34.8541077841       32.6605815413  TIP3      2438            0.0000000000
     29566      2630  TIP3      H2            -15.3740738635       36.1082595773       33.4888321831  TIP3      2438            0.0000000000
     29567      2631  TIP3      OH2           -14.3626592229       31.1692702305       22.7740854111  TIP3      2439            0.0000000000
     29568      2631  TIP3      H1            -14.9415615389       31.4918261880       23.4672932871  TIP3      2439            0.0000000000
     29569      2631  TIP3      H2            -13.7203650774       31.8635853197       22.5923487654  TIP3      2439            0.0000000000
     29570      2632  TIP3      OH2            -6.4618665520       23.7955065270       33.1641875821  TIP3      2440            0.0000000000
     29571      2632  TIP3      H1             -5.7448761002       23.8566240263       33.8051910727  TIP3      2440            0.0000000000
     29572      2632  TIP3      H2             -6.8435811130       22.9186852022       33.3680360593  TIP3      2440            0.0000000000
     29573      2633  TIP3      OH2            -5.7640560420       23.4311426798       24.2578766167  TIP3      2441            0.0000000000
     29574      2633  TIP3      H1             -5.4565846776       23.8214754346       23.4220641723  TIP3      2441            0.0000000000
     29575      2633  TIP3      H2             -5.1348869593       23.7804883638       24.9000933936  TIP3      2441            0.0000000000
     29576      2634  TIP3      OH2            -8.4783930738       25.0728580072       25.0535263175  TIP3      2442            0.0000000000
     29577      2634  TIP3      H1             -7.7401924900       25.7135537521       25.0728506690  TIP3      2442            0.0000000000
     29578      2634  TIP3      H2             -8.7607709976       25.0165052188       25.9810680888  TIP3      2442            0.0000000000
     29579      2635  TIP3      OH2            -7.9387597531       26.1363361199       34.2622694741  TIP3      2443            0.0000000000
     29580      2635  TIP3      H1             -7.8449737790       26.7103876704       35.0505020253  TIP3      2443            0.0000000000
     29581      2635  TIP3      H2             -7.2701464275       25.4468520077       34.3557325961  TIP3      2443            0.0000000000
     29582      2636  TIP3      OH2            -7.6388866316       22.1856797274       25.9195451259  TIP3      2444            0.0000000000
     29583      2636  TIP3      H1             -7.9579441983       22.8196313355       26.5837259168  TIP3      2444            0.0000000000
     29584      2636  TIP3      H2             -6.9223891589       22.7230922218       25.4999698449  TIP3      2444            0.0000000000
     29585      2637  TIP3      OH2           -11.9485505772       23.2735241037       22.7239869446  TIP3      2445            0.0000000000
     29586      2637  TIP3      H1            -12.0415072310       24.1960444478       22.9964822288  TIP3      2445            0.0000000000
     29587      2637  TIP3      H2            -11.0250587686       23.0574633945       22.9362153411  TIP3      2445            0.0000000000
     29588      2638  TIP3      OH2            -1.7602954386       23.9948063894       35.1114241075  TIP3      2446            0.0000000000
     29589      2638  TIP3      H1             -2.6853363903       24.3227783212       34.9892235945  TIP3      2446            0.0000000000
     29590      2638  TIP3      H2             -1.4569859130       23.9967120012       34.1862815548  TIP3      2446            0.0000000000
     29591      2639  TIP3      OH2            -3.1470938022       27.8071284874       29.1492832802  TIP3      2447            0.0000000000
     29592      2639  TIP3      H1             -3.9563712004       27.3582129453       28.8333886274  TIP3      2447            0.0000000000
     29593      2639  TIP3      H2             -2.6656658103       27.1040837591       29.6381259011  TIP3      2447            0.0000000000
     29594      2640  TIP3      OH2           -14.5809264019       21.1744458109       29.5649223776  TIP3      2448            0.0000000000
     29595      2640  TIP3      H1            -14.8025519483       21.1915094815       28.6119872504  TIP3      2448            0.0000000000
     29596      2640  TIP3      H2            -14.9997482863       20.3325251019       29.8497360243  TIP3      2448            0.0000000000
     29597      2641  TIP3      OH2           -15.6534381533       35.0845599146       25.6543636343  TIP3      2449            0.0000000000
     29598      2641  TIP3      H1            -16.4689085784       35.5656023692       25.7495368020  TIP3      2449            0.0000000000
     29599      2641  TIP3      H2            -15.1120013782       35.6009588559       25.0584851898  TIP3      2449            0.0000000000
     29600      2642  TIP3      OH2           -11.4710936782       36.3505507339       38.8378188472  TIP3      2450            0.0000000000
     29601      2642  TIP3      H1            -10.6139811574       35.9564139998       39.0223686065  TIP3      2450            0.0000000000
     29602      2642  TIP3      H2            -11.5175774495       36.2044872386       37.8763761064  TIP3      2450            0.0000000000
     29603      2643  TIP3      OH2            -5.5668531878       34.9675211410       37.5643086677  TIP3      2451            0.0000000000
     29604      2643  TIP3      H1             -5.5965070964       33.9975401151       37.6385706626  TIP3      2451            0.0000000000
     29605      2643  TIP3      H2             -4.6186985278       35.0402359197       37.7845377567  TIP3      2451            0.0000000000
     29606      2644  TIP3      OH2           -16.4719352586       31.5230915110       37.9909944768  TIP3      2452            0.0000000000
     29607      2644  TIP3      H1            -16.3669334689       30.5979407510       37.7063274251  TIP3      2452            0.0000000000
     29608      2644  TIP3      H2            -17.2471028658       31.8031591680       37.4626935517  TIP3      2452            0.0000000000
     29609      2645  TIP3      OH2            -9.7495785474       31.5185888177       37.3721933246  TIP3      2453            0.0000000000
     29610      2645  TIP3      H1            -10.1432201031       31.8167136430       36.5301162573  TIP3      2453            0.0000000000
     29611      2645  TIP3      H2             -9.7209455569       30.5318179158       37.2909920585  TIP3      2453            0.0000000000
     29612      2646  TIP3      OH2            -4.1216771693       31.2380017280       34.5426313953  TIP3      2454            0.0000000000
     29613      2646  TIP3      H1             -3.3572567724       31.8311439091       34.7378486761  TIP3      2454            0.0000000000
     29614      2646  TIP3      H2             -4.7686463753       31.8928112102       34.8489278161  TIP3      2454            0.0000000000
     29615      2647  TIP3      OH2           -15.5820378392       28.7756909461       37.3960912885  TIP3      2455            0.0000000000
     29616      2647  TIP3      H1            -15.1820615623       27.9025987135       37.3011259128  TIP3      2455            0.0000000000
     29617      2647  TIP3      H2            -15.8397138587       28.7628736232       38.3318717947  TIP3      2455            0.0000000000
     29618      2648  TIP3      OH2           -11.6991653045       27.6972063005       34.7503966148  TIP3      2456            0.0000000000
     29619      2648  TIP3      H1            -12.2969046932       28.4192324027       35.0097540148  TIP3      2456            0.0000000000
     29620      2648  TIP3      H2            -11.2984742783       28.0633504375       33.9426836822  TIP3      2456            0.0000000000
     29621      2649  TIP3      OH2            -6.6145633533       30.2505212157       38.0842546950  TIP3      2457            0.0000000000
     29622      2649  TIP3      H1             -5.6504078481       30.2519430177       37.9965027763  TIP3      2457            0.0000000000
     29623      2649  TIP3      H2             -6.7819788191       29.4929805575       38.6569062879  TIP3      2457            0.0000000000
     29624      2650  TIP3      OH2           -11.2879649705       25.0723501085       35.8060366706  TIP3      2458            0.0000000000
     29625      2650  TIP3      H1            -11.1721282427       24.3633405846       35.1467389330  TIP3      2458            0.0000000000
     29626      2650  TIP3      H2            -11.3333468439       25.8833074501       35.2571117406  TIP3      2458            0.0000000000
     29627      2651  TIP3      OH2           -10.8847707348       23.4538288219       33.3607791576  TIP3      2459            0.0000000000
     29628      2651  TIP3      H1            -10.3767062071       23.9199262306       32.6543254207  TIP3      2459            0.0000000000
     29629      2651  TIP3      H2            -11.7785615691       23.3766245079       32.9553116649  TIP3      2459            0.0000000000
     29630      2652  TIP3      OH2            -9.3446651959       28.9412460828       33.6035042970  TIP3      2460            0.0000000000
     29631      2652  TIP3      H1             -8.5895872115       28.7768054329       33.0308600558  TIP3      2460            0.0000000000
     29632      2652  TIP3      H2             -9.6929128707       29.7846085330       33.2737281991  TIP3      2460            0.0000000000
     29633      2653  TIP3      OH2            -4.9515537882       26.7010431551       38.5473523205  TIP3      2461            0.0000000000
     29634      2653  TIP3      H1             -4.7241948326       25.7592895436       38.4985090362  TIP3      2461            0.0000000000
     29635      2653  TIP3      H2             -4.0833474586       27.1268710920       38.6202550783  TIP3      2461            0.0000000000
     29636      2654  TIP3      OH2            -3.6090285363       29.4785917267       36.7250696220  TIP3      2462            0.0000000000
     29637      2654  TIP3      H1             -3.8529278194       30.2251828652       36.1368233420  TIP3      2462            0.0000000000
     29638      2654  TIP3      H2             -2.6469876124       29.4690952473       36.5480843368  TIP3      2462            0.0000000000
     29639      2655  TIP3      OH2           -12.8273366515       26.3238385938       37.7272216316  TIP3      2463            0.0000000000
     29640      2655  TIP3      H1            -13.5970357668       25.7451387795       37.5588866472  TIP3      2463            0.0000000000
     29641      2655  TIP3      H2            -12.1714863271       25.9525813336       37.1096456762  TIP3      2463            0.0000000000
     29642      2656  TIP3      OH2           -10.0947054911       20.8896975252       33.7498756739  TIP3      2464            0.0000000000
     29643      2656  TIP3      H1            -10.2772053607       21.8542130781       33.6559354005  TIP3      2464            0.0000000000
     29644      2656  TIP3      H2            -10.8458294125       20.5245677208       33.2492902485  TIP3      2464            0.0000000000
     29645      2657  TIP3      OH2            -8.8247555245       25.2210020065       37.3813364754  TIP3      2465            0.0000000000
     29646      2657  TIP3      H1             -9.1256408206       24.9851727889       38.2821615874  TIP3      2465            0.0000000000
     29647      2657  TIP3      H2             -9.6079996192       25.0162849661       36.8422949580  TIP3      2465            0.0000000000
     29648      2658  TIP3      OH2            -6.1046306239       24.3634862763       36.4648473853  TIP3      2466            0.0000000000
     29649      2658  TIP3      H1             -7.0687253087       24.4183705741       36.5774319073  TIP3      2466            0.0000000000
     29650      2658  TIP3      H2             -5.8370251893       23.7334627691       37.1601316859  TIP3      2466            0.0000000000
     29651      2659  TIP3      OH2            -4.5183787972       22.9595654376       38.3277969945  TIP3      2467            0.0000000000
     29652      2659  TIP3      H1             -4.5718230778       21.9890182827       38.4114809441  TIP3      2467            0.0000000000
     29653      2659  TIP3      H2             -4.7564542715       23.2902156247       39.2266994356  TIP3      2467            0.0000000000
     29654      2660  TIP3      OH2           -14.7464345445       24.2586883375       37.4819760242  TIP3      2468            0.0000000000
     29655      2660  TIP3      H1            -14.5009957437       23.5232199999       36.8954116829  TIP3      2468            0.0000000000
     29656      2660  TIP3      H2            -14.8397677783       23.8125826653       38.3465780738  TIP3      2468            0.0000000000
     29657      2661  TIP3      OH2            -9.8819800490       20.2850005484       36.4512205357  TIP3      2469            0.0000000000
     29658      2661  TIP3      H1             -9.2027057608       19.5812638228       36.4333014958  TIP3      2469            0.0000000000
     29659      2661  TIP3      H2             -9.9957007092       20.4295971887       35.4914693124  TIP3      2469            0.0000000000
     29660      2662  TIP3      OH2            -9.5204044440       21.8960606488       38.5676692498  TIP3      2470            0.0000000000
     29661      2662  TIP3      H1             -9.6937553824       21.3914035350       37.7339922744  TIP3      2470            0.0000000000
     29662      2662  TIP3      H2            -10.1180027550       22.6622858812       38.4656830439  TIP3      2470            0.0000000000
     29663      2663  TIP3      OH2            -1.3037240281       32.9798022978       38.6522371911  TIP3      2471            0.0000000000
     29664      2663  TIP3      H1             -2.2543666788       32.9916265117       38.8936465068  TIP3      2471            0.0000000000
     29665      2663  TIP3      H2             -0.9660976758       33.8255316722       39.0232829716  TIP3      2471            0.0000000000
     29666      2664  TIP3      OH2             0.0097787906       31.2888215349       24.0113184273  TIP3      2472            0.0000000000
     29667      2664  TIP3      H1              0.8108584440       31.7757545887       24.2836136147  TIP3      2472            0.0000000000
     29668      2664  TIP3      H2             -0.0395232539       30.6196259024       24.7230339994  TIP3      2472            0.0000000000
     29669      2665  TIP3      OH2             0.3731217989       29.3994938620       25.8966898524  TIP3      2473            0.0000000000
     29670      2665  TIP3      H1             -0.3982850492       28.9320984866       26.2851755714  TIP3      2473            0.0000000000
     29671      2665  TIP3      H2              0.9446641775       29.5821797296       26.6709481017  TIP3      2473            0.0000000000
     29672      2666  TIP3      OH2             0.1035910168       32.1105305332       30.9694550684  TIP3      2474            0.0000000000
     29673      2666  TIP3      H1              0.8842186377       31.7612734407       30.5027283671  TIP3      2474            0.0000000000
     29674      2666  TIP3      H2              0.2381849509       33.0574861338       30.7330062585  TIP3      2474            0.0000000000
     29675      2667  TIP3      OH2            -1.4084726244       35.0389683636       33.2010291345  TIP3      2475            0.0000000000
     29676      2667  TIP3      H1             -2.1092220040       35.3381222825       33.7862751362  TIP3      2475            0.0000000000
     29677      2667  TIP3      H2             -1.9063016843       34.6357961529       32.4539594845  TIP3      2475            0.0000000000
     29678      2668  TIP3      OH2             0.6347255634       29.2511795803       22.3116415926  TIP3      2476            0.0000000000
     29679      2668  TIP3      H1              0.0846816327       29.6060081873       21.5948134154  TIP3      2476            0.0000000000
     29680      2668  TIP3      H2              0.5490822421       29.9686873371       22.9695259189  TIP3      2476            0.0000000000
     29681      2669  TIP3      OH2            -1.8491965022       27.8953812696       26.4758375729  TIP3      2477            0.0000000000
     29682      2669  TIP3      H1             -1.9886908993       26.9375940249       26.4433676356  TIP3      2477            0.0000000000
     29683      2669  TIP3      H2             -2.1852696981       28.1156097077       27.3594260927  TIP3      2477            0.0000000000
     29684      2670  TIP3      OH2           -16.8367817041       29.9879729066       30.5375360351  TIP3      2478            0.0000000000
     29685      2670  TIP3      H1            -16.6669426631       29.9052216891       29.5697112519  TIP3      2478            0.0000000000
     29686      2670  TIP3      H2            -15.9438993062       29.8058731489       30.8914980595  TIP3      2478            0.0000000000
     29687      2671  TIP3      OH2            -0.9789366931       29.8497315516       36.1742550444  TIP3      2479            0.0000000000
     29688      2671  TIP3      H1             -0.3545459259       29.1098879738       36.3116377743  TIP3      2479            0.0000000000
     29689      2671  TIP3      H2             -0.4064020463       30.6453833565       36.1724308712  TIP3      2479            0.0000000000
     29690      2672  TIP3      OH2             0.5218477380       27.7408444287       36.8276038090  TIP3      2480            0.0000000000
     29691      2672  TIP3      H1             -0.3626252774       27.3458292026       36.6699845824  TIP3      2480            0.0000000000
     29692      2672  TIP3      H2              1.0901088812       26.9577742715       36.7488326967  TIP3      2480            0.0000000000
     29693      2673  TIP3      OH2            -2.1773099059       25.4556503812       24.9564276779  TIP3      2481            0.0000000000
     29694      2673  TIP3      H1             -1.8559489987       24.5325451078       25.0470586321  TIP3      2481            0.0000000000
     29695      2673  TIP3      H2             -1.3978880574       25.8818047700       24.5706103807  TIP3      2481            0.0000000000
     29696      2674  TIP3      OH2            -1.5381346332       26.0246034131       30.3868024974  TIP3      2482            0.0000000000
     29697      2674  TIP3      H1             -0.5787874748       26.2559044166       30.3723878117  TIP3      2482            0.0000000000
     29698      2674  TIP3      H2             -1.7245892255       26.1652831968       31.3265729028  TIP3      2482            0.0000000000
     29699      2675  TIP3      OH2            -1.4653060325       26.7440128868       33.1771333532  TIP3      2483            0.0000000000
     29700      2675  TIP3      H1             -2.3503777495       27.0373637971       33.4815535403  TIP3      2483            0.0000000000
     29701      2675  TIP3      H2             -1.0322852277       27.6012744906       32.9427221250  TIP3      2483            0.0000000000
     29702      2676  TIP3      OH2           -17.2182750698       25.2770464751       36.6981662237  TIP3      2484            0.0000000000
     29703      2676  TIP3      H1            -16.2830826186       25.0740805683       36.8919243349  TIP3      2484            0.0000000000
     29704      2676  TIP3      H2            -17.6831632169       24.4578816984       36.9759072130  TIP3      2484            0.0000000000
     29705      2677  TIP3      OH2             0.8306681527       20.8114353045       38.4963061104  TIP3      2485            0.0000000000
     29706      2677  TIP3      H1              1.1619001495       20.1459151751       37.8716370282  TIP3      2485            0.0000000000
     29707      2677  TIP3      H2              0.9085047952       21.6272066756       37.9641233470  TIP3      2485            0.0000000000
     29708      2678  TIP3      OH2            -1.5244402624       22.7747569911       24.9822402530  TIP3      2486            0.0000000000
     29709      2678  TIP3      H1             -1.2907388995       22.3198486314       25.8189295043  TIP3      2486            0.0000000000
     29710      2678  TIP3      H2             -2.1122225048       22.1191683696       24.5378594433  TIP3      2486            0.0000000000
     29711      2679  TIP3      OH2           -16.0211091052       23.5740639904       29.5487982539  TIP3      2487            0.0000000000
     29712      2679  TIP3      H1            -15.5614552908       22.7517399749       29.8156265679  TIP3      2487            0.0000000000
     29713      2679  TIP3      H2            -15.4706109523       24.2683015189       29.9325684541  TIP3      2487            0.0000000000
     29714      2680  TIP3      OH2           -17.7379203379       26.5773824597       30.5833783568  TIP3      2488            0.0000000000
     29715      2680  TIP3      H1            -17.1734327593       26.3253964985       29.8245009013  TIP3      2488            0.0000000000
     29716      2680  TIP3      H2            -17.2697585435       27.3804420375       30.8539203997  TIP3      2488            0.0000000000
     29717      2681  TIP3      OH2             0.3209484115       22.9090581764       36.8617800496  TIP3      2489            0.0000000000
     29718      2681  TIP3      H1             -0.6178658597       23.1797986152       36.8092626133  TIP3      2489            0.0000000000
     29719      2681  TIP3      H2              0.3552955741       22.3572815228       36.0653773847  TIP3      2489            0.0000000000
     29720      2682  TIP3      OH2           -17.3690980257       22.8629268041       24.6909678265  TIP3      2490            0.0000000000
     29721      2682  TIP3      H1            -18.3169759660       22.9777902190       24.5075897523  TIP3      2490            0.0000000000
     29722      2682  TIP3      H2            -16.9550668800       23.2961658276       23.9151941410  TIP3      2490            0.0000000000
     29723      2683  TIP3      OH2           -17.4242621517       21.4859750933       32.9494239888  TIP3      2491            0.0000000000
     29724      2683  TIP3      H1            -18.0915932445       21.2961851574       33.6323320864  TIP3      2491            0.0000000000
     29725      2683  TIP3      H2            -17.8813719092       22.1632226410       32.4087503870  TIP3      2491            0.0000000000
     29726      2684  TIP3      OH2           -15.1973984986       34.8147609185       37.1467405739  TIP3      2492            0.0000000000
     29727      2684  TIP3      H1            -16.0495978392       34.8283443631       36.6728177389  TIP3      2492            0.0000000000
     29728      2684  TIP3      H2            -15.4617658791       34.5443607822       38.0334247884  TIP3      2492            0.0000000000
     29729      2685  TIP3      OH2           -12.2547539772       35.6789850579       33.4594325561  TIP3      2493            0.0000000000
     29730      2685  TIP3      H1            -12.6878067007       36.4659464514       33.0948365720  TIP3      2493            0.0000000000
     29731      2685  TIP3      H2            -11.3891564516       35.6653607165       33.0269822089  TIP3      2493            0.0000000000
     29732      2686  TIP3      OH2            -0.6588043842       20.9991318107       34.7158141244  TIP3      2494            0.0000000000
     29733      2686  TIP3      H1             -1.4855736736       21.2997005601       34.2998855775  TIP3      2494            0.0000000000
     29734      2686  TIP3      H2             -0.4899274514       20.1764310158       34.1985166181  TIP3      2494            0.0000000000
     29735      2687  TIP3      OH2           -13.1074261950       36.0484986447       28.7749174579  TIP3      2495            0.0000000000
     29736      2687  TIP3      H1            -13.4709662974       35.2682805480       29.2223911367  TIP3      2495            0.0000000000
     29737      2687  TIP3      H2            -12.4996441353       36.3960819510       29.4505425464  TIP3      2495            0.0000000000
     29738      2688  TIP3      OH2            -7.2660664494       22.4181137701       29.0061772315  TIP3      2496            0.0000000000
     29739      2688  TIP3      H1             -7.9460655227       21.7808779435       29.2783755023  TIP3      2496            0.0000000000
     29740      2688  TIP3      H2             -6.7157273603       21.8898647134       28.4167498821  TIP3      2496            0.0000000000
     29741      2689  TIP3      OH2            -2.1351249373       20.4673802163       29.0600626114  TIP3      2497            0.0000000000
     29742      2689  TIP3      H1             -1.5219495461       21.0711135086       28.5683410774  TIP3      2497            0.0000000000
     29743      2689  TIP3      H2             -3.0174296098       20.8335206529       28.8331822553  TIP3      2497            0.0000000000
     29744      2690  TIP3      OH2            -0.4655510584       21.7221488351       27.3628246809  TIP3      2498            0.0000000000
     29745      2690  TIP3      H1              0.2105910642       21.1452048661       26.9317036013  TIP3      2498            0.0000000000
     29746      2690  TIP3      H2              0.0473002759       22.5534163679       27.4433382550  TIP3      2498            0.0000000000
     29747      2691  TIP3      OH2           -14.8604615183       21.0475481964       26.7979686561  TIP3      2499            0.0000000000
     29748      2691  TIP3      H1            -15.7130287385       20.8649449248       26.3501489419  TIP3      2499            0.0000000000
     29749      2691  TIP3      H2            -14.4647234922       20.1797013042       26.8538746292  TIP3      2499            0.0000000000
     29750      2692  TIP3      OH2           -10.4448475215       21.0091713465       26.6375059535  TIP3      2500            0.0000000000
     29751      2692  TIP3      H1             -9.5212672216       21.3131975032       26.5537400706  TIP3      2500            0.0000000000
     29752      2692  TIP3      H2            -10.4573848570       20.7683564063       27.5637832561  TIP3      2500            0.0000000000
     29753      2693  TIP3      OH2            -4.7082921889       20.9881113413       28.2601201455  TIP3      2501            0.0000000000
     29754      2693  TIP3      H1             -4.7715336167       21.1109456169       27.3039863879  TIP3      2501            0.0000000000
     29755      2693  TIP3      H2             -5.0967653846       20.0884919842       28.3871315740  TIP3      2501            0.0000000000
     29756      2694  TIP3      OH2            -3.4439424639       21.0536021006       24.0022849103  TIP3      2502            0.0000000000
     29757      2694  TIP3      H1             -4.1799574357       21.6156224724       23.7321896742  TIP3      2502            0.0000000000
     29758      2694  TIP3      H2             -3.8681362148       20.1817861172       24.1352948266  TIP3      2502            0.0000000000
     29759      2695  TIP3      OH2           -14.2400833674       22.7326147972       21.0731039295  TIP3      2503            0.0000000000
     29760      2695  TIP3      H1            -13.7577756029       22.1373881261       20.4917508920  TIP3      2503            0.0000000000
     29761      2695  TIP3      H2            -13.5697328542       23.1071280635       21.6583387605  TIP3      2503            0.0000000000
     29762      2696  TIP3      OH2            -9.2724975013       23.0149195989       23.4855101732  TIP3      2504            0.0000000000
     29763      2696  TIP3      H1             -9.0076271953       22.4362942843       24.2218939120  TIP3      2504            0.0000000000
     29764      2696  TIP3      H2             -9.1731802420       23.8906126177       23.9408562041  TIP3      2504            0.0000000000
     29765      2697  TIP3      OH2           -15.0118339282       21.5938169563       36.2966907300  TIP3      2505            0.0000000000
     29766      2697  TIP3      H1            -15.4003997324       20.7985545463       36.7027670031  TIP3      2505            0.0000000000
     29767      2697  TIP3      H2            -14.1027943133       21.5510855731       36.6792543803  TIP3      2505            0.0000000000
     29768      2698  TIP3      OH2           -13.0108731006       20.9759112717       37.9423873669  TIP3      2506            0.0000000000
     29769      2698  TIP3      H1            -12.1160859353       20.6412288347       37.7279651063  TIP3      2506            0.0000000000
     29770      2698  TIP3      H2            -13.3846768285       20.1680527974       38.3445900031  TIP3      2506            0.0000000000
     29771      2699  TIP3      OH2            -4.6062344841       20.2553708109       38.0830723981  TIP3      2507            0.0000000000
     29772      2699  TIP3      H1             -4.5150157440       19.7889020845       38.9389561005  TIP3      2507            0.0000000000
     29773      2699  TIP3      H2             -3.6877278846       20.2223596729       37.7418480051  TIP3      2507            0.0000000000
     29774      2700  TIP3      OH2            -1.5451509328      -36.7592787122       36.8799407988  TIP3      2508            0.0000000000
     29775      2700  TIP3      H1             -2.2053253104      -36.9429601094       36.1979010555  TIP3      2508            0.0000000000
     29776      2700  TIP3      H2             -1.4697833919      -35.7982691956       36.8739721569  TIP3      2508            0.0000000000
     29777      2701  TIP3      OH2            13.0346705371       30.1659697748       26.7245066001  TIP3      2509            0.0000000000
     29778      2701  TIP3      H1             13.0416013424       31.1472948127       26.6599994355  TIP3      2509            0.0000000000
     29779      2701  TIP3      H2             12.3180376159       29.9570795377       26.1103165601  TIP3      2509            0.0000000000
     29780      2702  TIP3      OH2            11.8986839352       29.4459765079       30.2076852309  TIP3      2510            0.0000000000
     29781      2702  TIP3      H1             11.8897873363       28.7930592060       30.9206103497  TIP3      2510            0.0000000000
     29782      2702  TIP3      H2             11.5544971489       28.9420293686       29.4475386158  TIP3      2510            0.0000000000
     29783      2703  TIP3      OH2             4.2578935027       29.1223426565       31.7572823779  TIP3      2511            0.0000000000
     29784      2703  TIP3      H1              4.3382209111       28.4351595274       32.4514824195  TIP3      2511            0.0000000000
     29785      2703  TIP3      H2              5.0046272927       29.6953214243       31.9810321674  TIP3      2511            0.0000000000
     29786      2704  TIP3      OH2            15.5799654186       32.3875875702       28.4921710735  TIP3      2512            0.0000000000
     29787      2704  TIP3      H1             15.1757189741       31.6661790797       28.9818892243  TIP3      2512            0.0000000000
     29788      2704  TIP3      H2             15.6278980545       33.1010377241       29.1543498728  TIP3      2512            0.0000000000
     29789      2705  TIP3      OH2             5.2148209793       33.5711857653       30.3320377557  TIP3      2513            0.0000000000
     29790      2705  TIP3      H1              4.8472337221       32.7505204134       29.9383888076  TIP3      2513            0.0000000000
     29791      2705  TIP3      H2              6.1590655212       33.3704574840       30.2762498680  TIP3      2513            0.0000000000
     29792      2706  TIP3      OH2             1.8468879397       27.1407366287       25.7057095673  TIP3      2514            0.0000000000
     29793      2706  TIP3      H1              1.3863932610       28.0086593657       25.7097004555  TIP3      2514            0.0000000000
     29794      2706  TIP3      H2              1.2416863761       26.5978791612       25.1854416357  TIP3      2514            0.0000000000
     29795      2707  TIP3      OH2             2.5187285918       29.3261601529       27.8882515633  TIP3      2515            0.0000000000
     29796      2707  TIP3      H1              2.8221984495       28.5261080599       28.3464872270  TIP3      2515            0.0000000000
     29797      2707  TIP3      H2              3.2186320602       29.4938699053       27.2393157390  TIP3      2515            0.0000000000
     29798      2708  TIP3      OH2            10.2580277908       31.8213293148       30.6862157459  TIP3      2516            0.0000000000
     29799      2708  TIP3      H1             10.6086120878       31.2202112479       30.0087386751  TIP3      2516            0.0000000000
     29800      2708  TIP3      H2             11.0739591920       32.0188634725       31.1796777300  TIP3      2516            0.0000000000
     29801      2709  TIP3      OH2            18.8700457425       23.5091737425       31.3993223961  TIP3      2517            0.0000000000
     29802      2709  TIP3      H1             19.0499418934       24.0936562924       32.1672547226  TIP3      2517            0.0000000000
     29803      2709  TIP3      H2             19.4413706684       23.9274698706       30.7396361786  TIP3      2517            0.0000000000
     29804      2710  TIP3      OH2            13.4433882041       26.3137376103       30.9906431282  TIP3      2518            0.0000000000
     29805      2710  TIP3      H1             13.6116027105       25.3551291849       30.9961153150  TIP3      2518            0.0000000000
     29806      2710  TIP3      H2             13.3409296877       26.4547744486       30.0305370561  TIP3      2518            0.0000000000
     29807      2711  TIP3      OH2             6.5555850629       24.3993681801       28.1995211696  TIP3      2519            0.0000000000
     29808      2711  TIP3      H1              6.6654278050       25.2420391397       27.7180182388  TIP3      2519            0.0000000000
     29809      2711  TIP3      H2              6.1450422088       23.8384359661       27.5151000344  TIP3      2519            0.0000000000
     29810      2712  TIP3      OH2            14.2975620039       24.4727359481       26.5737721482  TIP3      2520            0.0000000000
     29811      2712  TIP3      H1             14.9559068887       24.1780112096       27.2476582954  TIP3      2520            0.0000000000
     29812      2712  TIP3      H2             14.8511341079       25.0588131649       26.0343479605  TIP3      2520            0.0000000000
     29813      2713  TIP3      OH2             3.1865274517       26.8186830673       28.9490797862  TIP3      2521            0.0000000000
     29814      2713  TIP3      H1              3.8535650372       26.2685539305       29.3976215918  TIP3      2521            0.0000000000
     29815      2713  TIP3      H2              3.2861284668       26.5063274446       28.0354691150  TIP3      2521            0.0000000000
     29816      2714  TIP3      OH2             8.3335986635       28.3641865580       28.2711959947  TIP3      2522            0.0000000000
     29817      2714  TIP3      H1              9.0180879201       27.7889335303       28.6493958766  TIP3      2522            0.0000000000
     29818      2714  TIP3      H2              7.8352856567       27.7141168685       27.7333215777  TIP3      2522            0.0000000000
     29819      2715  TIP3      OH2            19.3123430414       24.9100515956       33.6789811911  TIP3      2523            0.0000000000
     29820      2715  TIP3      H1             18.7082853596       25.6765383512       33.5659436974  TIP3      2523            0.0000000000
     29821      2715  TIP3      H2             19.3464131773       24.8315959027       34.6388146708  TIP3      2523            0.0000000000
     29822      2716  TIP3      OH2             5.4675941091       23.3024813459       32.2453299459  TIP3      2524            0.0000000000
     29823      2716  TIP3      H1              5.1850011715       23.8744008623       31.5003507875  TIP3      2524            0.0000000000
     29824      2716  TIP3      H2              4.7899751013       23.5305784420       32.9276367384  TIP3      2524            0.0000000000
     29825      2717  TIP3      OH2            12.7821266953       32.7757919182       25.8115615574  TIP3      2525            0.0000000000
     29826      2717  TIP3      H1             12.4822620933       32.5315122972       24.9334179925  TIP3      2525            0.0000000000
     29827      2717  TIP3      H2             12.4466053939       33.6934318033       25.8857110704  TIP3      2525            0.0000000000
     29828      2718  TIP3      OH2             7.9754472293       30.9251768934       32.4977997038  TIP3      2526            0.0000000000
     29829      2718  TIP3      H1              7.2708430703       31.5746595573       32.7073232363  TIP3      2526            0.0000000000
     29830      2718  TIP3      H2              8.6845897743       31.5184608209       32.1970060956  TIP3      2526            0.0000000000
     29831      2719  TIP3      OH2            16.0966502544       23.8330023109       28.5581135737  TIP3      2527            0.0000000000
     29832      2719  TIP3      H1             15.8866443877       23.0648211234       29.0975551978  TIP3      2527            0.0000000000
     29833      2719  TIP3      H2             16.7756378427       24.2700422377       29.0976815624  TIP3      2527            0.0000000000
     29834      2720  TIP3      OH2             5.0359265334       25.1584291947       30.2820547275  TIP3      2528            0.0000000000
     29835      2720  TIP3      H1              5.6632379210       25.8479234933       30.5965724158  TIP3      2528            0.0000000000
     29836      2720  TIP3      H2              5.5523413887       24.7493264390       29.5430353791  TIP3      2528            0.0000000000
     29837      2721  TIP3      OH2             6.4338510993       32.9430877864       33.2856909593  TIP3      2529            0.0000000000
     29838      2721  TIP3      H1              6.3714004596       33.8493976005       32.9417601818  TIP3      2529            0.0000000000
     29839      2721  TIP3      H2              5.5494071383       32.8634085988       33.7250336364  TIP3      2529            0.0000000000
     29840      2722  TIP3      OH2             2.5228284049       32.5934607540       24.0492800784  TIP3      2530            0.0000000000
     29841      2722  TIP3      H1              2.1980040964       32.9325592664       23.2087377650  TIP3      2530            0.0000000000
     29842      2722  TIP3      H2              2.5119090991       33.3820185229       24.6476280841  TIP3      2530            0.0000000000
     29843      2723  TIP3      OH2            16.1252121590       34.2537853351       30.9095750743  TIP3      2531            0.0000000000
     29844      2723  TIP3      H1             15.1441945371       34.3327030688       30.9974035976  TIP3      2531            0.0000000000
     29845      2723  TIP3      H2             16.4060803379       35.1455625336       30.6363010524  TIP3      2531            0.0000000000
     29846      2724  TIP3      OH2            16.4396261248       22.5142368207       32.2448567312  TIP3      2532            0.0000000000
     29847      2724  TIP3      H1             15.7150015248       23.1478067309       32.1526520996  TIP3      2532            0.0000000000
     29848      2724  TIP3      H2             17.1529210275       22.9332704633       31.7227935612  TIP3      2532            0.0000000000
     29849      2725  TIP3      OH2             9.4010803628       20.6351702949       29.7100327122  TIP3      2533            0.0000000000
     29850      2725  TIP3      H1              9.2568375279       19.6707520375       29.6368634268  TIP3      2533            0.0000000000
     29851      2725  TIP3      H2              8.5228603274       20.9413567387       30.0182007955  TIP3      2533            0.0000000000
     29852      2726  TIP3      OH2            14.4087655532       35.6957638746       27.2666310118  TIP3      2534            0.0000000000
     29853      2726  TIP3      H1             14.9839311703       35.0959237200       26.7616225951  TIP3      2534            0.0000000000
     29854      2726  TIP3      H2             14.7922118787       36.5334151619       27.0183450048  TIP3      2534            0.0000000000
     29855      2727  TIP3      OH2            15.6817812312       33.8466017379       25.8919578306  TIP3      2535            0.0000000000
     29856      2727  TIP3      H1             15.2442556606       33.1833183655       25.3442689423  TIP3      2535            0.0000000000
     29857      2727  TIP3      H2             15.6202824987       33.4292570434       26.7803848720  TIP3      2535            0.0000000000
     29858      2728  TIP3      OH2            17.2130505299       32.5764656981       34.4686250286  TIP3      2536            0.0000000000
     29859      2728  TIP3      H1             17.3385409117       31.8982748794       33.7679127789  TIP3      2536            0.0000000000
     29860      2728  TIP3      H2             17.4357073279       33.3981240169       33.9977276510  TIP3      2536            0.0000000000
     29861      2729  TIP3      OH2            11.7507079507       29.4818633436       24.2561448734  TIP3      2537            0.0000000000
     29862      2729  TIP3      H1             11.0011643270       29.9739025452       23.8942900780  TIP3      2537            0.0000000000
     29863      2729  TIP3      H2             12.3672494931       29.5143263183       23.4983595785  TIP3      2537            0.0000000000
     29864      2730  TIP3      OH2            19.0926696557       28.8498725569       32.4993120660  TIP3      2538            0.0000000000
     29865      2730  TIP3      H1             18.4350520333       29.5730241118       32.5392228402  TIP3      2538            0.0000000000
     29866      2730  TIP3      H2             19.5872728853       29.0843029382       31.6933365386  TIP3      2538            0.0000000000
     29867      2731  TIP3      OH2            15.1723278957       29.6997337416       25.1859133288  TIP3      2539            0.0000000000
     29868      2731  TIP3      H1             14.3983921915       29.8815338390       25.7614010885  TIP3      2539            0.0000000000
     29869      2731  TIP3      H2             15.6126127376       28.9684831725       25.6555361679  TIP3      2539            0.0000000000
     29870      2732  TIP3      OH2            15.0795382523       27.8026354573       34.2671315438  TIP3      2540            0.0000000000
     29871      2732  TIP3      H1             15.0861137794       28.6219100594       34.7885022483  TIP3      2540            0.0000000000
     29872      2732  TIP3      H2             14.4503565274       28.0941444970       33.5746520306  TIP3      2540            0.0000000000
     29873      2733  TIP3      OH2             6.7635899331       30.3022418449       27.0666138738  TIP3      2541            0.0000000000
     29874      2733  TIP3      H1              6.4533255715       29.9175869029       26.2170185072  TIP3      2541            0.0000000000
     29875      2733  TIP3      H2              7.3799743575       29.6107733189       27.3974836851  TIP3      2541            0.0000000000
     29876      2734  TIP3      OH2             8.0779215802       33.7010192416       29.7463718458  TIP3      2542            0.0000000000
     29877      2734  TIP3      H1              8.0774998682       33.1638444589       28.9453812583  TIP3      2542            0.0000000000
     29878      2734  TIP3      H2              8.8567883579       33.3314578977       30.2007305636  TIP3      2542            0.0000000000
     29879      2735  TIP3      OH2             7.0901153644       29.0418607964       30.7215775425  TIP3      2543            0.0000000000
     29880      2735  TIP3      H1              7.6392435375       29.1420019312       29.9191027337  TIP3      2543            0.0000000000
     29881      2735  TIP3      H2              7.4796387057       29.7079581098       31.3304658826  TIP3      2543            0.0000000000
     29882      2736  TIP3      OH2            13.5414661896       34.6134269450       31.4487617845  TIP3      2544            0.0000000000
     29883      2736  TIP3      H1             13.1701675635       35.2422543830       32.0609347376  TIP3      2544            0.0000000000
     29884      2736  TIP3      H2             13.2449972128       33.7558953791       31.8423532768  TIP3      2544            0.0000000000
     29885      2737  TIP3      OH2             8.0409458296       33.4790223738       35.4176820439  TIP3      2545            0.0000000000
     29886      2737  TIP3      H1              7.6080508045       34.2223257290       35.8965165845  TIP3      2545            0.0000000000
     29887      2737  TIP3      H2              7.3769202508       33.2462271252       34.7168140305  TIP3      2545            0.0000000000
     29888      2738  TIP3      OH2             4.9861597042       29.6342182430       34.5696417305  TIP3      2546            0.0000000000
     29889      2738  TIP3      H1              5.0397867719       30.3040366571       35.2764774788  TIP3      2546            0.0000000000
     29890      2738  TIP3      H2              4.0440053649       29.7223837105       34.3559077693  TIP3      2546            0.0000000000
     29891      2739  TIP3      OH2            11.6926545545       35.5270454226       26.2773872529  TIP3      2547            0.0000000000
     29892      2739  TIP3      H1             12.1868137888       35.8348702883       27.0461301758  TIP3      2547            0.0000000000
     29893      2739  TIP3      H2             11.1857714208       36.3076440327       26.0267794148  TIP3      2547            0.0000000000
     29894      2740  TIP3      OH2             6.2752979884       35.4171660401       36.1488103282  TIP3      2548            0.0000000000
     29895      2740  TIP3      H1              6.2003605789       35.3930876220       35.1699440516  TIP3      2548            0.0000000000
     29896      2740  TIP3      H2              5.3348921649       35.3577674659       36.4176607868  TIP3      2548            0.0000000000
     29897      2741  TIP3      OH2            17.7163710338       20.5682974955       22.6303751515  TIP3      2549            0.0000000000
     29898      2741  TIP3      H1             16.7995308462       20.6854244956       22.9732765115  TIP3      2549            0.0000000000
     29899      2741  TIP3      H2             17.9623827663       21.4516691603       22.3120027863  TIP3      2549            0.0000000000
     29900      2742  TIP3      OH2             5.7538709969       29.3282904982       24.6664467280  TIP3      2550            0.0000000000
     29901      2742  TIP3      H1              5.4366812113       30.1166612980       24.1759213141  TIP3      2550            0.0000000000
     29902      2742  TIP3      H2              5.0556330400       28.6898297714       24.5018455255  TIP3      2550            0.0000000000
     29903      2743  TIP3      OH2             1.8132553840       31.7549192918       33.5650068563  TIP3      2551            0.0000000000
     29904      2743  TIP3      H1              1.3807994674       31.6733252299       32.6914122733  TIP3      2551            0.0000000000
     29905      2743  TIP3      H2              1.8966034289       30.8074491288       33.7840006850  TIP3      2551            0.0000000000
     29906      2744  TIP3      OH2             1.6085512734       34.4109407252       30.5525173968  TIP3      2552            0.0000000000
     29907      2744  TIP3      H1              2.5214195230       34.3808183279       30.2317430917  TIP3      2552            0.0000000000
     29908      2744  TIP3      H2              1.5371595657       35.3152055051       30.8717936595  TIP3      2552            0.0000000000
     29909      2745  TIP3      OH2            19.7979244656       35.1802619197       36.1113990896  TIP3      2553            0.0000000000
     29910      2745  TIP3      H1             19.6950357180       34.2242556347       35.9859936028  TIP3      2553            0.0000000000
     29911      2745  TIP3      H2             18.9089954451       35.4440543110       36.4304697176  TIP3      2553            0.0000000000
     29912      2746  TIP3      OH2            10.7626477430       34.7457128421       34.8910991000  TIP3      2554            0.0000000000
     29913      2746  TIP3      H1             10.8632385955       35.5536089717       35.4013083823  TIP3      2554            0.0000000000
     29914      2746  TIP3      H2              9.9191846402       34.3452675670       35.1743616169  TIP3      2554            0.0000000000
     29915      2747  TIP3      OH2            16.9674516564       26.6554726013       36.5071443822  TIP3      2555            0.0000000000
     29916      2747  TIP3      H1             16.4917956414       27.1067040365       35.7907644347  TIP3      2555            0.0000000000
     29917      2747  TIP3      H2             16.9525079053       25.7361671099       36.2020519074  TIP3      2555            0.0000000000
     29918      2748  TIP3      OH2             4.1079922834       33.0782236417       34.5113718855  TIP3      2556            0.0000000000
     29919      2748  TIP3      H1              4.3040922498       32.6961496781       35.3900231395  TIP3      2556            0.0000000000
     29920      2748  TIP3      H2              3.2424345007       32.6868934247       34.2822365693  TIP3      2556            0.0000000000
     29921      2749  TIP3      OH2             6.7858241383       21.5458611776       30.4508724732  TIP3      2557            0.0000000000
     29922      2749  TIP3      H1              5.8816028252       21.4133086944       30.0929744592  TIP3      2557            0.0000000000
     29923      2749  TIP3      H2              6.6501077916       22.3703553820       30.9448320555  TIP3      2557            0.0000000000
     29924      2750  TIP3      OH2            11.4319789855       21.2041935381       33.8220262612  TIP3      2558            0.0000000000
     29925      2750  TIP3      H1             11.8238873310       20.7819217543       34.6091641364  TIP3      2558            0.0000000000
     29926      2750  TIP3      H2             10.4597773726       21.0892636281       33.9688626982  TIP3      2558            0.0000000000
     29927      2751  TIP3      OH2            14.7194131068       25.0527211002       34.7248200477  TIP3      2559            0.0000000000
     29928      2751  TIP3      H1             14.1542416036       24.8380285591       35.5059424405  TIP3      2559            0.0000000000
     29929      2751  TIP3      H2             14.5344430815       25.9798991777       34.4961144505  TIP3      2559            0.0000000000
     29930      2752  TIP3      OH2             6.8913486831       26.5159513906       31.7224975015  TIP3      2560            0.0000000000
     29931      2752  TIP3      H1              6.1502823676       26.5043683199       32.3547553550  TIP3      2560            0.0000000000
     29932      2752  TIP3      H2              6.8420712020       27.4221032976       31.3432424983  TIP3      2560            0.0000000000
     29933      2753  TIP3      OH2             6.8370787019       26.6248429349       26.5863130879  TIP3      2561            0.0000000000
     29934      2753  TIP3      H1              5.8982174173       26.3780533046       26.4457278675  TIP3      2561            0.0000000000
     29935      2753  TIP3      H2              7.2350997500       26.3407251129       25.7444958198  TIP3      2561            0.0000000000
     29936      2754  TIP3      OH2            12.3569242533       27.0904222658       25.3050448022  TIP3      2562            0.0000000000
     29937      2754  TIP3      H1             11.9694289774       27.9445012080       25.0193754088  TIP3      2562            0.0000000000
     29938      2754  TIP3      H2             13.0750727442       26.9980492065       24.6731682581  TIP3      2562            0.0000000000
     29939      2755  TIP3      OH2            11.4241670690       27.3432222363       36.7860802652  TIP3      2563            0.0000000000
     29940      2755  TIP3      H1             10.8983591197       26.5665407079       37.0976279779  TIP3      2563            0.0000000000
     29941      2755  TIP3      H2             12.2617823603       27.2212416741       37.2629080397  TIP3      2563            0.0000000000
     29942      2756  TIP3      OH2            13.4022332714       26.6219617776       28.1775596123  TIP3      2564            0.0000000000
     29943      2756  TIP3      H1             13.1203303177       27.1807296640       27.4376832859  TIP3      2564            0.0000000000
     29944      2756  TIP3      H2             13.4989993444       25.7661662790       27.7183777767  TIP3      2564            0.0000000000
     29945      2757  TIP3      OH2             4.5109454465       26.7615319067       33.3943599158  TIP3      2565            0.0000000000
     29946      2757  TIP3      H1              4.5942126106       27.1702720150       34.2733273744  TIP3      2565            0.0000000000
     29947      2757  TIP3      H2              4.0710151701       25.9227823707       33.6066923504  TIP3      2565            0.0000000000
     29948      2758  TIP3      OH2             1.1789336336       23.8721909189       27.3728050523  TIP3      2566            0.0000000000
     29949      2758  TIP3      H1              1.8510759886       23.8260088271       28.0811528675  TIP3      2566            0.0000000000
     29950      2758  TIP3      H2              1.6332883866       23.4988953301       26.5947466487  TIP3      2566            0.0000000000
     29951      2759  TIP3      OH2            12.6002915827       28.2051150165       32.7480009895  TIP3      2567            0.0000000000
     29952      2759  TIP3      H1             12.9794667475       27.5182955680       32.1619526472  TIP3      2567            0.0000000000
     29953      2759  TIP3      H2             12.1335197744       27.6780681656       33.4209156912  TIP3      2567            0.0000000000
     29954      2760  TIP3      OH2             9.3778101226       24.1646154912       27.5806074167  TIP3      2568            0.0000000000
     29955      2760  TIP3      H1              8.4503160473       24.1953372883       27.8991464281  TIP3      2568            0.0000000000
     29956      2760  TIP3      H2              9.8825193994       24.0135396543       28.3952071371  TIP3      2568            0.0000000000
     29957      2761  TIP3      OH2             4.2107195557       25.7477852275       26.4324304533  TIP3      2569            0.0000000000
     29958      2761  TIP3      H1              3.3042439455       25.8670201438       26.0731222161  TIP3      2569            0.0000000000
     29959      2761  TIP3      H2              4.4918778913       24.8852669847       26.0910058441  TIP3      2569            0.0000000000
     29960      2762  TIP3      OH2             7.8140331012       25.7784692240       24.0867192020  TIP3      2570            0.0000000000
     29961      2762  TIP3      H1              8.7787040996       25.8375127699       24.2555842760  TIP3      2570            0.0000000000
     29962      2762  TIP3      H2              7.6740221290       26.4689031848       23.4324119933  TIP3      2570            0.0000000000
     29963      2763  TIP3      OH2            13.8107773257       23.4155016342       30.8253065396  TIP3      2571            0.0000000000
     29964      2763  TIP3      H1             13.1258930965       23.4683971153       31.5310085390  TIP3      2571            0.0000000000
     29965      2763  TIP3      H2             13.2988282167       23.1630526097       30.0424440334  TIP3      2571            0.0000000000
     29966      2764  TIP3      OH2             4.6866047052       31.5675065706       36.7176055545  TIP3      2572            0.0000000000
     29967      2764  TIP3      H1              5.4080151305       31.7754540593       37.3342382694  TIP3      2572            0.0000000000
     29968      2764  TIP3      H2              3.9121054992       31.5982145624       37.3230086783  TIP3      2572            0.0000000000
     29969      2765  TIP3      OH2            10.6857211027       26.9389854706       29.4747980120  TIP3      2573            0.0000000000
     29970      2765  TIP3      H1             11.2805470947       26.4037004401       28.9384742898  TIP3      2573            0.0000000000
     29971      2765  TIP3      H2             10.5404481100       26.3909305345       30.2577724665  TIP3      2573            0.0000000000
     29972      2766  TIP3      OH2             5.6657355925       23.1063892214       25.8196518267  TIP3      2574            0.0000000000
     29973      2766  TIP3      H1              5.3514399888       22.1818512447       25.9289224799  TIP3      2574            0.0000000000
     29974      2766  TIP3      H2              6.5239369513       23.0029092972       25.4094180229  TIP3      2574            0.0000000000
     29975      2767  TIP3      OH2             9.3252567384       25.2664573518       31.8914667203  TIP3      2575            0.0000000000
     29976      2767  TIP3      H1              8.5002792154       25.7862135121       31.9805068982  TIP3      2575            0.0000000000
     29977      2767  TIP3      H2              9.8798319118       25.6195660904       32.6141191946  TIP3      2575            0.0000000000
     29978      2768  TIP3      OH2            17.1051276804       30.6895136197       32.3939739583  TIP3      2576            0.0000000000
     29979      2768  TIP3      H1             17.6642569404       31.1876546137       31.7681621822  TIP3      2576            0.0000000000
     29980      2768  TIP3      H2             16.2435986007       30.7382465397       31.9307215130  TIP3      2576            0.0000000000
     29981      2769  TIP3      OH2            11.3791450522       31.7796657400       34.8223032524  TIP3      2577            0.0000000000
     29982      2769  TIP3      H1             11.0528049825       31.3401393877       35.6151204991  TIP3      2577            0.0000000000
     29983      2769  TIP3      H2             11.1579270833       32.7045547885       34.9481804007  TIP3      2577            0.0000000000
     29984      2770  TIP3      OH2             5.0413117758       30.8811263336       29.4041938094  TIP3      2578            0.0000000000
     29985      2770  TIP3      H1              5.6958438743       30.8180800974       28.6805145848  TIP3      2578            0.0000000000
     29986      2770  TIP3      H2              5.0830957062       30.0151867651       29.8375082101  TIP3      2578            0.0000000000
     29987      2771  TIP3      OH2             2.0164070536       29.2867807609       34.6468548449  TIP3      2579            0.0000000000
     29988      2771  TIP3      H1              2.1789135328       28.8511892198       35.5011226711  TIP3      2579            0.0000000000
     29989      2771  TIP3      H2              1.3913004219       28.6788221602       34.2108887496  TIP3      2579            0.0000000000
     29990      2772  TIP3      OH2             9.0241304009       28.8516145990       36.8240233761  TIP3      2580            0.0000000000
     29991      2772  TIP3      H1              8.7054108127       28.5360944372       35.9668806320  TIP3      2580            0.0000000000
     29992      2772  TIP3      H2              9.9473986596       28.5240610259       36.8255016275  TIP3      2580            0.0000000000
     29993      2773  TIP3      OH2            13.6960140111       34.2451170751       34.7076115951  TIP3      2581            0.0000000000
     29994      2773  TIP3      H1             12.7554013588       34.3154387720       34.5313914657  TIP3      2581            0.0000000000
     29995      2773  TIP3      H2             13.6737818723       34.4255515304       35.6794853988  TIP3      2581            0.0000000000
     29996      2774  TIP3      OH2            19.3727857579       26.3709513257       23.1630148011  TIP3      2582            0.0000000000
     29997      2774  TIP3      H1             18.8310600947       26.0131278853       22.4408393153  TIP3      2582            0.0000000000
     29998      2774  TIP3      H2             19.4180688981       27.3005825725       22.8994974771  TIP3      2582            0.0000000000
     29999      2775  TIP3      OH2            19.3877810709       32.2020744456       35.9673964586  TIP3      2583            0.0000000000
     30000      2775  TIP3      H1             18.4939845521       32.4460094049       35.6215545987  TIP3      2583            0.0000000000
     30001      2775  TIP3      H2             19.9168189307       32.1564335886       35.1449319468  TIP3      2583            0.0000000000
     30002      2776  TIP3      OH2            17.9146633087       34.8276544905       23.7179198477  TIP3      2584            0.0000000000
     30003      2776  TIP3      H1             17.1603378883       34.2598090263       23.9303767903  TIP3      2584            0.0000000000
     30004      2776  TIP3      H2             17.8458071244       35.1320562043       22.8027913221  TIP3      2584            0.0000000000
     30005      2777  TIP3      OH2            14.8795977975       30.0049202621       30.6835116971  TIP3      2585            0.0000000000
     30006      2777  TIP3      H1             13.9388606119       29.8003275114       30.5630589373  TIP3      2585            0.0000000000
     30007      2777  TIP3      H2             15.3097453972       29.2491357370       30.2393409158  TIP3      2585            0.0000000000
     30008      2778  TIP3      OH2             7.4389570864       34.3110740381       26.7065186861  TIP3      2586            0.0000000000
     30009      2778  TIP3      H1              7.9092450377       35.1453069561       26.5950096968  TIP3      2586            0.0000000000
     30010      2778  TIP3      H2              6.5154908134       34.5328767683       26.5134592871  TIP3      2586            0.0000000000
     30011      2779  TIP3      OH2             8.8414207440       32.0077540149       26.3251541441  TIP3      2587            0.0000000000
     30012      2779  TIP3      H1              8.5106736490       32.9212113614       26.3756136633  TIP3      2587            0.0000000000
     30013      2779  TIP3      H2              8.0973925285       31.5147227364       26.7195998398  TIP3      2587            0.0000000000
     30014      2780  TIP3      OH2             9.5705525260       35.8676769157       32.3882232055  TIP3      2588            0.0000000000
     30015      2780  TIP3      H1              9.7141135220       36.8195823182       32.3147018002  TIP3      2588            0.0000000000
     30016      2780  TIP3      H2              9.8799933180       35.7161448296       33.2928077168  TIP3      2588            0.0000000000
     30017      2781  TIP3      OH2            12.7900310616       32.1892406361       32.3239334976  TIP3      2589            0.0000000000
     30018      2781  TIP3      H1             12.4475124113       31.9701511479       33.2132107045  TIP3      2589            0.0000000000
     30019      2781  TIP3      H2             13.4227270054       31.4763170753       32.1502807672  TIP3      2589            0.0000000000
     30020      2782  TIP3      OH2             3.6631952347       24.0224882861       34.1971890896  TIP3      2590            0.0000000000
     30021      2782  TIP3      H1              2.7567335470       24.3745034998       34.1793713607  TIP3      2590            0.0000000000
     30022      2782  TIP3      H2              3.5519968283       23.1777787560       34.6616206559  TIP3      2590            0.0000000000
     30023      2783  TIP3      OH2            15.9326077673       31.8176241872       23.6317662287  TIP3      2591            0.0000000000
     30024      2783  TIP3      H1             15.6389586209       31.0761608739       24.2140866566  TIP3      2591            0.0000000000
     30025      2783  TIP3      H2             16.8251807309       31.9505911144       23.9366472098  TIP3      2591            0.0000000000
     30026      2784  TIP3      OH2             3.2883373716       35.7877322184       32.6280887228  TIP3      2592            0.0000000000
     30027      2784  TIP3      H1              3.5543324354       34.8645541690       32.6471201819  TIP3      2592            0.0000000000
     30028      2784  TIP3      H2              3.4819974336       36.1085663748       33.5203409871  TIP3      2592            0.0000000000
     30029      2785  TIP3      OH2             9.2295785582       34.2842614856       19.8746914651  TIP3      2593            0.0000000000
     30030      2785  TIP3      H1              9.4025874075       33.5182413476       19.3297299004  TIP3      2593            0.0000000000
     30031      2785  TIP3      H2              8.8359742766       33.9145724154       20.6952179775  TIP3      2593            0.0000000000
     30032      2786  TIP3      OH2             8.1209553810       33.8084434752       22.3112293609  TIP3      2594            0.0000000000
     30033      2786  TIP3      H1              8.2730451435       33.3332008311       23.1373976831  TIP3      2594            0.0000000000
     30034      2786  TIP3      H2              8.0892234304       34.7306507122       22.5890294464  TIP3      2594            0.0000000000
     30035      2787  TIP3      OH2             4.6276686483       31.1209062432       22.8459012126  TIP3      2595            0.0000000000
     30036      2787  TIP3      H1              3.8809285639       31.4965719545       23.3723890945  TIP3      2595            0.0000000000
     30037      2787  TIP3      H2              5.0644046504       31.9393183909       22.5694430900  TIP3      2595            0.0000000000
     30038      2788  TIP3      OH2            12.3952084828       23.7958727325       33.1647280981  TIP3      2596            0.0000000000
     30039      2788  TIP3      H1             13.1112020951       23.8558155977       33.8062534907  TIP3      2596            0.0000000000
     30040      2788  TIP3      H2             12.0123530494       22.9191436509       33.3677303434  TIP3      2596            0.0000000000
     30041      2789  TIP3      OH2            13.2857929142       23.3462836210       24.1566928158  TIP3      2597            0.0000000000
     30042      2789  TIP3      H1             13.3126456150       23.9837459805       23.4269957844  TIP3      2597            0.0000000000
     30043      2789  TIP3      H2             13.7130399367       23.8177529640       24.8967548068  TIP3      2597            0.0000000000
     30044      2790  TIP3      OH2            10.8383236588       35.5605501176       23.0443141363  TIP3      2598            0.0000000000
     30045      2790  TIP3      H1             10.0153908102       36.0525346425       23.0838700673  TIP3      2598            0.0000000000
     30046      2790  TIP3      H2             11.3590750990       36.0440432360       22.3907102505  TIP3      2598            0.0000000000
     30047      2791  TIP3      OH2            10.3533505180       25.1026067710       25.0590635985  TIP3      2599            0.0000000000
     30048      2791  TIP3      H1             11.1324426448       25.6962032448       25.0780330995  TIP3      2599            0.0000000000
     30049      2791  TIP3      H2             10.1170408674       24.9860311292       25.9963497870  TIP3      2599            0.0000000000
     30050      2792  TIP3      OH2            10.9211185659       26.1408776358       34.2622004160  TIP3      2600            0.0000000000
     30051      2792  TIP3      H1             10.9980006281       26.7007036815       35.0587079439  TIP3      2600            0.0000000000
     30052      2792  TIP3      H2             11.5862091962       25.4472986633       34.3555459596  TIP3      2600            0.0000000000
     30053      2793  TIP3      OH2            11.2312995581       22.1959642890       25.9302144933  TIP3      2601            0.0000000000
     30054      2793  TIP3      H1             10.8848970579       22.8082289309       26.6037995216  TIP3      2601            0.0000000000
     30055      2793  TIP3      H2             11.9197028736       22.7618417627       25.5201773199  TIP3      2601            0.0000000000
     30056      2794  TIP3      OH2            17.1003926600       24.0091156400       35.1122146364  TIP3      2602            0.0000000000
     30057      2794  TIP3      H1             16.1739540210       24.3261866657       34.9788126932  TIP3      2602            0.0000000000
     30058      2794  TIP3      H2             17.4022930124       23.9966689344       34.1870769494  TIP3      2602            0.0000000000
     30059      2795  TIP3      OH2            15.7100176912       27.8056084332       29.1471260059  TIP3      2603            0.0000000000
     30060      2795  TIP3      H1             14.9000888343       27.3568110579       28.8350330592  TIP3      2603            0.0000000000
     30061      2795  TIP3      H2             16.1970196556       27.1031319183       29.6314201114  TIP3      2603            0.0000000000
     30062      2796  TIP3      OH2             5.1421423033       33.7104538372       21.7239492678  TIP3      2604            0.0000000000
     30063      2796  TIP3      H1              5.7722872238       34.3962910179       21.9783865861  TIP3      2604            0.0000000000
     30064      2796  TIP3      H2              5.6510796427       33.2736556662       21.0141457553  TIP3      2604            0.0000000000
     30065      2797  TIP3      OH2             4.2690506584       21.1788635728       29.5796695739  TIP3      2605            0.0000000000
     30066      2797  TIP3      H1              4.0677420307       21.1914277788       28.6168229933  TIP3      2605            0.0000000000
     30067      2797  TIP3      H2              3.8556262521       20.3298053639       29.8438456364  TIP3      2605            0.0000000000
     30068      2798  TIP3      OH2             3.3849332172       35.2039160560       25.5895789738  TIP3      2606            0.0000000000
     30069      2798  TIP3      H1              2.4437317421       35.4427029770       25.7333208466  TIP3      2606            0.0000000000
     30070      2798  TIP3      H2              3.7187115085       35.7358320852       24.8804354797  TIP3      2606            0.0000000000
     30071      2799  TIP3      OH2             7.3979973026       36.3505228065       38.8447817805  TIP3      2607            0.0000000000
     30072      2799  TIP3      H1              8.2528905093       35.9495772975       39.0158615852  TIP3      2607            0.0000000000
     30073      2799  TIP3      H2              7.3215444556       36.2100192175       37.8843177509  TIP3      2607            0.0000000000
     30074      2800  TIP3      OH2            11.2135093342       36.1620599492       20.0960018905  TIP3      2608            0.0000000000
     30075      2800  TIP3      H1             10.4875438151       35.5202528940       20.2245258209  TIP3      2608            0.0000000000
     30076      2800  TIP3      H2             11.9357598643       35.6285035874       19.7723188929  TIP3      2608            0.0000000000
     30077      2801  TIP3      OH2            13.7061831759       34.6746752575       37.2291442857  TIP3      2609            0.0000000000
     30078      2801  TIP3      H1             13.2273222195       34.0011225948       37.7425549100  TIP3      2609            0.0000000000
     30079      2801  TIP3      H2             14.3135996429       35.0454547349       37.8853648669  TIP3      2609            0.0000000000
     30080      2802  TIP3      OH2            15.8007021202       35.9433633466       20.2638532658  TIP3      2610            0.0000000000
     30081      2802  TIP3      H1             16.1080514712       35.1767428443       20.7334626877  TIP3      2610            0.0000000000
     30082      2802  TIP3      H2             16.5259975694       36.2091124589       19.6907633473  TIP3      2610            0.0000000000
     30083      2803  TIP3      OH2             2.3492565727       31.5175648126       38.0018316801  TIP3      2611            0.0000000000
     30084      2803  TIP3      H1              2.4977814507       30.6039420483       37.7019782331  TIP3      2611            0.0000000000
     30085      2803  TIP3      H2              1.5962556566       31.8011715079       37.4430085522  TIP3      2611            0.0000000000
     30086      2804  TIP3      OH2             6.7022731598       31.8435113779       20.0456483154  TIP3      2612            0.0000000000
     30087      2804  TIP3      H1              6.8545785423       31.1040776206       20.6299759922  TIP3      2612            0.0000000000
     30088      2804  TIP3      H2              7.4258379380       31.7899214299       19.4153078259  TIP3      2612            0.0000000000
     30089      2805  TIP3      OH2             9.0749437954       31.5111899021       37.3903635614  TIP3      2613            0.0000000000
     30090      2805  TIP3      H1              8.7153019060       31.8134203356       36.5347189853  TIP3      2613            0.0000000000
     30091      2805  TIP3      H2              9.1326510134       30.5275044198       37.2924254898  TIP3      2613            0.0000000000
     30092      2806  TIP3      OH2            14.7585093810       31.3755083829       34.7929169777  TIP3      2614            0.0000000000
     30093      2806  TIP3      H1             15.5439861653       31.9573782580       34.7209324608  TIP3      2614            0.0000000000
     30094      2806  TIP3      H2             14.0550479450       32.0377486220       34.8342116548  TIP3      2614            0.0000000000
     30095      2807  TIP3      OH2             3.2698479549       28.7626521735       37.3962844411  TIP3      2615            0.0000000000
     30096      2807  TIP3      H1              3.6770905850       27.8945747783       37.3028296100  TIP3      2615            0.0000000000
     30097      2807  TIP3      H2              3.0273458867       28.7591407912       38.3363276829  TIP3      2615            0.0000000000
     30098      2808  TIP3      OH2             7.1594590743       27.6947656752       34.7493300071  TIP3      2616            0.0000000000
     30099      2808  TIP3      H1              6.5632498567       28.4162806871       35.0064453612  TIP3      2616            0.0000000000
     30100      2808  TIP3      H2              7.5578382637       28.0625724534       33.9418983285  TIP3      2616            0.0000000000
     30101      2809  TIP3      OH2            12.2327761141       30.2626946156       38.0858875165  TIP3      2617            0.0000000000
     30102      2809  TIP3      H1             13.1909566415       30.2513171089       37.9619650458  TIP3      2617            0.0000000000
     30103      2809  TIP3      H2             12.0627636729       29.4949017741       38.6566006877  TIP3      2617            0.0000000000
     30104      2810  TIP3      OH2             7.5668593216       25.0720294423       35.8062753581  TIP3      2618            0.0000000000
     30105      2810  TIP3      H1              7.6835509585       24.3633054177       35.1470207654  TIP3      2618            0.0000000000
     30106      2810  TIP3      H2              7.5224441477       25.8831710408       35.2575139683  TIP3      2618            0.0000000000
     30107      2811  TIP3      OH2             7.9713957762       23.4547376603       33.3602704319  TIP3      2619            0.0000000000
     30108      2811  TIP3      H1              8.4790275571       23.9170064246       32.6510546148  TIP3      2619            0.0000000000
     30109      2811  TIP3      H2              7.0773306099       23.3764053461       32.9554749225  TIP3      2619            0.0000000000
     30110      2812  TIP3      OH2             9.5099302151       28.9435584084       33.6046671083  TIP3      2620            0.0000000000
     30111      2812  TIP3      H1             10.2633115680       28.7774443057       33.0298511840  TIP3      2620            0.0000000000
     30112      2812  TIP3      H2              9.1431292780       29.7762459204       33.2664765599  TIP3      2620            0.0000000000
     30113      2813  TIP3      OH2            13.9041836269       26.6952259705       38.5632093610  TIP3      2621            0.0000000000
     30114      2813  TIP3      H1             14.1399610106       25.7604008067       38.4735280616  TIP3      2621            0.0000000000
     30115      2813  TIP3      H2             14.7695698992       27.1382375462       38.5947519492  TIP3      2621            0.0000000000
     30116      2814  TIP3      OH2            15.2457099307       29.4916105325       36.7308630063  TIP3      2622            0.0000000000
     30117      2814  TIP3      H1             14.9923258205       30.2132019093       36.1151049397  TIP3      2622            0.0000000000
     30118      2814  TIP3      H2             16.2022642399       29.4730568084       36.5452999075  TIP3      2622            0.0000000000
     30119      2815  TIP3      OH2             6.0264874531       26.3217437388       37.7227344985  TIP3      2623            0.0000000000
     30120      2815  TIP3      H1              5.2540468753       25.7486932129       37.5409653490  TIP3      2623            0.0000000000
     30121      2815  TIP3      H2              6.6832788085       25.9541104584       37.1056680683  TIP3      2623            0.0000000000
     30122      2816  TIP3      OH2             8.7621700624       20.8912043116       33.7454513504  TIP3      2624            0.0000000000
     30123      2816  TIP3      H1              8.5772944746       21.8539966993       33.6535039078  TIP3      2624            0.0000000000
     30124      2816  TIP3      H2              8.0106694210       20.5249623075       33.2473643446  TIP3      2624            0.0000000000
     30125      2817  TIP3      OH2            10.0242260095       25.2260388658       37.3897990023  TIP3      2625            0.0000000000
     30126      2817  TIP3      H1              9.7105917326       24.9852820071       38.2802999389  TIP3      2625            0.0000000000
     30127      2817  TIP3      H2              9.2493540233       25.0177438306       36.8394665940  TIP3      2625            0.0000000000
     30128      2818  TIP3      OH2            12.7510398665       24.3654794784       36.4685283532  TIP3      2626            0.0000000000
     30129      2818  TIP3      H1             11.7861548806       24.4177712386       36.5764945899  TIP3      2626            0.0000000000
     30130      2818  TIP3      H2             13.0150469131       23.7237248543       37.1557228129  TIP3      2626            0.0000000000
     30131      2819  TIP3      OH2            14.3327551972       22.9833132036       38.3665663326  TIP3      2627            0.0000000000
     30132      2819  TIP3      H1             14.2847365493       22.0054125831       38.3974602125  TIP3      2627            0.0000000000
     30133      2819  TIP3      H2             14.0843902156       23.2756057233       39.2658586162  TIP3      2627            0.0000000000
     30134      2820  TIP3      OH2             4.1027620382       24.2601845695       37.4823152023  TIP3      2628            0.0000000000
     30135      2820  TIP3      H1              4.3545498541       23.5245823284       36.8969517066  TIP3      2628            0.0000000000
     30136      2820  TIP3      H2              4.0174288526       23.8121809522       38.3467250363  TIP3      2628            0.0000000000
     30137      2821  TIP3      OH2             8.9739114254       20.2848139473       36.4494862896  TIP3      2629            0.0000000000
     30138      2821  TIP3      H1              9.6535861167       19.5807742407       36.4326354239  TIP3      2629            0.0000000000
     30139      2821  TIP3      H2              8.8592162350       20.4271211928       35.4894283081  TIP3      2629            0.0000000000
     30140      2822  TIP3      OH2             9.3358532884       21.8973721978       38.5663082087  TIP3      2630            0.0000000000
     30141      2822  TIP3      H1              9.1623782056       21.3917554208       37.7335907015  TIP3      2630            0.0000000000
     30142      2822  TIP3      H2              8.7364893397       22.6618791836       38.4653929244  TIP3      2630            0.0000000000
     30143      2823  TIP3      OH2             2.4246097876       33.4432032263       21.1479415399  TIP3      2631            0.0000000000
     30144      2823  TIP3      H1              3.3461237675       33.4406135069       21.4642616145  TIP3      2631            0.0000000000
     30145      2823  TIP3      H2              2.4282080144       32.7141430559       20.5085433522  TIP3      2631            0.0000000000
     30146      2824  TIP3      OH2            17.5125713765       33.0221898931       38.5847739359  TIP3      2632            0.0000000000
     30147      2824  TIP3      H1             16.6172776596       32.9757305228       38.9749220832  TIP3      2632            0.0000000000
     30148      2824  TIP3      H2             17.9065546250       33.8090650207       39.0295586205  TIP3      2632            0.0000000000
     30149      2825  TIP3      OH2            19.2173632871       29.4140433750       25.9029691898  TIP3      2633            0.0000000000
     30150      2825  TIP3      H1             18.4498452276       28.9422761082       26.2936165767  TIP3      2633            0.0000000000
     30151      2825  TIP3      H2             19.7942343260       29.5706612169       26.6714817619  TIP3      2633            0.0000000000
     30152      2826  TIP3      OH2            18.9565912497       32.1105950725       30.9276056183  TIP3      2634            0.0000000000
     30153      2826  TIP3      H1             19.7593598898       31.7401817256       30.5234662907  TIP3      2634            0.0000000000
     30154      2826  TIP3      H2             19.0945910039       33.0660526173       30.7540128580  TIP3      2634            0.0000000000
     30155      2827  TIP3      OH2            17.4440997696       34.9984834593       33.2223866526  TIP3      2635            0.0000000000
     30156      2827  TIP3      H1             16.7477839187       35.3802906638       33.7555417527  TIP3      2635            0.0000000000
     30157      2827  TIP3      H2             16.9449150902       34.6427627720       32.4494056115  TIP3      2635            0.0000000000
     30158      2828  TIP3      OH2            17.0033438593       27.8883548818       26.4700893511  TIP3      2636            0.0000000000
     30159      2828  TIP3      H1             16.8511012969       26.9310868584       26.4392729549  TIP3      2636            0.0000000000
     30160      2828  TIP3      H2             16.6802024553       28.1154415430       27.3606286042  TIP3      2636            0.0000000000
     30161      2829  TIP3      OH2             2.0176941139       29.9384299288       30.5543155448  TIP3      2637            0.0000000000
     30162      2829  TIP3      H1              2.1837332490       29.9291778100       29.5835561128  TIP3      2637            0.0000000000
     30163      2829  TIP3      H2              2.9258921878       29.8221649385       30.8858990681  TIP3      2637            0.0000000000
     30164      2830  TIP3      OH2            17.8725356328       29.8655642505       36.1752309535  TIP3      2638            0.0000000000
     30165      2830  TIP3      H1             18.4829854873       29.1090200652       36.3082321309  TIP3      2638            0.0000000000
     30166      2830  TIP3      H2             18.4783279891       30.6375095022       36.1801099959  TIP3      2638            0.0000000000
     30167      2831  TIP3      OH2            19.3755267941       27.7438471715       36.8256468630  TIP3      2639            0.0000000000
     30168      2831  TIP3      H1             18.4922179654       27.3455421574       36.6709201271  TIP3      2639            0.0000000000
     30169      2831  TIP3      H2             19.9450923914       26.9606207495       36.7489088179  TIP3      2639            0.0000000000
     30170      2832  TIP3      OH2            16.6638319390       25.4489850969       25.0271673764  TIP3      2640            0.0000000000
     30171      2832  TIP3      H1             16.9875262681       24.5257341619       25.0476650904  TIP3      2640            0.0000000000
     30172      2832  TIP3      H2             17.4029269907       25.8747678553       24.5658015672  TIP3      2640            0.0000000000
     30173      2833  TIP3      OH2            17.3186187482       26.0239489156       30.3871130158  TIP3      2641            0.0000000000
     30174      2833  TIP3      H1             18.2781494891       26.2551011694       30.3724507416  TIP3      2641            0.0000000000
     30175      2833  TIP3      H2             17.1314542303       26.1646836284       31.3268534322  TIP3      2641            0.0000000000
     30176      2834  TIP3      OH2            17.3880915881       26.7453987721       33.1759301616  TIP3      2642            0.0000000000
     30177      2834  TIP3      H1             16.5022851635       27.0346848182       33.4836642511  TIP3      2642            0.0000000000
     30178      2834  TIP3      H2             17.8193139115       27.6053023999       32.9458405108  TIP3      2642            0.0000000000
     30179      2835  TIP3      OH2             1.6376971184       25.2827279810       36.7003974099  TIP3      2643            0.0000000000
     30180      2835  TIP3      H1              2.5727864723       25.0762154178       36.8908754556  TIP3      2643            0.0000000000
     30181      2835  TIP3      H2              1.1793708943       24.4598444728       36.9729671395  TIP3      2643            0.0000000000
     30182      2836  TIP3      OH2            19.6576336540       20.8103264656       38.5067170568  TIP3      2644            0.0000000000
     30183      2836  TIP3      H1             20.0099048008       20.1490772855       37.8861238902  TIP3      2644            0.0000000000
     30184      2836  TIP3      H2             19.7594340934       21.6247650537       37.9745756934  TIP3      2644            0.0000000000
     30185      2837  TIP3      OH2            17.3458026278       22.7407657359       24.9766026427  TIP3      2645            0.0000000000
     30186      2837  TIP3      H1             17.5820975721       22.3294092864       25.8374765537  TIP3      2645            0.0000000000
     30187      2837  TIP3      H2             16.7398473308       22.0991090913       24.5685677505  TIP3      2645            0.0000000000
     30188      2838  TIP3      OH2             2.8372104733       23.5697662308       29.5487154702  TIP3      2646            0.0000000000
     30189      2838  TIP3      H1              3.2957987804       22.7450482990       29.8046526210  TIP3      2646            0.0000000000
     30190      2838  TIP3      H2              3.3867972604       24.2619776496       29.9390548262  TIP3      2646            0.0000000000
     30191      2839  TIP3      OH2             1.1179205276       26.5759531785       30.5838835377  TIP3      2647            0.0000000000
     30192      2839  TIP3      H1              1.6824239297       26.3261491547       29.8244364628  TIP3      2647            0.0000000000
     30193      2839  TIP3      H2              1.5855962061       27.3806858077       30.8531531355  TIP3      2647            0.0000000000
     30194      2840  TIP3      OH2            19.1783221894       22.9082599435       36.8618705553  TIP3      2648            0.0000000000
     30195      2840  TIP3      H1             18.2411130619       23.1797947542       36.8081902424  TIP3      2648            0.0000000000
     30196      2840  TIP3      H2             19.2114355450       22.3570968754       36.0652280431  TIP3      2648            0.0000000000
     30197      2841  TIP3      OH2             1.5010300966       22.9581239435       24.7054079531  TIP3      2649            0.0000000000
     30198      2841  TIP3      H1              0.5483675878       22.9700377132       24.5243592793  TIP3      2649            0.0000000000
     30199      2841  TIP3      H2              1.8777974016       23.2456443172       23.8839617082  TIP3      2649            0.0000000000
     30200      2842  TIP3      OH2             1.4320206162       21.4851190138       32.9497400483  TIP3      2650            0.0000000000
     30201      2842  TIP3      H1              0.7643663333       21.2963288133       33.6325187468  TIP3      2650            0.0000000000
     30202      2842  TIP3      H2              0.9762253501       22.1612526766       32.4072770608  TIP3      2650            0.0000000000
     30203      2843  TIP3      OH2             3.6672380232       34.7461424685       37.1321763665  TIP3      2651            0.0000000000
     30204      2843  TIP3      H1              2.8165235398       34.8835172761       36.6757527395  TIP3      2651            0.0000000000
     30205      2843  TIP3      H2              3.3900715910       34.5800657699       38.0388951687  TIP3      2651            0.0000000000
     30206      2844  TIP3      OH2             6.6189469928       35.6884797033       33.4726997370  TIP3      2652            0.0000000000
     30207      2844  TIP3      H1              6.1673423868       36.4608486953       33.0971213973  TIP3      2652            0.0000000000
     30208      2844  TIP3      H2              7.4738858771       35.6665607940       33.0212484226  TIP3      2652            0.0000000000
     30209      2845  TIP3      OH2            18.1979479694       20.9993425560       34.7147803472  TIP3      2653            0.0000000000
     30210      2845  TIP3      H1             17.3708140685       21.2992253161       34.2995642837  TIP3      2653            0.0000000000
     30211      2845  TIP3      H2             18.3665611680       20.1757569909       34.1983577025  TIP3      2653            0.0000000000
     30212      2846  TIP3      OH2             5.7800278761       36.0405521360       28.7684920669  TIP3      2654            0.0000000000
     30213      2846  TIP3      H1              5.3679965348       35.2776099636       29.2077343720  TIP3      2654            0.0000000000
     30214      2846  TIP3      H2              6.3538434108       36.3903681914       29.4648770980  TIP3      2654            0.0000000000
     30215      2847  TIP3      OH2            11.5841930134       22.4210026523       28.9979122503  TIP3      2655            0.0000000000
     30216      2847  TIP3      H1             10.9076996751       21.7820917866       29.2700691261  TIP3      2655            0.0000000000
     30217      2847  TIP3      H2             12.1447235946       21.8901629278       28.4208766321  TIP3      2655            0.0000000000
     30218      2848  TIP3      OH2            16.7223751789       20.4696384348       29.0564263275  TIP3      2656            0.0000000000
     30219      2848  TIP3      H1             17.3357898160       21.0661510114       28.5559190064  TIP3      2656            0.0000000000
     30220      2848  TIP3      H2             15.8400175173       20.8341612917       28.8347651757  TIP3      2656            0.0000000000
     30221      2849  TIP3      OH2            18.3869917916       21.7283801237       27.3305504626  TIP3      2657            0.0000000000
     30222      2849  TIP3      H1             19.0842362851       21.1500396285       26.9393867859  TIP3      2657            0.0000000000
     30223      2849  TIP3      H2             18.9004103525       22.5589727532       27.4700400935  TIP3      2657            0.0000000000
     30224      2850  TIP3      OH2             3.9531156152       21.0620257830       26.8161298088  TIP3      2658            0.0000000000
     30225      2850  TIP3      H1              3.1427783133       20.8298879837       26.3224976935  TIP3      2658            0.0000000000
     30226      2850  TIP3      H2              4.4140421247       20.1992198708       26.7831102795  TIP3      2658            0.0000000000
     30227      2851  TIP3      OH2             8.4150969964       21.0044315182       26.6183995619  TIP3      2659            0.0000000000
     30228      2851  TIP3      H1              9.3336423500       21.3288946525       26.5634125099  TIP3      2659            0.0000000000
     30229      2851  TIP3      H2              8.3953222596       20.7567992260       27.5510831218  TIP3      2659            0.0000000000
     30230      2852  TIP3      OH2            14.1446317963       20.9967950529       28.2545777601  TIP3      2660            0.0000000000
     30231      2852  TIP3      H1             14.0814214067       21.1108773047       27.2965079753  TIP3      2660            0.0000000000
     30232      2852  TIP3      H2             13.7491129501       20.1014579734       28.3911261263  TIP3      2660            0.0000000000
     30233      2853  TIP3      OH2            15.3800370787       21.0343269374       23.8722158422  TIP3      2661            0.0000000000
     30234      2853  TIP3      H1             14.6346861069       21.6471313409       23.8340868529  TIP3      2661            0.0000000000
     30235      2853  TIP3      H2             14.9469393428       20.1957723428       24.1575609081  TIP3      2661            0.0000000000
     30236      2854  TIP3      OH2             3.8440582196       21.5934850615       36.2961928658  TIP3      2662            0.0000000000
     30237      2854  TIP3      H1              3.4553614973       20.7982674390       36.7029005076  TIP3      2662            0.0000000000
     30238      2854  TIP3      H2              4.7527743953       21.5512268110       36.6796172185  TIP3      2662            0.0000000000
     30239      2855  TIP3      OH2             5.8422177856       20.9763487401       37.9428528441  TIP3      2663            0.0000000000
     30240      2855  TIP3      H1              6.7340141472       20.6381836816       37.7248074730  TIP3      2663            0.0000000000
     30241      2855  TIP3      H2              5.4701509032       20.1682990233       38.3451173849  TIP3      2663            0.0000000000
     30242      2856  TIP3      OH2            14.2477323830       20.2622225303       38.0916487592  TIP3      2664            0.0000000000
     30243      2856  TIP3      H1             14.3408742132       19.7894382643       38.9408951510  TIP3      2664            0.0000000000
     30244      2856  TIP3      H2             15.1635696261       20.2289101763       37.7485926863  TIP3      2664            0.0000000000
     30245      2857  TIP3      OH2            17.2786840865      -36.7605537965       36.8911633539  TIP3      2665            0.0000000000
     30246      2857  TIP3      H1             16.6550270554      -36.8882076921       36.1724545232  TIP3      2665            0.0000000000
     30247      2857  TIP3      H2             17.4182132167      -35.8010516976       36.8864169255  TIP3      2665            0.0000000000
     30248      2858  TIP3      OH2            31.8700951681       30.1813412395       26.7599139277  TIP3      2666            0.0000000000
     30249      2858  TIP3      H1             31.9181168701       31.1587654028       26.6539654983  TIP3      2666            0.0000000000
     30250      2858  TIP3      H2             31.1963476921       29.9486071232       26.0992881434  TIP3      2666            0.0000000000
     30251      2859  TIP3      OH2            30.7575752723       29.4447603321       30.2040630895  TIP3      2667            0.0000000000
     30252      2859  TIP3      H1             30.7401375106       28.7967097786       30.9235834862  TIP3      2667            0.0000000000
     30253      2859  TIP3      H2             30.4298445313       28.9338227639       29.4417143744  TIP3      2667            0.0000000000
     30254      2860  TIP3      OH2            23.1091509951       29.1227193493       31.7576122456  TIP3      2668            0.0000000000
     30255      2860  TIP3      H1             23.1937124890       28.4351248871       32.4510925915  TIP3      2668            0.0000000000
     30256      2860  TIP3      H2             23.8594548018       29.6923281007       31.9802968554  TIP3      2668            0.0000000000
     30257      2861  TIP3      OH2            34.4613500098       32.3699869419       28.4915892589  TIP3      2669            0.0000000000
     30258      2861  TIP3      H1             34.0421764535       31.6624916615       28.9873489270  TIP3      2669            0.0000000000
     30259      2861  TIP3      H2             34.4840929147       33.0885506029       29.1428297121  TIP3      2669            0.0000000000
     30260      2862  TIP3      OH2            24.0574240015       33.5711397300       30.2909841994  TIP3      2670            0.0000000000
     30261      2862  TIP3      H1             23.7237912324       32.7131023817       29.9547894418  TIP3      2670            0.0000000000
     30262      2862  TIP3      H2             25.0094037888       33.3753660077       30.2973494586  TIP3      2670            0.0000000000
     30263      2863  TIP3      OH2            20.6870960039       27.1358217346       25.7268161462  TIP3      2671            0.0000000000
     30264      2863  TIP3      H1             20.2310766273       28.0011466054       25.7036112308  TIP3      2671            0.0000000000
     30265      2863  TIP3      H2             20.1147381236       26.5878755431       25.1752243801  TIP3      2671            0.0000000000
     30266      2864  TIP3      OH2            21.3842641517       29.3478254324       27.8925309974  TIP3      2672            0.0000000000
     30267      2864  TIP3      H1             21.6566565442       28.5250659231       28.3377748877  TIP3      2672            0.0000000000
     30268      2864  TIP3      H2             22.0866070956       29.4618708488       27.2362671634  TIP3      2672            0.0000000000
     30269      2865  TIP3      OH2            29.1202550180       31.8200797930       30.6922264566  TIP3      2673            0.0000000000
     30270      2865  TIP3      H1             29.4677515690       31.2153029014       30.0175319224  TIP3      2673            0.0000000000
     30271      2865  TIP3      H2             29.9370606543       32.0211343983       31.1815097724  TIP3      2673            0.0000000000
     30272      2866  TIP3      OH2            32.3115250358       26.3198088139       30.9848584728  TIP3      2674            0.0000000000
     30273      2866  TIP3      H1             32.4768238280       25.3599652350       30.9760150733  TIP3      2674            0.0000000000
     30274      2866  TIP3      H2             32.2102604731       26.4648961896       30.0252157570  TIP3      2674            0.0000000000
     30275      2867  TIP3      OH2            25.4085294259       24.4038301512       28.2035415295  TIP3      2675            0.0000000000
     30276      2867  TIP3      H1             25.5215380363       25.2378104351       27.7105191888  TIP3      2675            0.0000000000
     30277      2867  TIP3      H2             25.0117031282       23.8312398822       27.5098013904  TIP3      2675            0.0000000000
     30278      2868  TIP3      OH2            33.1856878085       24.5300217079       26.5814200462  TIP3      2676            0.0000000000
     30279      2868  TIP3      H1             33.8215036255       24.1750276497       27.2522970680  TIP3      2676            0.0000000000
     30280      2868  TIP3      H2             33.7777345221       25.0474227808       26.0245851994  TIP3      2676            0.0000000000
     30281      2869  TIP3      OH2            22.0377642255       26.8126746237       28.9384661200  TIP3      2677            0.0000000000
     30282      2869  TIP3      H1             22.7073014884       26.2696568528       29.3945896183  TIP3      2677            0.0000000000
     30283      2869  TIP3      H2             22.1444208471       26.4990158941       28.0273641600  TIP3      2677            0.0000000000
     30284      2870  TIP3      OH2            27.1960154697       28.3694012095       28.2610868370  TIP3      2678            0.0000000000
     30285      2870  TIP3      H1             27.8676825272       27.7879905331       28.6592175312  TIP3      2678            0.0000000000
     30286      2870  TIP3      H2             26.6825504470       27.7145904362       27.7483774785  TIP3      2678            0.0000000000
     30287      2871  TIP3      OH2            24.3237035872       23.3026973831       32.2451869388  TIP3      2679            0.0000000000
     30288      2871  TIP3      H1             24.0408770298       23.8736372764       31.4994972643  TIP3      2679            0.0000000000
     30289      2871  TIP3      H2             23.6459838337       23.5306866193       32.9274071378  TIP3      2679            0.0000000000
     30290      2872  TIP3      OH2            31.5920770388       32.7745877569       25.8103317773  TIP3      2680            0.0000000000
     30291      2872  TIP3      H1             31.3516904704       32.5207286444       24.9066179280  TIP3      2680            0.0000000000
     30292      2872  TIP3      H2             31.2893206733       33.7029066021       25.8587899642  TIP3      2680            0.0000000000
     30293      2873  TIP3      OH2            26.8368231013       30.9246533539       32.4963288824  TIP3      2681            0.0000000000
     30294      2873  TIP3      H1             26.1319826562       31.5707685031       32.7074585809  TIP3      2681            0.0000000000
     30295      2873  TIP3      H2             27.5438169473       31.5193385668       32.1982104186  TIP3      2681            0.0000000000
     30296      2874  TIP3      OH2            34.6610609615       23.8040047577       28.6925925015  TIP3      2682            0.0000000000
     30297      2874  TIP3      H1             34.6910779989       22.9814303922       29.1840577329  TIP3      2682            0.0000000000
     30298      2874  TIP3      H2             35.4308024710       24.2676290875       29.0909774915  TIP3      2682            0.0000000000
     30299      2875  TIP3      OH2            23.8918688529       25.1574868556       30.2812302666  TIP3      2683            0.0000000000
     30300      2875  TIP3      H1             24.5202352578       25.8467322652       30.5890742741  TIP3      2683            0.0000000000
     30301      2875  TIP3      H2             24.4087184118       24.7481248745       29.5423523341  TIP3      2683            0.0000000000
     30302      2876  TIP3      OH2            25.2986717928       32.9494443407       33.2907225913  TIP3      2684            0.0000000000
     30303      2876  TIP3      H1             25.2338784367       33.8531833084       32.9420668271  TIP3      2684            0.0000000000
     30304      2876  TIP3      H2             24.4113377264       32.8605207290       33.7219929221  TIP3      2684            0.0000000000
     30305      2877  TIP3      OH2            21.2657517202       32.6140338573       24.1067536812  TIP3      2685            0.0000000000
     30306      2877  TIP3      H1             21.2469320268       32.9675677694       23.1945270183  TIP3      2685            0.0000000000
     30307      2877  TIP3      H2             21.4451081300       33.4260705878       24.6206332124  TIP3      2685            0.0000000000
     30308      2878  TIP3      OH2            34.7781963389       34.1684325065       30.9834705613  TIP3      2686            0.0000000000
     30309      2878  TIP3      H1             33.8130039972       34.3505336575       31.0185402079  TIP3      2686            0.0000000000
     30310      2878  TIP3      H2             35.1681925256       34.9960322072       30.6459273923  TIP3      2686            0.0000000000
     30311      2879  TIP3      OH2            35.0964573791       22.6452705082       31.9952562920  TIP3      2687            0.0000000000
     30312      2879  TIP3      H1             34.4024352717       23.3238684187       32.1059185452  TIP3      2687            0.0000000000
     30313      2879  TIP3      H2             35.8589699215       23.1399653789       31.6742357641  TIP3      2687            0.0000000000
     30314      2880  TIP3      OH2            28.2604778831       20.6354399852       29.7109639549  TIP3      2688            0.0000000000
     30315      2880  TIP3      H1             28.1240815420       19.6709740376       29.6389851365  TIP3      2688            0.0000000000
     30316      2880  TIP3      H2             27.3816906057       20.9410044435       30.0174411822  TIP3      2688            0.0000000000
     30317      2881  TIP3      OH2            33.2957221929       35.7241926928       27.2619797045  TIP3      2689            0.0000000000
     30318      2881  TIP3      H1             33.8389016639       35.0887323967       26.7566750229  TIP3      2689            0.0000000000
     30319      2881  TIP3      H2             33.6808780546       36.5627393216       27.0137667688  TIP3      2689            0.0000000000
     30320      2882  TIP3      OH2            34.5063997767       33.8728638739       25.9317218055  TIP3      2690            0.0000000000
     30321      2882  TIP3      H1             34.1527754107       33.1825546273       25.3547290766  TIP3      2690            0.0000000000
     30322      2882  TIP3      H2             34.4943232326       33.4044069368       26.7930458682  TIP3      2690            0.0000000000
     30323      2883  TIP3      OH2            35.8039933893       32.6836837849       34.5727471218  TIP3      2691            0.0000000000
     30324      2883  TIP3      H1             36.0800856041       31.9735708747       33.9621892016  TIP3      2691            0.0000000000
     30325      2883  TIP3      H2             36.2465035921       33.4266525262       34.1172645957  TIP3      2691            0.0000000000
     30326      2884  TIP3      OH2            30.5768235122       29.4183172726       24.2031957205  TIP3      2692            0.0000000000
     30327      2884  TIP3      H1             29.8799744245       30.0108512333       23.8582730649  TIP3      2692            0.0000000000
     30328      2884  TIP3      H2             31.2661192438       29.5253712306       23.5136927709  TIP3      2692            0.0000000000
     30329      2885  TIP3      OH2            33.9904665400       29.6901717622       25.1530354702  TIP3      2693            0.0000000000
     30330      2885  TIP3      H1             33.2446016173       29.8924077097       25.7499408772  TIP3      2693            0.0000000000
     30331      2885  TIP3      H2             34.4580708330       29.0082635745       25.6770817082  TIP3      2693            0.0000000000
     30332      2886  TIP3      OH2            33.9519795224       27.8176617060       34.2364846558  TIP3      2694            0.0000000000
     30333      2886  TIP3      H1             33.9029384600       28.6158354361       34.7873572896  TIP3      2694            0.0000000000
     30334      2886  TIP3      H2             33.3104294533       28.0850683402       33.5524742589  TIP3      2694            0.0000000000
     30335      2887  TIP3      OH2            25.6114842992       30.2924123506       27.0683853246  TIP3      2695            0.0000000000
     30336      2887  TIP3      H1             25.2999289511       29.9022050155       26.2174585379  TIP3      2695            0.0000000000
     30337      2887  TIP3      H2             26.2412091604       29.6092714271       27.3899414667  TIP3      2695            0.0000000000
     30338      2888  TIP3      OH2            26.9451106056       33.6919337876       29.7294746158  TIP3      2696            0.0000000000
     30339      2888  TIP3      H1             26.9389994487       33.1642631841       28.9218926222  TIP3      2696            0.0000000000
     30340      2888  TIP3      H2             27.7164580487       33.3235460851       30.1988585135  TIP3      2696            0.0000000000
     30341      2889  TIP3      OH2            25.9438621716       29.0422379845       30.7195130818  TIP3      2697            0.0000000000
     30342      2889  TIP3      H1             26.4963074141       29.1425894201       29.9193585983  TIP3      2697            0.0000000000
     30343      2889  TIP3      H2             26.3333632759       29.7060707303       31.3310010233  TIP3      2697            0.0000000000
     30344      2890  TIP3      OH2            32.3046516865       34.6186508961       31.4249921695  TIP3      2698            0.0000000000
     30345      2890  TIP3      H1             32.0528216516       35.2419156208       32.0932200074  TIP3      2698            0.0000000000
     30346      2890  TIP3      H2             32.0850632227       33.7493500860       31.8421681577  TIP3      2698            0.0000000000
     30347      2891  TIP3      OH2            26.8966580345       33.4795990054       35.4190621537  TIP3      2699            0.0000000000
     30348      2891  TIP3      H1             26.4643887115       34.2221992228       35.8964538679  TIP3      2699            0.0000000000
     30349      2891  TIP3      H2             26.2321482335       33.2471069985       34.7168955150  TIP3      2699            0.0000000000
     30350      2892  TIP3      OH2            23.8419679373       29.6343575020       34.5702875231  TIP3      2700            0.0000000000
     30351      2892  TIP3      H1             23.8958507153       30.3035196413       35.2771623031  TIP3      2700            0.0000000000
     30352      2892  TIP3      H2             22.8995830474       29.7218971779       34.3579661559  TIP3      2700            0.0000000000
     30353      2893  TIP3      OH2            30.5456188968       35.5477335568       26.2953362308  TIP3      2701            0.0000000000
     30354      2893  TIP3      H1             31.0734279226       35.8716548472       27.0356475948  TIP3      2701            0.0000000000
     30355      2893  TIP3      H2             30.0469984409       36.3253574067       26.0192757796  TIP3      2701            0.0000000000
     30356      2894  TIP3      OH2            25.1285516383       35.4269848500       36.1487427232  TIP3      2702            0.0000000000
     30357      2894  TIP3      H1             25.0550893943       35.3951735531       35.1713906786  TIP3      2702            0.0000000000
     30358      2894  TIP3      H2             24.1892264932       35.3577719428       36.4180637344  TIP3      2702            0.0000000000
     30359      2895  TIP3      OH2            24.6304065746       29.3280555661       24.6697605458  TIP3      2703            0.0000000000
     30360      2895  TIP3      H1             24.3229510943       30.1116950979       24.1645448854  TIP3      2703            0.0000000000
     30361      2895  TIP3      H2             23.9583227863       28.6720487020       24.4540533346  TIP3      2703            0.0000000000
     30362      2896  TIP3      OH2            20.6682790184       31.7557177137       33.5733243134  TIP3      2704            0.0000000000
     30363      2896  TIP3      H1             20.2366659629       31.6667395370       32.7045437084  TIP3      2704            0.0000000000
     30364      2896  TIP3      H2             20.7575914439       30.8059535829       33.7886807291  TIP3      2704            0.0000000000
     30365      2897  TIP3      OH2            20.4703829514       34.4416891370       30.3918248292  TIP3      2705            0.0000000000
     30366      2897  TIP3      H1             21.4257194254       34.3906515210       30.2980643674  TIP3      2705            0.0000000000
     30367      2897  TIP3      H2             20.3759505457       35.2774241797       30.8744538430  TIP3      2705            0.0000000000
     30368      2898  TIP3      OH2            29.6202184625       34.7388557198       34.8942537302  TIP3      2706            0.0000000000
     30369      2898  TIP3      H1             29.7193619317       35.5510753204       35.3982917065  TIP3      2706            0.0000000000
     30370      2898  TIP3      H2             28.7727450925       34.3431292235       35.1745046633  TIP3      2706            0.0000000000
     30371      2899  TIP3      OH2            35.3256093796       26.8303757506       36.5394070689  TIP3      2707            0.0000000000
     30372      2899  TIP3      H1             35.2881805418       27.1797305640       35.6451053344  TIP3      2707            0.0000000000
     30373      2899  TIP3      H2             35.8630485019       26.0037020010       36.3861171934  TIP3      2707            0.0000000000
     30374      2900  TIP3      OH2            22.9697943488       33.0776685507       34.5120897415  TIP3      2708            0.0000000000
     30375      2900  TIP3      H1             23.1786453327       32.6968918684       35.3896661054  TIP3      2708            0.0000000000
     30376      2900  TIP3      H2             22.1003269129       32.6867527661       34.2879812293  TIP3      2708            0.0000000000
     30377      2901  TIP3      OH2            25.6445355148       21.5397577435       30.4616913595  TIP3      2709            0.0000000000
     30378      2901  TIP3      H1             24.7413206758       21.4124000806       30.0948468162  TIP3      2709            0.0000000000
     30379      2901  TIP3      H2             25.5099454299       22.3697154808       30.9481222155  TIP3      2709            0.0000000000
     30380      2902  TIP3      OH2            30.2887060642       21.2017152093       33.8218222506  TIP3      2710            0.0000000000
     30381      2902  TIP3      H1             30.6844297762       20.7852457661       34.6098260848  TIP3      2710            0.0000000000
     30382      2902  TIP3      H2             29.3159665108       21.0883787136       33.9690349359  TIP3      2710            0.0000000000
     30383      2903  TIP3      OH2            33.5022690016       25.0111554208       34.6617393781  TIP3      2711            0.0000000000
     30384      2903  TIP3      H1             33.0191931075       24.8398780283       35.5046832123  TIP3      2711            0.0000000000
     30385      2903  TIP3      H2             33.4268564460       25.9670354298       34.5286086746  TIP3      2711            0.0000000000
     30386      2904  TIP3      OH2            25.7522771391       26.5155035641       31.7309015701  TIP3      2712            0.0000000000
     30387      2904  TIP3      H1             25.0059697953       26.5035769883       32.3549860237  TIP3      2712            0.0000000000
     30388      2904  TIP3      H2             25.6984496396       27.4199972174       31.3439801596  TIP3      2712            0.0000000000
     30389      2905  TIP3      OH2            25.7050740868       26.6209890297       26.5767704449  TIP3      2713            0.0000000000
     30390      2905  TIP3      H1             24.7659041125       26.3758043727       26.4422685394  TIP3      2713            0.0000000000
     30391      2905  TIP3      H2             26.0838958712       26.3351453435       25.7186892130  TIP3      2713            0.0000000000
     30392      2906  TIP3      OH2            31.2264017958       27.1019918780       25.2942150800  TIP3      2714            0.0000000000
     30393      2906  TIP3      H1             30.8453996319       27.9575608445       24.9855980254  TIP3      2714            0.0000000000
     30394      2906  TIP3      H2             31.9583805166       26.9743612451       24.6741434532  TIP3      2714            0.0000000000
     30395      2907  TIP3      OH2            30.2913986823       27.3439416351       36.7926153207  TIP3      2715            0.0000000000
     30396      2907  TIP3      H1             29.7739767368       26.5619750340       37.0958747970  TIP3      2715            0.0000000000
     30397      2907  TIP3      H2             31.1348763555       27.2202529311       37.2625736565  TIP3      2715            0.0000000000
     30398      2908  TIP3      OH2            32.2288965508       26.6434744394       28.1951809344  TIP3      2716            0.0000000000
     30399      2908  TIP3      H1             32.0003599450       27.1837306598       27.4210647782  TIP3      2716            0.0000000000
     30400      2908  TIP3      H2             32.3580665206       25.7794400760       27.7517892358  TIP3      2716            0.0000000000
     30401      2909  TIP3      OH2            23.3665785638       26.7626091518       33.3937345429  TIP3      2717            0.0000000000
     30402      2909  TIP3      H1             23.4504223508       27.1699431819       34.2734658842  TIP3      2717            0.0000000000
     30403      2909  TIP3      H2             22.9263086591       25.9238820449       33.6038501509  TIP3      2717            0.0000000000
     30404      2910  TIP3      OH2            26.7827964485       24.2289972754       20.3418653580  TIP3      2718            0.0000000000
     30405      2910  TIP3      H1             26.2943033730       23.7281862184       21.0017852586  TIP3      2718            0.0000000000
     30406      2910  TIP3      H2             26.1140093528       24.4912534597       19.6956962187  TIP3      2718            0.0000000000
     30407      2911  TIP3      OH2            20.0217604644       23.8614952810       27.3699130178  TIP3      2719            0.0000000000
     30408      2911  TIP3      H1             20.7008097377       23.8339920308       28.0763512429  TIP3      2719            0.0000000000
     30409      2911  TIP3      H2             20.4842849189       23.4929511113       26.5976265042  TIP3      2719            0.0000000000
     30410      2912  TIP3      OH2            21.3850597436       24.6828643911       22.8649169448  TIP3      2720            0.0000000000
     30411      2912  TIP3      H1             21.7496991633       25.1945734346       22.1408366203  TIP3      2720            0.0000000000
     30412      2912  TIP3      H2             20.5736932057       25.1969638624       23.0385053442  TIP3      2720            0.0000000000
     30413      2913  TIP3      OH2            31.4431668237       28.1978319957       32.7424053769  TIP3      2721            0.0000000000
     30414      2913  TIP3      H1             31.8384405991       27.5074399484       32.1670058784  TIP3      2721            0.0000000000
     30415      2913  TIP3      H2             30.9796949808       27.6736538487       33.4193276844  TIP3      2721            0.0000000000
     30416      2914  TIP3      OH2            28.2503866798       24.1928049090       27.5988233010  TIP3      2722            0.0000000000
     30417      2914  TIP3      H1             27.3130201200       24.1880120744       27.8948764445  TIP3      2722            0.0000000000
     30418      2914  TIP3      H2             28.7508644897       24.0140722773       28.4100771993  TIP3      2722            0.0000000000
     30419      2915  TIP3      OH2            23.0653217350       25.7325029122       26.4365595502  TIP3      2723            0.0000000000
     30420      2915  TIP3      H1             22.1775591072       25.8893613069       26.0530046603  TIP3      2723            0.0000000000
     30421      2915  TIP3      H2             23.3480606241       24.8957003055       26.0291852744  TIP3      2723            0.0000000000
     30422      2916  TIP3      OH2            26.6925596785       25.7963643204       24.0792914773  TIP3      2724            0.0000000000
     30423      2916  TIP3      H1             27.6508248313       25.8796433885       24.2455565156  TIP3      2724            0.0000000000
     30424      2916  TIP3      H2             26.4779049585       26.4483551466       23.3936841845  TIP3      2724            0.0000000000
     30425      2917  TIP3      OH2            32.5950565389       23.3898030923       30.8392883818  TIP3      2725            0.0000000000
     30426      2917  TIP3      H1             31.9266997644       23.4612670054       31.5440617808  TIP3      2725            0.0000000000
     30427      2917  TIP3      H2             32.0998729300       23.1765460006       30.0343021412  TIP3      2725            0.0000000000
     30428      2918  TIP3      OH2            25.3864355379       26.9854978788       21.6669796949  TIP3      2726            0.0000000000
     30429      2918  TIP3      H1             24.8650537503       26.5895552187       20.9652760491  TIP3      2726            0.0000000000
     30430      2918  TIP3      H2             26.2361660705       27.1588063908       21.2251251808  TIP3      2726            0.0000000000
     30431      2919  TIP3      OH2            23.5430063580       31.5683019927       36.7168258628  TIP3      2727            0.0000000000
     30432      2919  TIP3      H1             24.2644633946       31.7744754734       37.3345441331  TIP3      2727            0.0000000000
     30433      2919  TIP3      H2             22.7692624653       31.5979101702       37.3230030817  TIP3      2727            0.0000000000
     30434      2920  TIP3      OH2            29.5401885532       26.9382132582       29.4769192870  TIP3      2728            0.0000000000
     30435      2920  TIP3      H1             30.1471378351       26.4095268906       28.9440837573  TIP3      2728            0.0000000000
     30436      2920  TIP3      H2             29.3958245820       26.3905009394       30.2596623030  TIP3      2728            0.0000000000
     30437      2921  TIP3      OH2            24.5569403572       23.0799346051       25.9143515185  TIP3      2729            0.0000000000
     30438      2921  TIP3      H1             24.2424816760       22.1578576082       25.8962789806  TIP3      2729            0.0000000000
     30439      2921  TIP3      H2             25.3405892264       23.0176554655       25.3530652074  TIP3      2729            0.0000000000
     30440      2922  TIP3      OH2            28.1811659350       25.2637185246       31.8927265968  TIP3      2730            0.0000000000
     30441      2922  TIP3      H1             27.3576645067       25.7847982860       31.9798858463  TIP3      2730            0.0000000000
     30442      2922  TIP3      H2             28.7370066864       25.6182294229       32.6132410655  TIP3      2730            0.0000000000
     30443      2923  TIP3      OH2            28.7923504940       31.4250468094       23.5787151303  TIP3      2731            0.0000000000
     30444      2923  TIP3      H1             27.9599473876       31.0294135672       23.2550096314  TIP3      2731            0.0000000000
     30445      2923  TIP3      H2             28.5592583454       31.6191938452       24.5078432137  TIP3      2731            0.0000000000
     30446      2924  TIP3      OH2            35.6375163838       30.7143051424       32.3889894208  TIP3      2732            0.0000000000
     30447      2924  TIP3      H1             36.3646001286       30.8412068158       31.7360854763  TIP3      2732            0.0000000000
     30448      2924  TIP3      H2             34.8777796405       30.7164519031       31.7780021398  TIP3      2732            0.0000000000
     30449      2925  TIP3      OH2            30.2521276775       31.7786923852       34.8206164378  TIP3      2733            0.0000000000
     30450      2925  TIP3      H1             29.9082026266       31.3420330626       35.6085928347  TIP3      2733            0.0000000000
     30451      2925  TIP3      H2             30.0398948581       32.7059102347       34.9470872003  TIP3      2733            0.0000000000
     30452      2926  TIP3      OH2            33.3120913471       26.2075831272       23.3825795200  TIP3      2734            0.0000000000
     30453      2926  TIP3      H1             34.2021271243       26.0760440808       23.7735262550  TIP3      2734            0.0000000000
     30454      2926  TIP3      H2             33.4422011052       27.0182599621       22.8674970044  TIP3      2734            0.0000000000
     30455      2927  TIP3      OH2            23.8757196189       30.8826632489       29.3883986345  TIP3      2735            0.0000000000
     30456      2927  TIP3      H1             24.5611248908       30.8112712220       28.6931881487  TIP3      2735            0.0000000000
     30457      2927  TIP3      H2             23.9410819073       30.0244147990       29.8446166820  TIP3      2735            0.0000000000
     30458      2928  TIP3      OH2            30.8881424859       32.9319214268       22.6583110052  TIP3      2736            0.0000000000
     30459      2928  TIP3      H1             30.5501820264       33.7849746565       22.9656354309  TIP3      2736            0.0000000000
     30460      2928  TIP3      H2             30.1215916528       32.3564445138       22.8196470431  TIP3      2736            0.0000000000
     30461      2929  TIP3      OH2            20.8683585660       29.2875849192       34.6507081609  TIP3      2737            0.0000000000
     30462      2929  TIP3      H1             21.0382781206       28.8443812087       35.5030284159  TIP3      2737            0.0000000000
     30463      2929  TIP3      H2             20.2483522114       28.6780528400       34.2118743630  TIP3      2737            0.0000000000
     30464      2930  TIP3      OH2            27.8809155254       28.8503814838       36.8248568681  TIP3      2738            0.0000000000
     30465      2930  TIP3      H1             27.5616183512       28.5357785916       35.9670541887  TIP3      2738            0.0000000000
     30466      2930  TIP3      H2             28.8035483550       28.5239176614       36.8258053565  TIP3      2738            0.0000000000
     30467      2931  TIP3      OH2            32.5629025227       34.2444634974       34.7157853235  TIP3      2739            0.0000000000
     30468      2931  TIP3      H1             31.6253551781       34.3018260309       34.5245210487  TIP3      2739            0.0000000000
     30469      2931  TIP3      H2             32.5294066307       34.4192447681       35.6861632967  TIP3      2739            0.0000000000
     30470      2932  TIP3      OH2            33.6771788114       29.9799300813       30.6837365001  TIP3      2740            0.0000000000
     30471      2932  TIP3      H1             32.7396789673       29.7652536624       30.5356697187  TIP3      2740            0.0000000000
     30472      2932  TIP3      H2             34.1553135268       29.2466924550       30.2565290492  TIP3      2740            0.0000000000
     30473      2933  TIP3      OH2            26.2891453689       34.3203349316       26.6633788402  TIP3      2741            0.0000000000
     30474      2933  TIP3      H1             26.7428548448       35.1707603861       26.6082167463  TIP3      2741            0.0000000000
     30475      2933  TIP3      H2             25.3709012517       34.5594171750       26.4991306676  TIP3      2741            0.0000000000
     30476      2934  TIP3      OH2            22.0184211991       29.1479857756       21.3935485764  TIP3      2742            0.0000000000
     30477      2934  TIP3      H1             22.6187848725       29.8439381500       21.7198674284  TIP3      2742            0.0000000000
     30478      2934  TIP3      H2             21.1499046969       29.5155699902       21.5606677696  TIP3      2742            0.0000000000
     30479      2935  TIP3      OH2            27.7016237297       31.9938391850       26.3216599728  TIP3      2743            0.0000000000
     30480      2935  TIP3      H1             27.3761475185       32.9154491489       26.3801055441  TIP3      2743            0.0000000000
     30481      2935  TIP3      H2             26.9537192887       31.5184783153       26.7291169990  TIP3      2743            0.0000000000
     30482      2936  TIP3      OH2            28.4177589430       35.8618542252       32.3935168673  TIP3      2744            0.0000000000
     30483      2936  TIP3      H1             28.5648184532       36.8142303785       32.3133870558  TIP3      2744            0.0000000000
     30484      2936  TIP3      H2             28.7352265584       35.7153356615       33.2959647627  TIP3      2744            0.0000000000
     30485      2937  TIP3      OH2            31.6730891053       32.1917199268       32.3291112516  TIP3      2745            0.0000000000
     30486      2937  TIP3      H1             31.3037951171       31.9676862598       33.2069647048  TIP3      2745            0.0000000000
     30487      2937  TIP3      H2             32.2860077121       31.4649432826       32.1479737470  TIP3      2745            0.0000000000
     30488      2938  TIP3      OH2            33.8934163844       33.2506309867       21.4337400838  TIP3      2746            0.0000000000
     30489      2938  TIP3      H1             34.2605815449       32.7740754571       22.2001358029  TIP3      2746            0.0000000000
     30490      2938  TIP3      H2             32.9565581666       33.0402231538       21.4963258519  TIP3      2746            0.0000000000
     30491      2939  TIP3      OH2            22.5191468576       24.0225358792       34.1971394086  TIP3      2747            0.0000000000
     30492      2939  TIP3      H1             21.6127523708       24.3745785735       34.1793092112  TIP3      2747            0.0000000000
     30493      2939  TIP3      H2             22.4080413060       23.1777982008       34.6615031514  TIP3      2747            0.0000000000
     30494      2940  TIP3      OH2            34.7594832062       31.8773619188       23.6895327542  TIP3      2748            0.0000000000
     30495      2940  TIP3      H1             34.5180259077       31.0670751025       24.1931625451  TIP3      2748            0.0000000000
     30496      2940  TIP3      H2             35.7069711807       31.9544432924       23.8761237805  TIP3      2748            0.0000000000
     30497      2941  TIP3      OH2            22.1278474767       35.7689711914       32.6309586824  TIP3      2749            0.0000000000
     30498      2941  TIP3      H1             22.4243720741       34.8563489675       32.6670379291  TIP3      2749            0.0000000000
     30499      2941  TIP3      H2             22.3360405431       36.1149442181       33.5062868888  TIP3      2749            0.0000000000
     30500      2942  TIP3      OH2            23.4054473148       31.1011262103       22.8664446462  TIP3      2750            0.0000000000
     30501      2942  TIP3      H1             22.7014295302       31.5243002233       23.3927542508  TIP3      2750            0.0000000000
     30502      2942  TIP3      H2             23.9202091690       31.8606055847       22.5418829422  TIP3      2750            0.0000000000
     30503      2943  TIP3      OH2            31.2202968937       23.7882802019       33.1753583313  TIP3      2751            0.0000000000
     30504      2943  TIP3      H1             31.9727557531       23.8557182325       33.7778650141  TIP3      2751            0.0000000000
     30505      2943  TIP3      H2             30.8572228105       22.9066458176       33.3779267957  TIP3      2751            0.0000000000
     30506      2944  TIP3      OH2            32.0821132493       23.3636214365       24.1913311848  TIP3      2752            0.0000000000
     30507      2944  TIP3      H1             32.2696105655       23.9383201378       23.4563029444  TIP3      2752            0.0000000000
     30508      2944  TIP3      H2             32.5924766139       23.7897858963       24.8996101887  TIP3      2752            0.0000000000
     30509      2945  TIP3      OH2            29.7027678650       35.5298728058       23.0633262810  TIP3      2753            0.0000000000
     30510      2945  TIP3      H1             28.8745482818       36.0317949793       23.1214327397  TIP3      2753            0.0000000000
     30511      2945  TIP3      H2             30.2021022507       36.0533300919       22.4210002519  TIP3      2753            0.0000000000
     30512      2946  TIP3      OH2            29.2370586487       25.1251718869       25.0612875796  TIP3      2754            0.0000000000
     30513      2946  TIP3      H1             30.0124666858       25.7195740535       25.0866110282  TIP3      2754            0.0000000000
     30514      2946  TIP3      H2             28.9701632224       25.0051347057       25.9967930071  TIP3      2754            0.0000000000
     30515      2947  TIP3      OH2            29.8074792382       26.1470387525       34.2589595520  TIP3      2755            0.0000000000
     30516      2947  TIP3      H1             29.8891217705       26.7064675846       35.0570555129  TIP3      2755            0.0000000000
     30517      2947  TIP3      H2             30.4580068261       25.4364459648       34.3499214321  TIP3      2755            0.0000000000
     30518      2948  TIP3      OH2            30.0344702389       22.1879395393       25.9138285074  TIP3      2756            0.0000000000
     30519      2948  TIP3      H1             29.7524362553       22.8233410300       26.5933428987  TIP3      2756            0.0000000000
     30520      2948  TIP3      H2             30.7550869594       22.7208968734       25.5065043294  TIP3      2756            0.0000000000
     30521      2949  TIP3      OH2            26.9654632966      -36.4329891947       23.0766535733  TIP3      2757            0.0000000000
     30522      2949  TIP3      H1             27.2245156449      -35.6443159938       22.5798850554  TIP3      2757            0.0000000000
     30523      2949  TIP3      H2             26.8338979951      -36.0757086537       23.9625365688  TIP3      2757            0.0000000000
     30524      2950  TIP3      OH2            25.7360257664       23.2699171939       22.7380242700  TIP3      2758            0.0000000000
     30525      2950  TIP3      H1             25.7041085937       24.1925681978       23.0446577632  TIP3      2758            0.0000000000
     30526      2950  TIP3      H2             26.6717156144       23.0498137994       22.9194409658  TIP3      2758            0.0000000000
     30527      2951  TIP3      OH2            35.8352819062       23.7815588378       34.9084219272  TIP3      2759            0.0000000000
     30528      2951  TIP3      H1             35.0026133486       24.3104616817       34.9447006394  TIP3      2759            0.0000000000
     30529      2951  TIP3      H2             36.2316724787       24.0722643585       34.0867777014  TIP3      2759            0.0000000000
     30530      2952  TIP3      OH2            34.5631640468       27.7998504043       29.1749745663  TIP3      2760            0.0000000000
     30531      2952  TIP3      H1             33.7510403291       27.3675054569       28.8379279310  TIP3      2760            0.0000000000
     30532      2952  TIP3      H2             34.9973057353       27.0768024882       29.6353294265  TIP3      2760            0.0000000000
     30533      2953  TIP3      OH2            23.1262010605       21.1810624210       29.5946424130  TIP3      2761            0.0000000000
     30534      2953  TIP3      H1             22.9338872556       21.1962578989       28.6300422422  TIP3      2761            0.0000000000
     30535      2953  TIP3      H2             22.7125515532       20.3288708165       29.8462257999  TIP3      2761            0.0000000000
     30536      2954  TIP3      OH2            22.0526855074       35.0880828760       25.6590950194  TIP3      2762            0.0000000000
     30537      2954  TIP3      H1             21.2356053153       35.5888607296       25.7489516664  TIP3      2762            0.0000000000
     30538      2954  TIP3      H2             22.5942586273       35.6294761811       25.0760940493  TIP3      2762            0.0000000000
     30539      2955  TIP3      OH2            26.2543938760       36.3486803052       38.8451004799  TIP3      2763            0.0000000000
     30540      2955  TIP3      H1             27.1089200490       35.9484712827       39.0160204631  TIP3      2763            0.0000000000
     30541      2955  TIP3      H2             26.1777302251       36.2101855789       37.8841338121  TIP3      2763            0.0000000000
     30542      2956  TIP3      OH2            30.0508106840       36.1124277825       20.0535217943  TIP3      2764            0.0000000000
     30543      2956  TIP3      H1             29.3510732384       35.4934206626       20.2742748688  TIP3      2764            0.0000000000
     30544      2956  TIP3      H2             30.7813978269       35.5742547233       19.7322814363  TIP3      2764            0.0000000000
     30545      2957  TIP3      OH2            32.5930652876       34.6793312930       37.2423141998  TIP3      2765            0.0000000000
     30546      2957  TIP3      H1             32.0976348323       34.0059611001       37.7417114404  TIP3      2765            0.0000000000
     30547      2957  TIP3      H2             33.1987727412       35.0183580921       37.9151904901  TIP3      2765            0.0000000000
     30548      2958  TIP3      OH2            21.2097035222       31.5081954457       38.0071784631  TIP3      2766            0.0000000000
     30549      2958  TIP3      H1             21.3580340345       30.5976851429       37.7021633965  TIP3      2766            0.0000000000
     30550      2958  TIP3      H2             20.4678807229       31.7982029307       37.4444636621  TIP3      2766            0.0000000000
     30551      2959  TIP3      OH2            25.5577183869       31.8213311777       20.1393820224  TIP3      2767            0.0000000000
     30552      2959  TIP3      H1             25.6902472846       31.0588902581       20.6869953297  TIP3      2767            0.0000000000
     30553      2959  TIP3      H2             26.2434695096       31.7728759362       19.4672127039  TIP3      2767            0.0000000000
     30554      2960  TIP3      OH2            27.9333114830       31.5125260685       37.3889218043  TIP3      2768            0.0000000000
     30555      2960  TIP3      H1             27.5709311600       31.8134116668       36.5343095060  TIP3      2768            0.0000000000
     30556      2960  TIP3      H2             27.9886348985       30.5281349425       37.2931673609  TIP3      2768            0.0000000000
     30557      2961  TIP3      OH2            33.5884939936       31.3374666055       34.7947206631  TIP3      2769            0.0000000000
     30558      2961  TIP3      H1             34.3778240623       31.9299533935       34.7146906864  TIP3      2769            0.0000000000
     30559      2961  TIP3      H2             32.9115029076       32.0207752698       34.8393428903  TIP3      2769            0.0000000000
     30560      2962  TIP3      OH2            22.1250926268       28.7624371885       37.3960453109  TIP3      2770            0.0000000000
     30561      2962  TIP3      H1             22.5333595647       27.8947492773       37.3026640999  TIP3      2770            0.0000000000
     30562      2962  TIP3      H2             21.8842076577       28.7591710722       38.3366862152  TIP3      2770            0.0000000000
     30563      2963  TIP3      OH2            26.7328503294       29.8606573128       22.4325303451  TIP3      2771            0.0000000000
     30564      2963  TIP3      H1             26.2674650367       29.3481028496       23.1093267395  TIP3      2771            0.0000000000
     30565      2963  TIP3      H2             27.0441710823       29.1669715162       21.8114131110  TIP3      2771            0.0000000000
     30566      2964  TIP3      OH2            26.0151497169       27.6951420871       34.7496249695  TIP3      2772            0.0000000000
     30567      2964  TIP3      H1             25.4187704967       28.4164926160       35.0068768342  TIP3      2772            0.0000000000
     30568      2964  TIP3      H2             26.4136731701       28.0626523843       33.9421386818  TIP3      2772            0.0000000000
     30569      2965  TIP3      OH2            27.8102696259       28.0733686064       20.6394151207  TIP3      2773            0.0000000000
     30570      2965  TIP3      H1             27.6911039576       27.9206484758       19.6839677491  TIP3      2773            0.0000000000
     30571      2965  TIP3      H2             28.7674921416       28.2257383888       20.7221120604  TIP3      2773            0.0000000000
     30572      2966  TIP3      OH2            31.0890837199       30.2669393310       38.0889305995  TIP3      2774            0.0000000000
     30573      2966  TIP3      H1             32.0449455592       30.2561100757       37.9765969506  TIP3      2774            0.0000000000
     30574      2966  TIP3      H2             30.9336978713       29.4911957779       38.6488853526  TIP3      2774            0.0000000000
     30575      2967  TIP3      OH2            26.4243553300       25.0718606674       35.8060562837  TIP3      2775            0.0000000000
     30576      2967  TIP3      H1             26.5397428356       24.3633018231       35.1470846791  TIP3      2775            0.0000000000
     30577      2967  TIP3      H2             26.3785426660       25.8831746097       35.2576602866  TIP3      2775            0.0000000000
     30578      2968  TIP3      OH2            26.8270567758       23.4544721591       33.3610405414  TIP3      2776            0.0000000000
     30579      2968  TIP3      H1             27.3353773322       23.9187249250       32.6534315592  TIP3      2776            0.0000000000
     30580      2968  TIP3      H2             25.9333649503       23.3766183102       32.9553359293  TIP3      2776            0.0000000000
     30581      2969  TIP3      OH2            28.3673030351       28.9442866894       33.6028357129  TIP3      2777            0.0000000000
     30582      2969  TIP3      H1             29.1198901157       28.7773538099       33.0297198839  TIP3      2777            0.0000000000
     30583      2969  TIP3      H2             27.9992502558       29.7762733752       33.2664696845  TIP3      2777            0.0000000000
     30584      2970  TIP3      OH2            32.8158015220       26.7250355588       38.5769017187  TIP3      2778            0.0000000000
     30585      2970  TIP3      H1             33.0369386724       25.7873368491       38.4630040839  TIP3      2778            0.0000000000
     30586      2970  TIP3      H2             33.6885973847       27.1430031312       38.5351377992  TIP3      2778            0.0000000000
     30587      2971  TIP3      OH2            34.1184134576       29.5319491874       36.7343076291  TIP3      2779            0.0000000000
     30588      2971  TIP3      H1             33.8256663903       30.2197048580       36.0958649405  TIP3      2779            0.0000000000
     30589      2971  TIP3      H2             35.0489726042       29.4323613739       36.5254431631  TIP3      2779            0.0000000000
     30590      2972  TIP3      OH2            24.8852006124       26.3230813659       37.7266540806  TIP3      2780            0.0000000000
     30591      2972  TIP3      H1             24.1154146297       25.7456617834       37.5591702914  TIP3      2780            0.0000000000
     30592      2972  TIP3      H2             25.5388895232       25.9534790463       37.1048106653  TIP3      2780            0.0000000000
     30593      2973  TIP3      OH2            27.6172468573       20.8905407775       33.7475110935  TIP3      2781            0.0000000000
     30594      2973  TIP3      H1             27.4335042453       21.8534849049       33.6545617309  TIP3      2781            0.0000000000
     30595      2973  TIP3      H2             26.8669106069       20.5245275306       33.2471206592  TIP3      2781            0.0000000000
     30596      2974  TIP3      OH2            28.8846715124       25.2217217654       37.3788334726  TIP3      2782            0.0000000000
     30597      2974  TIP3      H1             28.5693892002       24.9883230938       38.2735619427  TIP3      2782            0.0000000000
     30598      2974  TIP3      H2             28.1040730548       25.0183470647       36.8359061333  TIP3      2782            0.0000000000
     30599      2975  TIP3      OH2            31.5641971901       24.3865281342       36.4744970768  TIP3      2783            0.0000000000
     30600      2975  TIP3      H1             30.6022818488       24.4078902552       36.5964265233  TIP3      2783            0.0000000000
     30601      2975  TIP3      H2             31.8835146579       23.7376775736       37.1277617888  TIP3      2783            0.0000000000
     30602      2976  TIP3      OH2            33.2816262156       22.9584096402       38.4034250463  TIP3      2784            0.0000000000
     30603      2976  TIP3      H1             33.1270399480       21.9898322934       38.3972533109  TIP3      2784            0.0000000000
     30604      2976  TIP3      H2             32.9243148551       23.2699336497       39.2587867916  TIP3      2784            0.0000000000
     30605      2977  TIP3      OH2            22.9609692964       24.2605804891       37.4829637229  TIP3      2785            0.0000000000
     30606      2977  TIP3      H1             23.2107112492       23.5247809063       36.8968601172  TIP3      2785            0.0000000000
     30607      2977  TIP3      H2             22.8734525486       23.8120077584       38.3468000335  TIP3      2785            0.0000000000
     30608      2978  TIP3      OH2            27.8296682318       20.2849413025       36.4497028632  TIP3      2786            0.0000000000
     30609      2978  TIP3      H1             28.5092329262       19.5815855297       36.4329401979  TIP3      2786            0.0000000000
     30610      2978  TIP3      H2             27.7151514481       20.4272937316       35.4894713806  TIP3      2786            0.0000000000
     30611      2979  TIP3      OH2            28.1930414606       21.8982662938       38.5658598529  TIP3      2787            0.0000000000
     30612      2979  TIP3      H1             28.0180938209       21.3917400273       37.7338716169  TIP3      2787            0.0000000000
     30613      2979  TIP3      H2             27.5920777937       22.6618091191       38.4658017934  TIP3      2787            0.0000000000
     30614      2980  TIP3      OH2            36.2456130389       34.9532856929       33.2560274839  TIP3      2788            0.0000000000
     30615      2980  TIP3      H1             35.5633964910       35.3932049479       33.7624346517  TIP3      2788            0.0000000000
     30616      2980  TIP3      H2             35.7589803492       34.5807238190       32.4862196779  TIP3      2788            0.0000000000
     30617      2981  TIP3      OH2            35.3705797976       27.9578786615       26.5958604034  TIP3      2789            0.0000000000
     30618      2981  TIP3      H1             35.6240530786       27.0301289005       26.6049959518  TIP3      2789            0.0000000000
     30619      2981  TIP3      H2             35.4894029033       28.2167571606       27.5310957419  TIP3      2789            0.0000000000
     30620      2982  TIP3      OH2            20.8754266245       29.9876865645       30.5378672548  TIP3      2790            0.0000000000
     30621      2982  TIP3      H1             21.0459831291       29.9058098399       29.5710687095  TIP3      2790            0.0000000000
     30622      2982  TIP3      H2             21.7681040578       29.8061012658       30.8923824520  TIP3      2790            0.0000000000
     30623      2983  TIP3      OH2            35.2199126679       24.0762999340       21.0160639330  TIP3      2791            0.0000000000
     30624      2983  TIP3      H1             36.1757056433       23.8974509912       20.8362386182  TIP3      2791            0.0000000000
     30625      2983  TIP3      H2             34.9763899140       23.5741498045       20.2117342540  TIP3      2791            0.0000000000
     30626      2984  TIP3      OH2            35.5221959408       25.4255096658       24.8551027032  TIP3      2792            0.0000000000
     30627      2984  TIP3      H1             35.8171233849       24.5650920003       25.1911237462  TIP3      2792            0.0000000000
     30628      2984  TIP3      H2             36.3260483397       25.7677252662       24.4483581838  TIP3      2792            0.0000000000
     30629      2985  TIP3      OH2           -37.0495423838       25.1886775238       30.3877124723  TIP3      2793            0.0000000000
     30630      2985  TIP3      H1            -36.1639709197       25.5405079890       30.2450478163  TIP3      2793            0.0000000000
     30631      2985  TIP3      H2            -37.2710781280       25.8309881510       31.0831845959  TIP3      2793            0.0000000000
     30632      2986  TIP3      OH2            36.2595005268       26.8038260713       33.4214379419  TIP3      2794            0.0000000000
     30633      2986  TIP3      H1             35.3237625929       27.0700979952       33.5101528630  TIP3      2794            0.0000000000
     30634      2986  TIP3      H2             36.6199150891       27.4901831685       32.8297783855  TIP3      2794            0.0000000000
     30635      2987  TIP3      OH2            20.4923378039       25.2864126076       36.7055697069  TIP3      2795            0.0000000000
     30636      2987  TIP3      H1             21.4311760153       25.0702454881       36.8909589956  TIP3      2795            0.0000000000
     30637      2987  TIP3      H2             20.0356412969       24.4601323328       36.9721250879  TIP3      2795            0.0000000000
     30638      2988  TIP3      OH2            35.2994692332       22.4208287984       25.6634918350  TIP3      2796            0.0000000000
     30639      2988  TIP3      H1             36.2417302846       22.3058303583       25.8597200957  TIP3      2796            0.0000000000
     30640      2988  TIP3      H2             35.2968219253       22.0363263787       24.7617017969  TIP3      2796            0.0000000000
     30641      2989  TIP3      OH2            21.6909621773       23.5745373731       29.5490364015  TIP3      2797            0.0000000000
     30642      2989  TIP3      H1             22.1545730156       22.7505319777       29.8082228782  TIP3      2797            0.0000000000
     30643      2989  TIP3      H2             22.2435482860       24.2657527982       29.9381116515  TIP3      2797            0.0000000000
     30644      2990  TIP3      OH2            19.9739804710       26.5773078903       30.5834148008  TIP3      2798            0.0000000000
     30645      2990  TIP3      H1             20.5382885570       26.3254236444       29.8243129421  TIP3      2798            0.0000000000
     30646      2990  TIP3      H2             20.4427093588       27.3800684352       30.8537930388  TIP3      2798            0.0000000000
     30647      2991  TIP3      OH2            20.3327732747       22.8210483381       24.6083604965  TIP3      2799            0.0000000000
     30648      2991  TIP3      H1             19.3952669081       23.0336813168       24.5324595392  TIP3      2799            0.0000000000
     30649      2991  TIP3      H2             20.7511846591       23.3340417433       23.8928669729  TIP3      2799            0.0000000000
     30650      2992  TIP3      OH2            20.2880290564       21.4834099710       32.9500668696  TIP3      2800            0.0000000000
     30651      2992  TIP3      H1             19.6207672302       21.2953529370       33.6332672434  TIP3      2800            0.0000000000
     30652      2992  TIP3      H2             19.8322905442       22.1606547887       32.4104005303  TIP3      2800            0.0000000000
     30653      2993  TIP3      OH2            22.5225471919       34.7458156150       37.1321019626  TIP3      2801            0.0000000000
     30654      2993  TIP3      H1             21.6727098604       34.8840075469       36.6761221694  TIP3      2801            0.0000000000
     30655      2993  TIP3      H2             22.2464881085       34.5803306658       38.0392710697  TIP3      2801            0.0000000000
     30656      2994  TIP3      OH2            25.4684453930       35.6860914514       33.4665876352  TIP3      2802            0.0000000000
     30657      2994  TIP3      H1             25.0250663706       36.4634764954       33.0945942225  TIP3      2802            0.0000000000
     30658      2994  TIP3      H2             26.3290984883       35.6663310524       33.0234339712  TIP3      2802            0.0000000000
     30659      2995  TIP3      OH2            24.6177661919       36.0517869631       28.7762835011  TIP3      2803            0.0000000000
     30660      2995  TIP3      H1             24.2457718630       35.2667207531       29.2124945510  TIP3      2803            0.0000000000
     30661      2995  TIP3      H2             25.2174947373       36.3910991024       29.4577047225  TIP3      2803            0.0000000000
     30662      2996  TIP3      OH2            30.4168778378       22.4266301591       28.9859834880  TIP3      2804            0.0000000000
     30663      2996  TIP3      H1             29.7610423896       21.7756398896       29.2816285549  TIP3      2804            0.0000000000
     30664      2996  TIP3      H2             30.9909571503       21.8969007255       28.4205173954  TIP3      2804            0.0000000000
     30665      2997  TIP3      OH2            35.5932580083       20.4614297679       29.0684095059  TIP3      2805            0.0000000000
     30666      2997  TIP3      H1             36.1674589611       21.0873525805       28.6207812054  TIP3      2805            0.0000000000
     30667      2997  TIP3      H2             34.6997153780       20.8224111339       28.8613024417  TIP3      2805            0.0000000000
     30668      2998  TIP3      OH2            22.8139833473       21.0533516770       26.8605922804  TIP3      2806            0.0000000000
     30669      2998  TIP3      H1             22.0266173601       20.8635383114       26.3167208793  TIP3      2806            0.0000000000
     30670      2998  TIP3      H2             23.2751488698       20.1926516377       26.7835467931  TIP3      2806            0.0000000000
     30671      2999  TIP3      OH2            21.5513713464       20.8165292814       22.5903276714  TIP3      2807            0.0000000000
     30672      2999  TIP3      H1             22.0403687517       21.4634366759       22.0397375102  TIP3      2807            0.0000000000
     30673      2999  TIP3      H2             21.0039696127       21.4112145232       23.1241504655  TIP3      2807            0.0000000000
     30674      3000  TIP3      OH2            27.2873283526       20.9674874527       26.6292866123  TIP3      2808            0.0000000000
     30675      3000  TIP3      H1             28.1827443769       21.3383941649       26.5574598320  TIP3      2808            0.0000000000
     30676      3000  TIP3      H2             27.2488122042       20.7547398815       27.5590424719  TIP3      2808            0.0000000000
     30677      3001  TIP3      OH2            33.0195956316       20.9535065543       28.2611353250  TIP3      2809            0.0000000000
     30678      3001  TIP3      H1             32.9662094919       21.1328118635       27.3140631839  TIP3      2809            0.0000000000
     30679      3001  TIP3      H2             32.5893408309       20.0705846134       28.3714233861  TIP3      2809            0.0000000000
     30680      3002  TIP3      OH2            34.2510959641       20.9314031616       23.8192359725  TIP3      2810            0.0000000000
     30681      3002  TIP3      H1             33.5531170599       21.5937475214       23.7272657335  TIP3      2810            0.0000000000
     30682      3002  TIP3      H2             33.7512563545       20.1390439890       24.1052483122  TIP3      2810            0.0000000000
     30683      3003  TIP3      OH2            23.4298470785       22.6718907584       21.1052489335  TIP3      2811            0.0000000000
     30684      3003  TIP3      H1             23.9680374077       22.1240377247       20.5326902297  TIP3      2811            0.0000000000
     30685      3003  TIP3      H2             24.0876801823       23.0230450536       21.7269438798  TIP3      2811            0.0000000000
     30686      3004  TIP3      OH2            28.4272059898       23.0018926920       23.4948582161  TIP3      2812            0.0000000000
     30687      3004  TIP3      H1             28.6968935294       22.4129754852       24.2162267352  TIP3      2812            0.0000000000
     30688      3004  TIP3      H2             28.5101555568       23.8620833273       23.9558012706  TIP3      2812            0.0000000000
     30689      3005  TIP3      OH2            22.7000870762       21.5934398904       36.2964538916  TIP3      2813            0.0000000000
     30690      3005  TIP3      H1             22.3113533486       20.7982319497       36.7029458570  TIP3      2813            0.0000000000
     30691      3005  TIP3      H2             23.6089938425       21.5510957854       36.6793035803  TIP3      2813            0.0000000000
     30692      3006  TIP3      OH2            24.7006153967       20.9757135146       37.9422487368  TIP3      2814            0.0000000000
     30693      3006  TIP3      H1             25.5935716567       20.6388322149       37.7249250180  TIP3      2814            0.0000000000
     30694      3006  TIP3      H2             24.3270720454       20.1682449216       38.3448766596  TIP3      2814            0.0000000000
     30695      3007  TIP3      OH2            33.1135945930       20.2871890049       38.0775605906  TIP3      2815            0.0000000000
     30696      3007  TIP3      H1             33.1970830002       19.8097870262       38.9292170095  TIP3      2815            0.0000000000
     30697      3007  TIP3      H2             34.0333572101       20.2633469592       37.7302584900  TIP3      2815            0.0000000000
     30698      3008  TIP3      OH2            36.2139818592      -36.7556240034       36.8675213430  TIP3      2816            0.0000000000
     30699      3008  TIP3      H1             35.5529647980      -36.9111703642       36.1841994811  TIP3      2816            0.0000000000
     30700      3008  TIP3      H2             36.2623149894      -35.7868013753       36.8974266923  TIP3      2816            0.0000000000
     30701      3009  TIP3      OH2           -24.6629787515      -26.3812363230       45.5475826318  TIP3      2817            0.0000000000
     30702      3009  TIP3      H1            -24.6825025941      -25.3996636124       45.5323980167  TIP3      2817            0.0000000000
     30703      3009  TIP3      H2            -25.3967085707      -26.6121232796       44.9564340118  TIP3      2817            0.0000000000
     30704      3010  TIP3      OH2           -25.8140286399      -27.1260259637       49.0609050511  TIP3      2818            0.0000000000
     30705      3010  TIP3      H1            -25.8237446834      -27.7726843809       49.7787456779  TIP3      2818            0.0000000000
     30706      3010  TIP3      H2            -26.1603513331      -27.6336617276       48.3082387992  TIP3      2818            0.0000000000
     30707      3011  TIP3      OH2           -33.4058229286      -27.4599537181       50.5778176848  TIP3      2819            0.0000000000
     30708      3011  TIP3      H1            -33.3581295658      -28.1280090782       51.2954143614  TIP3      2819            0.0000000000
     30709      3011  TIP3      H2            -32.7047121268      -26.8544334714       50.8571734147  TIP3      2819            0.0000000000
     30710      3012  TIP3      OH2           -22.1257987397      -24.1733214599       47.3447948446  TIP3      2820            0.0000000000
     30711      3012  TIP3      H1            -22.5383782028      -24.8906888065       47.8360669551  TIP3      2820            0.0000000000
     30712      3012  TIP3      H2            -22.1000813151      -23.4659275230       48.0158586693  TIP3      2820            0.0000000000
     30713      3013  TIP3      OH2           -32.5230711137      -23.0057303538       49.1174772160  TIP3      2821            0.0000000000
     30714      3013  TIP3      H1            -32.8469685957      -23.8658878451       48.7864363937  TIP3      2821            0.0000000000
     30715      3013  TIP3      H2            -31.5692951762      -23.1855125790       49.1514379900  TIP3      2821            0.0000000000
     30716      3014  TIP3      OH2           -35.6170314290      -29.4534208178       44.1860006911  TIP3      2822            0.0000000000
     30717      3014  TIP3      H1            -36.0622380128      -28.6544541883       44.5619298513  TIP3      2822            0.0000000000
     30718      3014  TIP3      H2            -36.4111566587      -29.9831428506       44.1839737886  TIP3      2822            0.0000000000
     30719      3015  TIP3      OH2           -35.2149662638      -27.2679199716       46.7014715144  TIP3      2823            0.0000000000
     30720      3015  TIP3      H1            -34.9174953447      -28.0336158591       47.2169917766  TIP3      2823            0.0000000000
     30721      3015  TIP3      H2            -34.4790038785      -27.1050803872       46.0987085083  TIP3      2823            0.0000000000
     30722      3016  TIP3      OH2           -25.0067523695      -19.0154343202       47.5829852819  TIP3      2824            0.0000000000
     30723      3016  TIP3      H1            -24.3572025517      -19.7035709126       47.2956119099  TIP3      2824            0.0000000000
     30724      3016  TIP3      H2            -25.2216160162      -19.3522810027       48.4525297339  TIP3      2824            0.0000000000
     30725      3017  TIP3      OH2           -27.4366287511      -24.7238383138       49.5349968006  TIP3      2825            0.0000000000
     30726      3017  TIP3      H1            -27.0978370316      -25.3501584080       48.8747752303  TIP3      2825            0.0000000000
     30727      3017  TIP3      H2            -26.6249058147      -24.5655278976       50.0485290590  TIP3      2825            0.0000000000
     30728      3018  TIP3      OH2           -18.8507560042      -33.0680420371       50.2547699639  TIP3      2826            0.0000000000
     30729      3018  TIP3      H1            -18.6587608577      -32.4943429559       51.0311504433  TIP3      2826            0.0000000000
     30730      3018  TIP3      H2            -18.2855152798      -32.6435218031       49.5946545605  TIP3      2826            0.0000000000
     30731      3019  TIP3      OH2           -24.2663534418      -30.2548929314       49.8573665977  TIP3      2827            0.0000000000
     30732      3019  TIP3      H1            -24.1112473422      -31.2210569619       49.8569905638  TIP3      2827            0.0000000000
     30733      3019  TIP3      H2            -24.3721476683      -30.1087584882       48.8963414881  TIP3      2827            0.0000000000
     30734      3020  TIP3      OH2           -31.1413898387      -32.1461281966       47.0707514260  TIP3      2828            0.0000000000
     30735      3020  TIP3      H1            -31.0346284040      -31.3237355077       46.5591086794  TIP3      2828            0.0000000000
     30736      3020  TIP3      H2            -31.5383982628      -32.7235737909       46.3890253654  TIP3      2828            0.0000000000
     30737      3021  TIP3      OH2           -23.4126012644      -32.1098129904       45.4349412457  TIP3      2829            0.0000000000
     30738      3021  TIP3      H1            -22.7587944986      -32.3845895228       46.1160028879  TIP3      2829            0.0000000000
     30739      3021  TIP3      H2            -22.8641988219      -31.5183947009       44.9018838585  TIP3      2829            0.0000000000
     30740      3022  TIP3      OH2           -34.5617527835      -29.8297766927       47.7342709770  TIP3      2830            0.0000000000
     30741      3022  TIP3      H1            -33.8348868324      -30.3014721795       48.1967345545  TIP3      2830            0.0000000000
     30742      3022  TIP3      H2            -34.3832293771      -30.1185038336       46.8297639528  TIP3      2830            0.0000000000
     30743      3023  TIP3      OH2           -29.3775905275      -28.2004476427       47.1155247975  TIP3      2831            0.0000000000
     30744      3023  TIP3      H1            -28.7016949775      -28.7796319705       47.5105856868  TIP3      2831            0.0000000000
     30745      3023  TIP3      H2            -29.8911795014      -28.8593088321       46.6088929574  TIP3      2831            0.0000000000
     30746      3024  TIP3      OH2           -18.3875376878      -31.6569617152       52.5332071051  TIP3      2832            0.0000000000
     30747      3024  TIP3      H1            -19.0126806614      -30.9088829015       52.4307556129  TIP3      2832            0.0000000000
     30748      3024  TIP3      H2            -18.3648470068      -31.7651034856       53.4893362817  TIP3      2832            0.0000000000
     30749      3025  TIP3      OH2           -32.2060242015      -33.2235523450       51.0825168389  TIP3      2833            0.0000000000
     30750      3025  TIP3      H1            -32.5435623173      -32.6701315594       50.3496311810  TIP3      2833            0.0000000000
     30751      3025  TIP3      H2            -32.9049263831      -33.0415877803       51.7640285223  TIP3      2833            0.0000000000
     30752      3026  TIP3      OH2           -24.9577690850      -23.7878512157       44.6472770381  TIP3      2834            0.0000000000
     30753      3026  TIP3      H1            -25.2197702001      -24.0582598849       43.7580371568  TIP3      2834            0.0000000000
     30754      3026  TIP3      H2            -25.2638535397      -22.8528556675       44.6990191852  TIP3      2834            0.0000000000
     30755      3027  TIP3      OH2           -29.7080041173      -25.6218678237       51.3403890799  TIP3      2835            0.0000000000
     30756      3027  TIP3      H1            -30.4263730837      -24.9877150781       51.5593786723  TIP3      2835            0.0000000000
     30757      3027  TIP3      H2            -29.0137851925      -25.0160158151       51.0458563664  TIP3      2835            0.0000000000
     30758      3028  TIP3      OH2           -21.5956903950      -32.7566293732       47.4105515838  TIP3      2836            0.0000000000
     30759      3028  TIP3      H1            -21.8467271713      -33.4957896657       47.9758835185  TIP3      2836            0.0000000000
     30760      3028  TIP3      H2            -20.9349471473      -32.3051428987       47.9607495482  TIP3      2836            0.0000000000
     30761      3029  TIP3      OH2           -32.7105261570      -31.3792795814       49.1142879884  TIP3      2837            0.0000000000
     30762      3029  TIP3      H1            -32.0667928865      -30.7239935151       49.4672320186  TIP3      2837            0.0000000000
     30763      3029  TIP3      H2            -32.1633098350      -31.8042710877       48.4020610472  TIP3      2837            0.0000000000
     30764      3030  TIP3      OH2           -31.2907665663      -23.6280766468       52.1506325111  TIP3      2838            0.0000000000
     30765      3030  TIP3      H1            -31.3392750772      -22.7090052532       51.8254447471  TIP3      2838            0.0000000000
     30766      3030  TIP3      H2            -32.1724613829      -23.7111655232       52.5904420312  TIP3      2838            0.0000000000
     30767      3031  TIP3      OH2           -35.2383392081      -23.9730009565       42.9055756453  TIP3      2839            0.0000000000
     30768      3031  TIP3      H1            -35.4403129889      -23.6362929852       42.0188000469  TIP3      2839            0.0000000000
     30769      3031  TIP3      H2            -35.1275454293      -23.1643960865       43.4420879796  TIP3      2839            0.0000000000
     30770      3032  TIP3      OH2           -21.5970177625      -22.3352610069       49.7134260451  TIP3      2840            0.0000000000
     30771      3032  TIP3      H1            -22.5647822403      -22.2238722836       49.8322020540  TIP3      2840            0.0000000000
     30772      3032  TIP3      H2            -21.3269507491      -21.4200063853       49.5095902770  TIP3      2840            0.0000000000
     30773      3033  TIP3      OH2           -21.2385737737      -34.0546803333       51.1617923985  TIP3      2841            0.0000000000
     30774      3033  TIP3      H1            -21.9869654330      -33.4663597708       51.0058395448  TIP3      2841            0.0000000000
     30775      3033  TIP3      H2            -20.5514248486      -33.6493759321       50.5933429302  TIP3      2841            0.0000000000
     30776      3034  TIP3      OH2           -28.3395689331      -35.9245711706       48.3951575954  TIP3      2842            0.0000000000
     30777      3034  TIP3      H1            -28.3453387701      -36.8809011208       48.5568355661  TIP3      2842            0.0000000000
     30778      3034  TIP3      H2            -29.1286997377      -35.6619299530       48.8962244012  TIP3      2842            0.0000000000
     30779      3035  TIP3      OH2           -23.3349496031      -20.5509509758       46.2991836690  TIP3      2843            0.0000000000
     30780      3035  TIP3      H1            -22.9081384907      -21.2714243701       45.7914492972  TIP3      2843            0.0000000000
     30781      3035  TIP3      H2            -22.9006201926      -19.7627485747       45.9088844493  TIP3      2843            0.0000000000
     30782      3036  TIP3      OH2           -22.1209186853      -22.6256389531       44.8204482338  TIP3      2844            0.0000000000
     30783      3036  TIP3      H1            -22.4242389946      -23.3219443109       44.2164394818  TIP3      2844            0.0000000000
     30784      3036  TIP3      H2            -22.0890155123      -23.1162216057       45.6613068788  TIP3      2844            0.0000000000
     30785      3037  TIP3      OH2           -20.5096810091      -24.0275931223       53.3124174137  TIP3      2845            0.0000000000
     30786      3037  TIP3      H1            -20.3617320595      -24.6831767017       52.5949389017  TIP3      2845            0.0000000000
     30787      3037  TIP3      H2            -20.3006056119      -23.1869934870       52.8669943016  TIP3      2845            0.0000000000
     30788      3038  TIP3      OH2           -26.0089667239      -27.1537236700       43.0702986467  TIP3      2846            0.0000000000
     30789      3038  TIP3      H1            -26.7024135379      -26.5687158288       42.7160369019  TIP3      2846            0.0000000000
     30790      3038  TIP3      H2            -25.2989232827      -27.0420840891       42.4119915640  TIP3      2846            0.0000000000
     30791      3039  TIP3      OH2           -25.9280870166      -28.5717702245       40.0848140233  TIP3      2847            0.0000000000
     30792      3039  TIP3      H1            -25.2207279281      -28.5863682587       40.7477192921  TIP3      2847            0.0000000000
     30793      3039  TIP3      H2            -25.6229278679      -29.2899352011       39.5156267737  TIP3      2847            0.0000000000
     30794      3040  TIP3      OH2           -18.6187854633      -27.7154965028       51.3563916728  TIP3      2848            0.0000000000
     30795      3040  TIP3      H1            -19.2778418977      -26.9937493587       51.3937908109  TIP3      2848            0.0000000000
     30796      3040  TIP3      H2            -18.1243113918      -27.4842313099       50.5491162597  TIP3      2848            0.0000000000
     30797      3041  TIP3      OH2           -22.5555133180      -26.9517210511       43.9858928706  TIP3      2849            0.0000000000
     30798      3041  TIP3      H1            -23.2946237359      -26.6920111861       44.5894983703  TIP3      2849            0.0000000000
     30799      3041  TIP3      H2            -22.0829959202      -27.6121930302       44.5207050850  TIP3      2849            0.0000000000
     30800      3042  TIP3      OH2           -22.6346688224      -28.7684353207       53.1255189596  TIP3      2850            0.0000000000
     30801      3042  TIP3      H1            -22.6253614513      -27.9460344712       53.6436384617  TIP3      2850            0.0000000000
     30802      3042  TIP3      H2            -23.2609372628      -28.4750852117       52.4310447908  TIP3      2850            0.0000000000
     30803      3043  TIP3      OH2           -30.9295385147      -26.2601655636       45.9171317014  TIP3      2851            0.0000000000
     30804      3043  TIP3      H1            -31.2828047599      -26.6641150984       45.0865461170  TIP3      2851            0.0000000000
     30805      3043  TIP3      H2            -30.3290902200      -26.9647698338       46.2503121911  TIP3      2851            0.0000000000
     30806      3044  TIP3      OH2           -29.6292214388      -22.8912000696       48.5902191172  TIP3      2852            0.0000000000
     30807      3044  TIP3      H1            -29.6330162558      -23.4137222566       47.7806574557  TIP3      2852            0.0000000000
     30808      3044  TIP3      H2            -28.8471717154      -23.2433762387       49.0510704345  TIP3      2852            0.0000000000
     30809      3045  TIP3      OH2           -30.5904815103      -27.5310634596       49.5756863707  TIP3      2853            0.0000000000
     30810      3045  TIP3      H1            -30.0576787719      -27.4178135082       48.7672141884  TIP3      2853            0.0000000000
     30811      3045  TIP3      H2            -30.2323486363      -26.8479743757       50.1863856553  TIP3      2853            0.0000000000
     30812      3046  TIP3      OH2           -24.2092588221      -21.9507706439       50.2805372770  TIP3      2854            0.0000000000
     30813      3046  TIP3      H1            -24.4924948795      -21.3138463269       50.9426795661  TIP3      2854            0.0000000000
     30814      3046  TIP3      H2            -24.4637809967      -22.8044915324       50.7047497923  TIP3      2854            0.0000000000
     30815      3047  TIP3      OH2           -29.6700327686      -23.0922309599       54.2736434414  TIP3      2855            0.0000000000
     30816      3047  TIP3      H1            -30.0895469091      -22.3519260373       54.7612048630  TIP3      2855            0.0000000000
     30817      3047  TIP3      H2            -30.3382122004      -23.2915812113       53.5737186910  TIP3      2855            0.0000000000
     30818      3048  TIP3      OH2           -23.6826497296      -27.7282719388       41.6603702968  TIP3      2856            0.0000000000
     30819      3048  TIP3      H1            -23.1278346038      -27.5537655603       42.4619771706  TIP3      2856            0.0000000000
     30820      3048  TIP3      H2            -23.2321803166      -27.2322811100       40.9403095666  TIP3      2856            0.0000000000
     30821      3049  TIP3      OH2           -32.7263977688      -26.9218086772       53.4506938312  TIP3      2857            0.0000000000
     30822      3049  TIP3      H1            -32.6849208684      -26.2408853106       54.1445460162  TIP3      2857            0.0000000000
     30823      3049  TIP3      H2            -33.6673940519      -26.8360472618       53.2168128298  TIP3      2857            0.0000000000
     30824      3050  TIP3      OH2           -25.9721746937      -21.0057311849       45.1357257162  TIP3      2858            0.0000000000
     30825      3050  TIP3      H1            -25.5406976329      -20.6990229875       45.9409288251  TIP3      2858            0.0000000000
     30826      3050  TIP3      H2            -26.5293879015      -20.2566185807       44.8962861811  TIP3      2858            0.0000000000
     30827      3051  TIP3      OH2           -31.4286917004      -21.0736021269       55.0217164163  TIP3      2859            0.0000000000
     30828      3051  TIP3      H1            -31.5013280986      -21.1518717552       54.0526496956  TIP3      2859            0.0000000000
     30829      3051  TIP3      H2            -32.3656112388      -21.1817575291       55.2881689106  TIP3      2859            0.0000000000
     30830      3052  TIP3      OH2           -19.9755450229      -35.8452942413       41.3101966591  TIP3      2860            0.0000000000
     30831      3052  TIP3      H1            -20.8355226033      -35.8270198582       41.7726973531  TIP3      2860            0.0000000000
     30832      3052  TIP3      H2            -19.7736759591      -34.9275143322       41.1154778504  TIP3      2860            0.0000000000
     30833      3053  TIP3      OH2           -31.9688683267      -27.2553677037       43.5462023347  TIP3      2861            0.0000000000
     30834      3053  TIP3      H1            -32.2535379176      -26.4753734402       43.0271168400  TIP3      2861            0.0000000000
     30835      3053  TIP3      H2            -32.6208433159      -27.9178969206       43.3065901692  TIP3      2861            0.0000000000
     30836      3054  TIP3      OH2           -18.8505574195      -21.6443995885       39.9175933257  TIP3      2862            0.0000000000
     30837      3054  TIP3      H1            -18.6664590879      -20.7035705081       40.0829623568  TIP3      2862            0.0000000000
     30838      3054  TIP3      H2            -17.9221650846      -21.9550185181       39.9078159137  TIP3      2862            0.0000000000
     30839      3055  TIP3      OH2           -35.2827432171      -24.9792587635       52.1693204649  TIP3      2863            0.0000000000
     30840      3055  TIP3      H1            -36.0612595763      -24.8266753801       51.5885700591  TIP3      2863            0.0000000000
     30841      3055  TIP3      H2            -35.6856502172      -25.7499784381       52.6320234523  TIP3      2863            0.0000000000
     30842      3056  TIP3      OH2           -35.8269882967      -21.8390315556       48.9286366117  TIP3      2864            0.0000000000
     30843      3056  TIP3      H1            -35.0071145072      -22.2510540098       49.2138122949  TIP3      2864            0.0000000000
     30844      3056  TIP3      H2            -36.1150332545      -21.3855194969       49.7332927550  TIP3      2864            0.0000000000
     30845      3057  TIP3      OH2           -17.8899167638      -21.3787408679       54.8964512011  TIP3      2865            0.0000000000
     30846      3057  TIP3      H1            -18.0029695804      -22.3385425933       54.8735611907  TIP3      2865            0.0000000000
     30847      3057  TIP3      H2            -18.7643611012      -21.1309463583       55.2804620296  TIP3      2865            0.0000000000
     30848      3058  TIP3      OH2           -26.9347699027      -21.8406180221       53.7561400285  TIP3      2866            0.0000000000
     30849      3058  TIP3      H1            -26.8760184090      -20.9977725152       54.2643128967  TIP3      2866            0.0000000000
     30850      3058  TIP3      H2            -27.8079964089      -22.1989075927       54.0071156609  TIP3      2866            0.0000000000
     30851      3059  TIP3      OH2           -26.4897667770      -18.0981465027       43.5451991098  TIP3      2867            0.0000000000
     30852      3059  TIP3      H1            -26.6017024701      -18.1758378546       42.5802315636  TIP3      2867            0.0000000000
     30853      3059  TIP3      H2            -26.4891226834      -17.1357478544       43.7018443959  TIP3      2867            0.0000000000
     30854      3060  TIP3      OH2           -32.8648999638      -19.2148220712       45.3581030398  TIP3      2868            0.0000000000
     30855      3060  TIP3      H1            -32.7188306593      -19.6223158959       46.2409957500  TIP3      2868            0.0000000000
     30856      3060  TIP3      H2            -33.6956349942      -19.6497535326       45.1200983814  TIP3      2868            0.0000000000
     30857      3061  TIP3      OH2           -23.4371679231      -18.8839402256       40.5297406816  TIP3      2869            0.0000000000
     30858      3061  TIP3      H1            -22.9822059853      -19.6424034849       40.0956239083  TIP3      2869            0.0000000000
     30859      3061  TIP3      H2            -23.3972332514      -19.1454706286       41.4732010695  TIP3      2869            0.0000000000
     30860      3062  TIP3      OH2           -23.7414217418      -18.9492812541       43.3040621180  TIP3      2870            0.0000000000
     30861      3062  TIP3      H1            -24.7036607531      -18.8735942562       43.4753129439  TIP3      2870            0.0000000000
     30862      3062  TIP3      H2            -23.5080189715      -19.6914164579       43.8823343450  TIP3      2870            0.0000000000
     30863      3063  TIP3      OH2           -20.7427227141      -29.9274215816       55.3635505222  TIP3      2871            0.0000000000
     30864      3063  TIP3      H1            -21.2176373118      -29.4679688392       54.6508563808  TIP3      2871            0.0000000000
     30865      3063  TIP3      H2            -20.7580101762      -30.8457752415       55.0560083564  TIP3      2871            0.0000000000
     30866      3064  TIP3      OH2           -33.5925797518      -23.4272299369       53.4315707934  TIP3      2872            0.0000000000
     30867      3064  TIP3      H1            -33.4072133187      -23.8653529371       54.2841945975  TIP3      2872            0.0000000000
     30868      3064  TIP3      H2            -34.4266700416      -23.8775792983       53.1560746103  TIP3      2872            0.0000000000
     30869      3065  TIP3      OH2           -30.9447039805      -35.0526377786       49.3437835953  TIP3      2873            0.0000000000
     30870      3065  TIP3      H1            -31.8414573411      -35.1267278914       48.9542788123  TIP3      2873            0.0000000000
     30871      3065  TIP3      H2            -31.0597883994      -34.2020838999       49.7971332704  TIP3      2873            0.0000000000
     30872      3066  TIP3      OH2           -26.3030601443      -35.3344615649       52.7317467769  TIP3      2874            0.0000000000
     30873      3066  TIP3      H1            -25.8776877131      -35.7581014879       53.4783780243  TIP3      2874            0.0000000000
     30874      3066  TIP3      H2            -27.2563908030      -35.4462841784       52.8901783892  TIP3      2874            0.0000000000
     30875      3067  TIP3      OH2           -22.9938038585      -31.5569747371       53.5889578922  TIP3      2875            0.0000000000
     30876      3067  TIP3      H1            -23.5766148546      -31.7097993910       54.3674683902  TIP3      2875            0.0000000000
     30877      3067  TIP3      H2            -23.1586233074      -30.6283009887       53.3409197700  TIP3      2875            0.0000000000
     30878      3068  TIP3      OH2           -22.2349910427      -26.6967276662       39.4790239875  TIP3      2876            0.0000000000
     30879      3068  TIP3      H1            -22.2558789864      -26.8839848883       38.5125793477  TIP3      2876            0.0000000000
     30880      3068  TIP3      H2            -21.3765289281      -26.2534154258       39.5292778749  TIP3      2876            0.0000000000
     30881      3069  TIP3      OH2           -26.6371699099      -32.7867098037       40.0003482058  TIP3      2877            0.0000000000
     30882      3069  TIP3      H1            -26.9632812747      -32.8565201001       40.9100404689  TIP3      2877            0.0000000000
     30883      3069  TIP3      H2            -26.9485963928      -33.6594601181       39.6863572726  TIP3      2877            0.0000000000
     30884      3070  TIP3      OH2           -30.8370909241      -30.0546068299       50.5683451016  TIP3      2878            0.0000000000
     30885      3070  TIP3      H1            -31.5589352937      -30.0527780936       51.2253493288  TIP3      2878            0.0000000000
     30886      3070  TIP3      H2            -30.8569193327      -29.1430139888       50.2015467619  TIP3      2878            0.0000000000
     30887      3071  TIP3      OH2           -30.8399891974      -29.9279361490       45.4305005181  TIP3      2879            0.0000000000
     30888      3071  TIP3      H1            -31.7813838849      -30.1688263523       45.2917907639  TIP3      2879            0.0000000000
     30889      3071  TIP3      H2            -30.4673285665      -30.2322836988       44.5823905293  TIP3      2879            0.0000000000
     30890      3072  TIP3      OH2           -25.3380049512      -29.4282643463       44.2077897247  TIP3      2880            0.0000000000
     30891      3072  TIP3      H1            -25.7349326856      -28.6064617595       43.8381520838  TIP3      2880            0.0000000000
     30892      3072  TIP3      H2            -24.6481654612      -29.6079936635       43.5464285348  TIP3      2880            0.0000000000
     30893      3073  TIP3      OH2           -26.2838178619      -29.2215462382       55.6405045697  TIP3      2881            0.0000000000
     30894      3073  TIP3      H1            -26.8137707453      -29.9955957791       55.9506662787  TIP3      2881            0.0000000000
     30895      3073  TIP3      H2            -25.4481550177      -29.3468502045       56.1195355479  TIP3      2881            0.0000000000
     30896      3074  TIP3      OH2           -24.3030281678      -29.9403118661       47.0509303779  TIP3      2882            0.0000000000
     30897      3074  TIP3      H1            -24.5924154454      -29.3838123930       46.3106596583  TIP3      2882            0.0000000000
     30898      3074  TIP3      H2            -24.2159465520      -30.7911032250       46.5847649635  TIP3      2882            0.0000000000
     30899      3075  TIP3      OH2           -33.1713481184      -29.8179139561       52.2532435593  TIP3      2883            0.0000000000
     30900      3075  TIP3      H1            -33.1462814250      -29.3989556861       53.1273953797  TIP3      2883            0.0000000000
     30901      3075  TIP3      H2            -33.6898349179      -30.6135939663       52.4496305984  TIP3      2883            0.0000000000
     30902      3076  TIP3      OH2           -29.8323521893      -32.3853867866       39.1172376574  TIP3      2884            0.0000000000
     30903      3076  TIP3      H1            -30.2911619827      -32.8282185916       39.8558906709  TIP3      2884            0.0000000000
     30904      3076  TIP3      H2            -30.5419518804      -31.9986412498       38.5904592355  TIP3      2884            0.0000000000
     30905      3077  TIP3      OH2           -36.1641966071      -32.3801129303       46.0331360131  TIP3      2885            0.0000000000
     30906      3077  TIP3      H1            -35.8326476510      -32.6966267267       46.9041770794  TIP3      2885            0.0000000000
     30907      3077  TIP3      H2            -36.0259713471      -33.1339321442       45.4769928019  TIP3      2885            0.0000000000
     30908      3078  TIP3      OH2           -35.2813505709      -31.8277905197       41.5947450049  TIP3      2886            0.0000000000
     30909      3078  TIP3      H1            -34.7322719931      -31.2936680654       40.9822811863  TIP3      2886            0.0000000000
     30910      3078  TIP3      H2            -36.0153837215      -31.2604224010       41.8018456699  TIP3      2886            0.0000000000
     30911      3079  TIP3      OH2           -25.1148868665      -28.3587234127       51.6034446060  TIP3      2887            0.0000000000
     30912      3079  TIP3      H1            -24.7305984777      -29.0468812243       51.0209614377  TIP3      2887            0.0000000000
     30913      3079  TIP3      H2            -25.5786747902      -28.8885729715       52.2767206059  TIP3      2887            0.0000000000
     30914      3080  TIP3      OH2           -28.3043728205      -32.3924552185       46.4192974039  TIP3      2888            0.0000000000
     30915      3080  TIP3      H1            -29.2340440271      -32.3894250684       46.7316751724  TIP3      2888            0.0000000000
     30916      3080  TIP3      H2            -27.8132863000      -32.5427418289       47.2447082390  TIP3      2888            0.0000000000
     30917      3081  TIP3      OH2           -33.4738440847      -30.8322104544       45.3004760135  TIP3      2889            0.0000000000
     30918      3081  TIP3      H1            -34.3546313868      -30.6710941748       44.9094674525  TIP3      2889            0.0000000000
     30919      3081  TIP3      H2            -33.2191217708      -31.6691839970       44.8785216758  TIP3      2889            0.0000000000
     30920      3082  TIP3      OH2           -29.8555746168      -30.7918424535       42.9349943233  TIP3      2890            0.0000000000
     30921      3082  TIP3      H1            -28.8992489079      -30.6805068742       43.0935721926  TIP3      2890            0.0000000000
     30922      3082  TIP3      H2            -30.1080582203      -30.0957447864       42.2965347813  TIP3      2890            0.0000000000
     30923      3083  TIP3      OH2           -23.9008364737      -33.1713104701       49.6752632631  TIP3      2891            0.0000000000
     30924      3083  TIP3      H1            -24.5905405678      -33.0915158843       50.3696722261  TIP3      2891            0.0000000000
     30925      3083  TIP3      H2            -24.4031576305      -33.4362672768       48.8935254605  TIP3      2891            0.0000000000
     30926      3084  TIP3      OH2           -31.1368318277      -29.6169246894       40.5120734759  TIP3      2892            0.0000000000
     30927      3084  TIP3      H1            -31.6758553336      -29.9809727430       39.7917245287  TIP3      2892            0.0000000000
     30928      3084  TIP3      H2            -30.3152184619      -29.4005819193       40.0449843470  TIP3      2892            0.0000000000
     30929      3085  TIP3      OH2           -20.7036442864      -17.5097326802       56.0109017208  TIP3      2893            0.0000000000
     30930      3085  TIP3      H1            -20.4309967174      -17.1347443755       55.1565494849  TIP3      2893            0.0000000000
     30931      3085  TIP3      H2            -19.9783641367      -17.1887508146       56.5675588486  TIP3      2893            0.0000000000
     30932      3086  TIP3      OH2           -33.0443293030      -25.0534422177       55.5899940234  TIP3      2894            0.0000000000
     30933      3086  TIP3      H1            -32.3054000226      -24.8039530893       56.1759440134  TIP3      2894            0.0000000000
     30934      3086  TIP3      H2            -33.7954449062      -24.9295726453       56.1967650841  TIP3      2894            0.0000000000
     30935      3087  TIP3      OH2           -27.0246588714      -29.6349791380       48.3292648649  TIP3      2895            0.0000000000
     30936      3087  TIP3      H1            -26.4218578980      -30.1749911060       47.8037457168  TIP3      2895            0.0000000000
     30937      3087  TIP3      H2            -27.1739850914      -30.1765791013       49.1169651096  TIP3      2895            0.0000000000
     30938      3088  TIP3      OH2           -32.0443392979      -33.4386359899       44.7708462895  TIP3      2896            0.0000000000
     30939      3088  TIP3      H1            -32.3446153886      -34.3619075543       44.7921494817  TIP3      2896            0.0000000000
     30940      3088  TIP3      H2            -31.2583984441      -33.5182586050       44.2187533966  TIP3      2896            0.0000000000
     30941      3089  TIP3      OH2           -28.3770860797      -31.2506416744       50.7345813960  TIP3      2897            0.0000000000
     30942      3089  TIP3      H1            -29.2208584734      -30.7671546869       50.8441767107  TIP3      2897            0.0000000000
     30943      3089  TIP3      H2            -27.8324167866      -30.9370700932       51.4802608084  TIP3      2897            0.0000000000
     30944      3090  TIP3      OH2           -27.7961145273      -25.0772080941       42.4450931879  TIP3      2898            0.0000000000
     30945      3090  TIP3      H1            -28.5978136016      -25.5435642915       42.1098945159  TIP3      2898            0.0000000000
     30946      3090  TIP3      H2            -28.0247313587      -24.9541153765       43.3895274764  TIP3      2898            0.0000000000
     30947      3091  TIP3      OH2           -20.6100862770      -25.8743570809       51.2486395099  TIP3      2899            0.0000000000
     30948      3091  TIP3      H1            -20.0482874669      -25.3911246183       50.6156592039  TIP3      2899            0.0000000000
     30949      3091  TIP3      H2            -21.4708729829      -25.8303793574       50.7851945609  TIP3      2899            0.0000000000
     30950      3092  TIP3      OH2           -23.9841511781      -32.2538371721       40.6384907075  TIP3      2900            0.0000000000
     30951      3092  TIP3      H1            -24.9339315248      -32.1022493504       40.4788562855  TIP3      2900            0.0000000000
     30952      3092  TIP3      H2            -23.6344847535      -31.4029622502       40.9748822322  TIP3      2900            0.0000000000
     30953      3093  TIP3      OH2           -26.3056198808      -24.8063668722       53.6910685807  TIP3      2901            0.0000000000
     30954      3093  TIP3      H1            -26.6540618718      -25.2370064997       54.4786257329  TIP3      2901            0.0000000000
     30955      3093  TIP3      H2            -26.5630660377      -23.8854001330       53.7978245641  TIP3      2901            0.0000000000
     30956      3094  TIP3      OH2           -23.2250943003      -30.3514597353       42.2373758199  TIP3      2902            0.0000000000
     30957      3094  TIP3      H1            -22.3473625349      -30.4850415347       42.6509920851  TIP3      2902            0.0000000000
     30958      3094  TIP3      H2            -23.1249025284      -29.5185187523       41.7444083019  TIP3      2902            0.0000000000
     30959      3095  TIP3      OH2           -32.6925244375      -25.6797655396       48.2339230488  TIP3      2903            0.0000000000
     30960      3095  TIP3      H1            -32.0167254313      -25.7641837603       47.5410905183  TIP3      2903            0.0000000000
     30961      3095  TIP3      H2            -32.5991591117      -26.5209871105       48.7132659334  TIP3      2903            0.0000000000
     30962      3096  TIP3      OH2           -25.7060472855      -23.6103524136       41.4755333707  TIP3      2904            0.0000000000
     30963      3096  TIP3      H1            -26.0485855505      -22.7645412545       41.8328091114  TIP3      2904            0.0000000000
     30964      3096  TIP3      H2            -26.4395985872      -24.2255958419       41.6942221571  TIP3      2904            0.0000000000
     30965      3097  TIP3      OH2           -35.7035302344      -27.3051278521       53.5098156378  TIP3      2905            0.0000000000
     30966      3097  TIP3      H1            -35.4781626993      -27.7460140496       54.3463230687  TIP3      2905            0.0000000000
     30967      3097  TIP3      H2            -36.3323997360      -27.9208832124       53.0923275820  TIP3      2905            0.0000000000
     30968      3098  TIP3      OH2           -28.6852160338      -27.7174716383       55.6824975004  TIP3      2906            0.0000000000
     30969      3098  TIP3      H1            -29.0054726378      -28.0294307756       54.8238973188  TIP3      2906            0.0000000000
     30970      3098  TIP3      H2            -27.7633387060      -28.0449953285       55.6817080940  TIP3      2906            0.0000000000
     30971      3099  TIP3      OH2           -23.9991970989      -22.3840335782       53.6391911680  TIP3      2907            0.0000000000
     30972      3099  TIP3      H1            -24.9244568605      -22.2059707764       53.4048421568  TIP3      2907            0.0000000000
     30973      3099  TIP3      H2            -24.0329215798      -22.0908326075       54.5697621775  TIP3      2907            0.0000000000
     30974      3100  TIP3      OH2           -18.3006302528      -30.2034219685       42.0051652017  TIP3      2908            0.0000000000
     30975      3100  TIP3      H1            -18.9279289621      -30.4710615176       41.3070267299  TIP3      2908            0.0000000000
     30976      3100  TIP3      H2            -18.2414612807      -29.2506479961       41.7621378470  TIP3      2908            0.0000000000
     30977      3101  TIP3      OH2           -18.3447547355      -24.3415018828       54.8303577605  TIP3      2909            0.0000000000
     30978      3101  TIP3      H1            -19.2377303747      -24.1210418565       54.4661324040  TIP3      2909            0.0000000000
     30979      3101  TIP3      H2            -17.7988541718      -24.3932040280       54.0188136119  TIP3      2909            0.0000000000
     30980      3102  TIP3      OH2           -20.0791225019      -21.3764336912       42.4186811745  TIP3      2910            0.0000000000
     30981      3102  TIP3      H1            -20.4089179666      -22.2136070613       42.7687249269  TIP3      2910            0.0000000000
     30982      3102  TIP3      H2            -19.7274555290      -21.5975191740       41.5410571199  TIP3      2910            0.0000000000
     30983      3103  TIP3      OH2           -22.8344352210      -26.5607685135       49.5312040377  TIP3      2911            0.0000000000
     30984      3103  TIP3      H1            -23.7749274744      -26.7689070230       49.4196220602  TIP3      2911            0.0000000000
     30985      3103  TIP3      H2            -22.4031394081      -27.3187925879       49.0933326993  TIP3      2911            0.0000000000
     30986      3104  TIP3      OH2           -30.3267984120      -22.2225015588       45.6441323599  TIP3      2912            0.0000000000
     30987      3104  TIP3      H1            -29.8203937432      -21.4236195037       45.4255663332  TIP3      2912            0.0000000000
     30988      3104  TIP3      H2            -31.2057807429      -21.9945039310       45.3095188923  TIP3      2912            0.0000000000
     30989      3105  TIP3      OH2           -34.6004391606      -27.3811598449       40.2389444239  TIP3      2913            0.0000000000
     30990      3105  TIP3      H1            -33.9565745271      -26.7251499831       40.5944671542  TIP3      2913            0.0000000000
     30991      3105  TIP3      H2            -35.4532703545      -27.0286445162       40.5023966097  TIP3      2913            0.0000000000
     30992      3106  TIP3      OH2           -28.9057677139      -24.5588080422       45.1362450117  TIP3      2914            0.0000000000
     30993      3106  TIP3      H1            -29.2171608856      -23.6419819886       45.2411402501  TIP3      2914            0.0000000000
     30994      3106  TIP3      H2            -29.6155067393      -25.0574206872       45.5896966000  TIP3      2914            0.0000000000
     30995      3107  TIP3      OH2           -28.4393020303      -20.3832624032       51.5550857685  TIP3      2915            0.0000000000
     30996      3107  TIP3      H1            -27.9920189822      -19.5716072308       51.2720433166  TIP3      2915            0.0000000000
     30997      3107  TIP3      H2            -27.8295885251      -20.7196583715       52.2356928435  TIP3      2915            0.0000000000
     30998      3108  TIP3      OH2           -30.2263563436      -19.5730870640       44.6718505752  TIP3      2916            0.0000000000
     30999      3108  TIP3      H1            -31.1894445317      -19.4287844433       44.8072840614  TIP3      2916            0.0000000000
     31000      3108  TIP3      H2            -29.8598635147      -18.7366981413       45.0159664796  TIP3      2916            0.0000000000
     31001      3109  TIP3      OH2           -24.9320779585      -24.3855329564       51.1749368585  TIP3      2917            0.0000000000
     31002      3109  TIP3      H1            -25.2511630656      -24.5744615472       52.0820385822  TIP3      2917            0.0000000000
     31003      3109  TIP3      H2            -24.2874039426      -25.0920371864       51.0092891125  TIP3      2917            0.0000000000
     31004      3110  TIP3      OH2           -22.5859806309      -23.3026644279       40.2658120649  TIP3      2918            0.0000000000
     31005      3110  TIP3      H1            -22.2916778275      -23.7779910240       41.0690148675  TIP3      2918            0.0000000000
     31006      3110  TIP3      H2            -23.5395763425      -23.4884612729       40.3463699160  TIP3      2918            0.0000000000
     31007      3111  TIP3      OH2           -22.1071273367      -19.7995708173       53.6637094996  TIP3      2919            0.0000000000
     31008      3111  TIP3      H1            -22.8002026404      -20.2929574687       53.1855383015  TIP3      2919            0.0000000000
     31009      3111  TIP3      H2            -21.9254095776      -19.0989984264       53.0024451423  TIP3      2919            0.0000000000
     31010      3112  TIP3      OH2           -18.1210490975      -18.9583707382       40.5237395540  TIP3      2920            0.0000000000
     31011      3112  TIP3      H1            -17.4308823445      -18.2966310920       40.3105504416  TIP3      2920            0.0000000000
     31012      3112  TIP3      H2            -18.8300785123      -18.3423470564       40.8102627695  TIP3      2920            0.0000000000
     31013      3113  TIP3      OH2           -34.0279382269      -32.5718560387       53.0426955514  TIP3      2921            0.0000000000
     31014      3113  TIP3      H1            -34.9192231553      -32.1866546815       53.1086199407  TIP3      2921            0.0000000000
     31015      3113  TIP3      H2            -34.1779310150      -33.4330095703       53.4771543270  TIP3      2921            0.0000000000
     31016      3114  TIP3      OH2           -21.8140499725      -24.6710926742       42.5087420531  TIP3      2922            0.0000000000
     31017      3114  TIP3      H1            -22.0498172856      -25.4585956114       43.0444969542  TIP3      2922            0.0000000000
     31018      3114  TIP3      H2            -20.8589895395      -24.6282651440       42.6858556651  TIP3      2922            0.0000000000
     31019      3115  TIP3      OH2           -34.2614884028      -20.7045238769       51.4355865078  TIP3      2923            0.0000000000
     31020      3115  TIP3      H1            -34.1496300607      -21.6663517866       51.4959008615  TIP3      2923            0.0000000000
     31021      3115  TIP3      H2            -34.1840111214      -20.4755623650       52.3672830557  TIP3      2923            0.0000000000
     31022      3116  TIP3      OH2           -28.4589196116      -22.2340575467       38.7621173388  TIP3      2924            0.0000000000
     31023      3116  TIP3      H1            -28.3605300310      -22.9979884975       38.1712449544  TIP3      2924            0.0000000000
     31024      3116  TIP3      H2            -28.9018983646      -22.6644507814       39.5259476936  TIP3      2924            0.0000000000
     31025      3117  TIP3      OH2           -29.6888040874      -22.7070867797       41.2141798324  TIP3      2925            0.0000000000
     31026      3117  TIP3      H1            -29.4172502369      -23.2215467986       41.9838124228  TIP3      2925            0.0000000000
     31027      3117  TIP3      H2            -29.5964520863      -21.7808074991       41.5367528323  TIP3      2925            0.0000000000
     31028      3118  TIP3      OH2           -33.1947833257      -25.4636598831       41.6898904431  TIP3      2926            0.0000000000
     31029      3118  TIP3      H1            -33.9047218877      -25.0714487682       42.2423756064  TIP3      2926            0.0000000000
     31030      3118  TIP3      H2            -32.6722176506      -24.6833053198       41.4190212022  TIP3      2926            0.0000000000
     31031      3119  TIP3      OH2           -25.3060913237      -32.7829924152       52.0101570619  TIP3      2927            0.0000000000
     31032      3119  TIP3      H1            -24.5865500841      -32.7207745261       52.6490919550  TIP3      2927            0.0000000000
     31033      3119  TIP3      H2            -25.6759606761      -33.6698105359       52.1917266473  TIP3      2927            0.0000000000
     31034      3120  TIP3      OH2           -24.5390912749      -33.2096006322       43.1294202487  TIP3      2928            0.0000000000
     31035      3120  TIP3      H1            -24.3489861156      -32.7501399384       42.2826127617  TIP3      2928            0.0000000000
     31036      3120  TIP3      H2            -24.0050367181      -32.7017971637       43.7549076729  TIP3      2928            0.0000000000
     31037      3121  TIP3      OH2           -26.8826232285      -21.0442703389       41.9091437806  TIP3      2929            0.0000000000
     31038      3121  TIP3      H1            -27.7006321536      -20.5117745520       41.9815618489  TIP3      2929            0.0000000000
     31039      3121  TIP3      H2            -26.3437745933      -20.4936613655       41.3228512616  TIP3      2929            0.0000000000
     31040      3122  TIP3      OH2           -27.3294614031      -31.4792696239       43.9322745866  TIP3      2930            0.0000000000
     31041      3122  TIP3      H1            -26.5662720288      -30.8704950459       43.9663500178  TIP3      2930            0.0000000000
     31042      3122  TIP3      H2            -27.5908126882      -31.5641654294       44.8702555157  TIP3      2930            0.0000000000
     31043      3123  TIP3      OH2           -26.7850676978      -30.4268517956       53.1174540566  TIP3      2931            0.0000000000
     31044      3123  TIP3      H1            -26.7094005976      -29.8744962740       53.9199810412  TIP3      2931            0.0000000000
     31045      3123  TIP3      H2            -26.1236568749      -31.1228271013       53.2137931768  TIP3      2931            0.0000000000
     31046      3124  TIP3      OH2           -26.4687282330      -34.3875295286       44.8525347051  TIP3      2932            0.0000000000
     31047      3124  TIP3      H1            -26.8172924924      -33.7163850784       45.4636930727  TIP3      2932            0.0000000000
     31048      3124  TIP3      H2            -25.8120283048      -33.8384241956       44.3643150932  TIP3      2932            0.0000000000
     31049      3125  TIP3      OH2           -29.4813717848      -20.0153984684       41.9375625060  TIP3      2933            0.0000000000
     31050      3125  TIP3      H1            -29.3845064452      -19.1992945369       41.3849804079  TIP3      2933            0.0000000000
     31051      3125  TIP3      H2            -29.7534069929      -19.6451952842       42.8078701395  TIP3      2933            0.0000000000
     31052      3126  TIP3      OH2           -30.8374294825      -33.3003885838       41.5019044359  TIP3      2934            0.0000000000
     31053      3126  TIP3      H1            -30.9080480790      -32.4069117725       41.8927983683  TIP3      2934            0.0000000000
     31054      3126  TIP3      H2            -29.9155740766      -33.4968141168       41.7588871998  TIP3      2934            0.0000000000
     31055      3127  TIP3      OH2           -20.6099545042      -32.5587999954       53.9771659177  TIP3      2935            0.0000000000
     31056      3127  TIP3      H1            -21.5351910232      -32.2345860312       53.8362892195  TIP3      2935            0.0000000000
     31057      3127  TIP3      H2            -20.3124952586      -32.5865045944       53.0475558795  TIP3      2935            0.0000000000
     31058      3128  TIP3      OH2           -21.9958079642      -28.7670879542       47.9620230457  TIP3      2936            0.0000000000
     31059      3128  TIP3      H1            -22.8231488752      -29.2110542709       47.6916729767  TIP3      2936            0.0000000000
     31060      3128  TIP3      H2            -21.5154920078      -29.4526907061       48.4819023788  TIP3      2936            0.0000000000
     31061      3129  TIP3      OH2           -32.6205821354      -22.8349866291       40.5556568765  TIP3      2937            0.0000000000
     31062      3129  TIP3      H1            -31.9504962232      -22.2062299571       40.8675732573  TIP3      2937            0.0000000000
     31063      3129  TIP3      H2            -32.0885438252      -23.3150982661       39.8873529044  TIP3      2937            0.0000000000
     31064      3130  TIP3      OH2           -34.3163071585      -30.1769449313       39.7208467060  TIP3      2938            0.0000000000
     31065      3130  TIP3      H1            -34.2354830907      -29.2203673511       39.8940814458  TIP3      2938            0.0000000000
     31066      3130  TIP3      H2            -35.1870498386      -30.3502964453       39.3478111779  TIP3      2938            0.0000000000
     31067      3131  TIP3      OH2           -20.9336095337      -19.5075943821       49.6397743355  TIP3      2939            0.0000000000
     31068      3131  TIP3      H1            -21.0217950572      -18.8279053269       48.9441105187  TIP3      2939            0.0000000000
     31069      3131  TIP3      H2            -19.9690759363      -19.4566115107       49.8134241693  TIP3      2939            0.0000000000
     31070      3132  TIP3      OH2           -33.6496046045      -35.2421550692       48.5120442490  TIP3      2940            0.0000000000
     31071      3132  TIP3      H1            -33.6286931293      -35.3159767960       47.5295022696  TIP3      2940            0.0000000000
     31072      3132  TIP3      H2            -33.8647922500      -36.1561444810       48.7367217778  TIP3      2940            0.0000000000
     31073      3133  TIP3      OH2           -34.4680147367      -21.4601916802       44.6127566672  TIP3      2941            0.0000000000
     31074      3133  TIP3      H1            -35.3272192583      -21.0359025355       44.5522695935  TIP3      2941            0.0000000000
     31075      3133  TIP3      H2            -33.9963586592      -21.0028365577       43.9007221760  TIP3      2941            0.0000000000
     31076      3134  TIP3      OH2           -34.8819928257      -18.8351856971       55.7333803751  TIP3      2942            0.0000000000
     31077      3134  TIP3      H1            -34.6581244562      -18.9500725950       56.6803821680  TIP3      2942            0.0000000000
     31078      3134  TIP3      H2            -35.5254580085      -19.5699518055       55.6984399324  TIP3      2942            0.0000000000
     31079      3135  TIP3      OH2           -30.5938258280      -19.9149072194       57.4770370283  TIP3      2943            0.0000000000
     31080      3135  TIP3      H1            -29.8339276104      -20.4047098636       57.8102255636  TIP3      2943            0.0000000000
     31081      3135  TIP3      H2            -30.6231361851      -20.1813648947       56.5382825307  TIP3      2943            0.0000000000
     31082      3136  TIP3      OH2           -26.4657284783      -20.3830958819       38.8852044608  TIP3      2944            0.0000000000
     31083      3136  TIP3      H1            -27.1582848799      -21.0425256166       39.1129608330  TIP3      2944            0.0000000000
     31084      3136  TIP3      H2            -25.7474648584      -20.9816855119       38.6373843764  TIP3      2944            0.0000000000
     31085      3137  TIP3      OH2           -24.0979021680      -21.5127821770       56.2326533221  TIP3      2945            0.0000000000
     31086      3137  TIP3      H1            -24.4126851145      -22.4001735042       56.5073040433  TIP3      2945            0.0000000000
     31087      3137  TIP3      H2            -23.3288528580      -21.3938632407       56.8248450963  TIP3      2945            0.0000000000
     31088      3138  TIP3      OH2           -21.9071975598      -20.6398921907       39.0713076734  TIP3      2946            0.0000000000
     31089      3138  TIP3      H1            -21.6115429029      -21.4153316498       39.5753791476  TIP3      2946            0.0000000000
     31090      3138  TIP3      H2            -21.1427940706      -20.4163009225       38.5198003922  TIP3      2946            0.0000000000
     31091      3139  TIP3      OH2           -35.3912063053      -25.0298609384       56.8656883636  TIP3      2947            0.0000000000
     31092      3139  TIP3      H1            -35.1914049295      -25.9278305003       56.5386481844  TIP3      2947            0.0000000000
     31093      3139  TIP3      H2            -36.1163044536      -24.7595141021       56.2882786339  TIP3      2947            0.0000000000
     31094      3140  TIP3      OH2           -31.0206201494      -24.6960870319       38.8879015254  TIP3      2948            0.0000000000
     31095      3140  TIP3      H1            -30.8844031530      -25.4590497698       39.4692512729  TIP3      2948            0.0000000000
     31096      3140  TIP3      H2            -30.2707054649      -24.8157740122       38.2723491169  TIP3      2948            0.0000000000
     31097      3141  TIP3      OH2           -28.6531568873      -25.0540393843       56.2561568583  TIP3      2949            0.0000000000
     31098      3141  TIP3      H1            -28.9883972689      -24.7420853233       55.3930259647  TIP3      2949            0.0000000000
     31099      3141  TIP3      H2            -28.5797694456      -26.0326476437       56.1479899708  TIP3      2949            0.0000000000
     31100      3142  TIP3      OH2           -25.5898214799      -23.5894186595       38.6678748097  TIP3      2950            0.0000000000
     31101      3142  TIP3      H1            -25.8602562725      -23.5083472358       39.5961138599  TIP3      2950            0.0000000000
     31102      3142  TIP3      H2            -25.7793521021      -24.5470258156       38.5233241705  TIP3      2950            0.0000000000
     31103      3143  TIP3      OH2           -22.9574919585      -25.1955332829       53.6489628973  TIP3      2951            0.0000000000
     31104      3143  TIP3      H1            -22.1697041149      -24.6127275921       53.5868056216  TIP3      2951            0.0000000000
     31105      3143  TIP3      H2            -23.6572496904      -24.5276732762       53.6846654916  TIP3      2951            0.0000000000
     31106      3144  TIP3      OH2           -34.5115517254      -27.8369230125       56.2449286614  TIP3      2952            0.0000000000
     31107      3144  TIP3      H1            -34.0127907885      -28.6695034155       56.1702304621  TIP3      2952            0.0000000000
     31108      3144  TIP3      H2            -34.6917132474      -27.8207785014       57.1969836171  TIP3      2952            0.0000000000
     31109      3145  TIP3      OH2           -29.8157711077      -26.6798656542       41.3246897607  TIP3      2953            0.0000000000
     31110      3145  TIP3      H1            -30.3213462956      -27.2196906416       41.9481354643  TIP3      2953            0.0000000000
     31111      3145  TIP3      H2            -29.5191456772      -27.3510814592       40.6666136159  TIP3      2953            0.0000000000
     31112      3146  TIP3      OH2           -30.5543303852      -28.8812654819       53.6050236820  TIP3      2954            0.0000000000
     31113      3146  TIP3      H1            -31.1684922512      -28.1708235348       53.8580898329  TIP3      2954            0.0000000000
     31114      3146  TIP3      H2            -30.1555043602      -28.5057844803       52.8006867253  TIP3      2954            0.0000000000
     31115      3147  TIP3      OH2           -28.7415228008      -28.4554986018       39.5190084133  TIP3      2955            0.0000000000
     31116      3147  TIP3      H1            -28.8937916749      -28.5461937419       38.5572716043  TIP3      2955            0.0000000000
     31117      3147  TIP3      H2            -27.7653070885      -28.4055354872       39.5836344489  TIP3      2955            0.0000000000
     31118      3148  TIP3      OH2           -25.4766808939      -26.3042451854       56.9427444424  TIP3      2956            0.0000000000
     31119      3148  TIP3      H1            -24.5203597782      -26.3173449749       56.8180483356  TIP3      2956            0.0000000000
     31120      3148  TIP3      H2            -25.6469203879      -27.0743516667       57.5082036413  TIP3      2956            0.0000000000
     31121      3149  TIP3      OH2           -19.4200622377      -26.1314267375       38.9314866209  TIP3      2957            0.0000000000
     31122      3149  TIP3      H1            -19.6033634437      -26.5170985770       38.0595221337  TIP3      2957            0.0000000000
     31123      3149  TIP3      H2            -19.3234070271      -25.1718441661       38.7417467125  TIP3      2957            0.0000000000
     31124      3150  TIP3      OH2           -30.1288630553      -31.4979167066       54.6648576160  TIP3      2958            0.0000000000
     31125      3150  TIP3      H1            -30.0229006783      -32.2099897376       54.0126775900  TIP3      2958            0.0000000000
     31126      3150  TIP3      H2            -30.2127142768      -30.6896785353       54.1126288448  TIP3      2958            0.0000000000
     31127      3151  TIP3      OH2           -29.7437443294      -33.0912440709       52.1877088267  TIP3      2959            0.0000000000
     31128      3151  TIP3      H1            -29.2299692517      -32.6166226326       51.4931503096  TIP3      2959            0.0000000000
     31129      3151  TIP3      H2            -30.6371597672      -33.2001664082       51.7808123852  TIP3      2959            0.0000000000
     31130      3152  TIP3      OH2           -28.2058993197      -27.6248809534       52.4625300503  TIP3      2960            0.0000000000
     31131      3152  TIP3      H1            -27.4500097262      -27.7894198982       51.8886729808  TIP3      2960            0.0000000000
     31132      3152  TIP3      H2            -28.5679300334      -26.7901079414       52.1221073460  TIP3      2960            0.0000000000
     31133      3153  TIP3      OH2           -23.8090886630      -29.8735512800       57.4162891939  TIP3      2961            0.0000000000
     31134      3153  TIP3      H1            -23.5718505802      -30.8096479979       57.3295773044  TIP3      2961            0.0000000000
     31135      3153  TIP3      H2            -22.9433836338      -29.4308876608       57.4534478442  TIP3      2961            0.0000000000
     31136      3154  TIP3      OH2           -22.4629524257      -27.0766631145       55.5888098158  TIP3      2962            0.0000000000
     31137      3154  TIP3      H1            -22.7167094093      -26.3569219899       54.9702693893  TIP3      2962            0.0000000000
     31138      3154  TIP3      H2            -21.5073175623      -27.1091806512       55.3993815530  TIP3      2962            0.0000000000
     31139      3155  TIP3      OH2           -31.7180805235      -30.2322095844       56.5724324728  TIP3      2963            0.0000000000
     31140      3155  TIP3      H1            -32.4799117191      -30.8292913372       56.4063381840  TIP3      2963            0.0000000000
     31141      3155  TIP3      H2            -31.0479090756      -30.6019734797       55.9674257810  TIP3      2963            0.0000000000
     31142      3156  TIP3      OH2           -29.0949889926      -35.4785779003       52.8833182549  TIP3      2964            0.0000000000
     31143      3156  TIP3      H1            -29.1725367776      -34.5425727032       52.5801235762  TIP3      2964            0.0000000000
     31144      3156  TIP3      H2            -29.6823695189      -35.9013420048       52.2382390806  TIP3      2964            0.0000000000
     31145      3157  TIP3      OH2           -27.6992267372      -31.3157944985       56.2205942264  TIP3      2965            0.0000000000
     31146      3157  TIP3      H1            -27.9813899493      -31.6235718310       57.1022131506  TIP3      2965            0.0000000000
     31147      3157  TIP3      H2            -28.4759206899      -31.5628843398       55.6899986953  TIP3      2965            0.0000000000
     31148      3158  TIP3      OH2           -24.9588649368      -32.1898147096       55.3340239360  TIP3      2966            0.0000000000
     31149      3158  TIP3      H1            -25.9265247103      -32.1676067761       55.4423551861  TIP3      2966            0.0000000000
     31150      3158  TIP3      H2            -24.6797735287      -32.8305218561       56.0176762206  TIP3      2966            0.0000000000
     31151      3159  TIP3      OH2           -23.3648645142      -33.4751200639       57.2511303485  TIP3      2967            0.0000000000
     31152      3159  TIP3      H1            -23.4573270974      -34.4602205026       57.2255219842  TIP3      2967            0.0000000000
     31153      3159  TIP3      H2            -23.6571202180      -33.2817601373       58.1584887393  TIP3      2967            0.0000000000
     31154      3160  TIP3      OH2           -33.4551588178      -32.3268079651       56.3700139424  TIP3      2968            0.0000000000
     31155      3160  TIP3      H1            -33.3223669398      -33.0546556157       55.7357224587  TIP3      2968            0.0000000000
     31156      3160  TIP3      H2            -33.6541332367      -32.8017273548       57.1963425351  TIP3      2968            0.0000000000
     31157      3161  TIP3      OH2           -28.7540933096       36.7218537694       55.3424101362  TIP3      2969            0.0000000000
     31158      3161  TIP3      H1            -28.0705840929       36.0502050992       55.3866510488  TIP3      2969            0.0000000000
     31159      3161  TIP3      H2            -28.8569696755       36.9293929441       54.3896534629  TIP3      2969            0.0000000000
     31160      3162  TIP3      OH2           -28.3432999736      -34.5960246063       57.3811353926  TIP3      2970            0.0000000000
     31161      3162  TIP3      H1            -28.5280734318      -35.1703101488       56.6062567220  TIP3      2970            0.0000000000
     31162      3162  TIP3      H2            -28.9836806663      -33.8739901065       57.3144009871  TIP3      2970            0.0000000000
     31163      3163  TIP3      OH2           -28.9108453270      -17.7558836909       40.5971321336  TIP3      2971            0.0000000000
     31164      3163  TIP3      H1            -27.9439615073      -17.6715156223       40.6640928978  TIP3      2971            0.0000000000
     31165      3163  TIP3      H2            -29.0560063352      -17.1551862780       39.8573997225  TIP3      2971            0.0000000000
     31166      3164  TIP3      OH2           -35.3164105526      -23.1824065611       40.0789537145  TIP3      2972            0.0000000000
     31167      3164  TIP3      H1            -34.3550147922      -23.0696393503       40.2521732661  TIP3      2972            0.0000000000
     31168      3164  TIP3      H2            -35.2797984423      -23.8249439649       39.3446115335  TIP3      2972            0.0000000000
     31169      3165  TIP3      OH2            36.8614409304      -17.6357313678       44.8640235953  TIP3      2973            0.0000000000
     31170      3165  TIP3      H1             35.9520875336      -17.8446940379       44.5577243031  TIP3      2973            0.0000000000
     31171      3165  TIP3      H2             36.9510065953      -18.2701735312       45.6154596025  TIP3      2973            0.0000000000
     31172      3166  TIP3      OH2           -35.7242943267      -19.6223092249       46.8611081760  TIP3      2974            0.0000000000
     31173      3166  TIP3      H1            -36.0814097132      -20.5103486062       47.0906635654  TIP3      2974            0.0000000000
     31174      3166  TIP3      H2            -35.4825862186      -19.3427605664       47.7637359647  TIP3      2974            0.0000000000
     31175      3167  TIP3      OH2           -18.2131797122      -18.8655091230       49.8358438861  TIP3      2975            0.0000000000
     31176      3167  TIP3      H1            -18.1826786025      -18.7051575850       50.7949665175  TIP3      2975            0.0000000000
     31177      3167  TIP3      H2            -17.5094133089      -18.2827113999       49.5328157898  TIP3      2975            0.0000000000
     31178      3168  TIP3      OH2           -18.6421690213      -19.2704719925       52.7834644734  TIP3      2976            0.0000000000
     31179      3168  TIP3      H1            -19.1111317151      -20.0401914248       52.4003107449  TIP3      2976            0.0000000000
     31180      3168  TIP3      H2            -18.1535740608      -19.7172334883       53.4947160701  TIP3      2976            0.0000000000
     31181      3169  TIP3      OH2           -20.1956540045      -23.5517965637       57.4553353919  TIP3      2977            0.0000000000
     31182      3169  TIP3      H1            -21.1017875279      -23.5741019568       57.8198114699  TIP3      2977            0.0000000000
     31183      3169  TIP3      H2            -19.8237515955      -22.7437635829       57.8630997985  TIP3      2977            0.0000000000
     31184      3170  TIP3      OH2           -18.8824187202      -25.2186934281       42.8830226769  TIP3      2978            0.0000000000
     31185      3170  TIP3      H1            -18.0165370263      -24.8269020560       43.0749737933  TIP3      2978            0.0000000000
     31186      3170  TIP3      H2            -18.8975291303      -25.9389611087       43.5509434629  TIP3      2978            0.0000000000
     31187      3171  TIP3      OH2           -18.5209120265      -27.1418463052       44.7744710417  TIP3      2979            0.0000000000
     31188      3171  TIP3      H1            -19.2718800181      -27.6421266815       45.1657648157  TIP3      2979            0.0000000000
     31189      3171  TIP3      H2            -17.9220738523      -27.0123153766       45.5359852209  TIP3      2979            0.0000000000
     31190      3172  TIP3      OH2           -18.7633785783      -24.4475290287       49.7573116014  TIP3      2980            0.0000000000
     31191      3172  TIP3      H1            -17.9508629043      -24.8263302453       49.3749723384  TIP3      2980            0.0000000000
     31192      3172  TIP3      H2            -18.6167964754      -23.4950039608       49.5852109911  TIP3      2980            0.0000000000
     31193      3173  TIP3      OH2           -20.2037767423      -21.5416720057       52.0238833094  TIP3      2981            0.0000000000
     31194      3173  TIP3      H1            -20.8941652069      -21.2011405036       52.6131050572  TIP3      2981            0.0000000000
     31195      3173  TIP3      H2            -20.7521046673      -21.9452771426       51.3172081993  TIP3      2981            0.0000000000
     31196      3174  TIP3      OH2           -18.2171056102      -27.3180273188       41.1636226598  TIP3      2982            0.0000000000
     31197      3174  TIP3      H1            -18.7853476526      -26.9784393175       40.4401415239  TIP3      2982            0.0000000000
     31198      3174  TIP3      H2            -18.2989411782      -26.5944239079       41.8137438983  TIP3      2982            0.0000000000
     31199      3175  TIP3      OH2           -19.8055737150      -30.0921152537       39.6690572043  TIP3      2983            0.0000000000
     31200      3175  TIP3      H1            -19.7855718442      -29.4080047074       38.9881686683  TIP3      2983            0.0000000000
     31201      3175  TIP3      H2            -20.0547968872      -30.8986562449       39.1778748247  TIP3      2983            0.0000000000
     31202      3176  TIP3      OH2           -20.6990657102      -28.6719070561       45.3422782606  TIP3      2984            0.0000000000
     31203      3176  TIP3      H1            -20.8481399833      -29.6264051445       45.3019763325  TIP3      2984            0.0000000000
     31204      3176  TIP3      H2            -21.0299615586      -28.4556852012       46.2341665145  TIP3      2984            0.0000000000
     31205      3177  TIP3      OH2           -35.6766436920      -26.5813606327       49.3173860127  TIP3      2985            0.0000000000
     31206      3177  TIP3      H1            -35.4743121186      -26.6435546991       48.3603601955  TIP3      2985            0.0000000000
     31207      3177  TIP3      H2            -34.8007226968      -26.7084868511       49.7433486748  TIP3      2985            0.0000000000
     31208      3178  TIP3      OH2           -19.8354783913      -26.7030672050       55.0324302887  TIP3      2986            0.0000000000
     31209      3178  TIP3      H1            -19.2261663187      -27.4606679016       55.1644182594  TIP3      2986            0.0000000000
     31210      3178  TIP3      H2            -19.2336727113      -25.9299186368       55.0339239514  TIP3      2986            0.0000000000
     31211      3179  TIP3      OH2           -18.3393404148      -28.8217179309       55.6813102871  TIP3      2987            0.0000000000
     31212      3179  TIP3      H1            -19.2211608844      -29.2214905413       55.5263754037  TIP3      2987            0.0000000000
     31213      3179  TIP3      H2            -17.7677510553      -29.6049167363       55.6058728077  TIP3      2987            0.0000000000
     31214      3180  TIP3      OH2           -20.5815565720      -32.6314182276       38.8099596921  TIP3      2988            0.0000000000
     31215      3180  TIP3      H1            -20.0257129939      -33.0542486478       39.4898383825  TIP3      2988            0.0000000000
     31216      3180  TIP3      H2            -21.4629412668      -33.0309199071       38.9607094423  TIP3      2988            0.0000000000
     31217      3181  TIP3      OH2           -21.0555629009      -31.0749477002       43.7551422743  TIP3      2989            0.0000000000
     31218      3181  TIP3      H1            -20.7395763667      -31.9917836483       43.9128450178  TIP3      2989            0.0000000000
     31219      3181  TIP3      H2            -20.2317248517      -30.6727967532       43.4514994117  TIP3      2989            0.0000000000
     31220      3182  TIP3      OH2           -20.3953399288      -30.5192609130       49.2365768481  TIP3      2990            0.0000000000
     31221      3182  TIP3      H1            -19.4310358157      -30.3084715298       49.2282668200  TIP3      2990            0.0000000000
     31222      3182  TIP3      H2            -20.5797352925      -30.4074524220       50.1820805730  TIP3      2990            0.0000000000
     31223      3183  TIP3      OH2           -20.3390552718      -29.8023297758       52.0143172002  TIP3      2991            0.0000000000
     31224      3183  TIP3      H1            -21.2172630427      -29.5237669058       52.3436543343  TIP3      2991            0.0000000000
     31225      3183  TIP3      H2            -19.8960018812      -28.9471797385       51.8009017573  TIP3      2991            0.0000000000
     31226      3184  TIP3      OH2           -35.7869083994      -31.3863476426       55.5825141129  TIP3      2992            0.0000000000
     31227      3184  TIP3      H1            -34.8968600021      -31.6420652433       55.8615825138  TIP3      2992            0.0000000000
     31228      3184  TIP3      H2            -36.3796095540      -32.1025448661       55.9170931670  TIP3      2992            0.0000000000
     31229      3185  TIP3      OH2           -17.9938577341      -35.7439742846       57.3854991647  TIP3      2993            0.0000000000
     31230      3185  TIP3      H1            -17.7582366677      -36.4149845646       56.7300102332  TIP3      2993            0.0000000000
     31231      3185  TIP3      H2            -17.9885018504      -34.9249375687       56.8640506797  TIP3      2993            0.0000000000
     31232      3186  TIP3      OH2           -20.3699162769      -33.7674416017       43.8511957474  TIP3      2994            0.0000000000
     31233      3186  TIP3      H1            -20.1653047248      -34.2423459727       44.6870228572  TIP3      2994            0.0000000000
     31234      3186  TIP3      H2            -20.9460759501      -34.4181379288       43.3810645434  TIP3      2994            0.0000000000
     31235      3187  TIP3      OH2           -34.8704978905      -32.9712358690       48.3579782282  TIP3      2995            0.0000000000
     31236      3187  TIP3      H1            -34.4382282025      -33.8013163965       48.6693004692  TIP3      2995            0.0000000000
     31237      3187  TIP3      H2            -34.3283826735      -32.3064673959       48.8138845332  TIP3      2995            0.0000000000
     31238      3188  TIP3      OH2           -36.0257837598      -29.2495573420       49.8145909344  TIP3      2996            0.0000000000
     31239      3188  TIP3      H1            -36.0137379480      -29.6756160798       48.9343348767  TIP3      2996            0.0000000000
     31240      3188  TIP3      H2            -35.9692877839      -28.3333810786       49.5381909266  TIP3      2996            0.0000000000
     31241      3189  TIP3      OH2           -18.5278937194      -33.7027107050       55.7009652463  TIP3      2997            0.0000000000
     31242      3189  TIP3      H1            -19.4548109152      -33.3957491482       55.6515014804  TIP3      2997            0.0000000000
     31243      3189  TIP3      H2            -18.4902945609      -34.2245282606       54.8849548247  TIP3      2997            0.0000000000
     31244      3190  TIP3      OH2           -18.5163323087      -33.7491507718       40.3778620009  TIP3      2998            0.0000000000
     31245      3190  TIP3      H1            -18.1644052873      -34.5235756705       39.8828934053  TIP3      2998            0.0000000000
     31246      3190  TIP3      H2            -17.8157359214      -33.0978604396       40.4745698736  TIP3      2998            0.0000000000
     31247      3191  TIP3      OH2           -35.7684750022      -33.8083233850       43.0936857890  TIP3      2999            0.0000000000
     31248      3191  TIP3      H1            -36.7026039199      -33.5841721407       43.2074039963  TIP3      2999            0.0000000000
     31249      3191  TIP3      H2            -35.5354169772      -33.0695368719       42.4936607412  TIP3      2999            0.0000000000
     31250      3192  TIP3      OH2           -21.4938480089      -18.7818350097       45.4687628596  TIP3      3000            0.0000000000
     31251      3192  TIP3      H1            -20.8090889971      -19.0838770587       44.8440457444  TIP3      3000            0.0000000000
     31252      3192  TIP3      H2            -20.9757081092      -18.2838247920       46.1171672520  TIP3      3000            0.0000000000
     31253      3193  TIP3      OH2            36.9630349219      -35.0608409359       52.0662648035  TIP3      3001            0.0000000000
     31254      3193  TIP3      H1             36.1564899242      -35.2898181465       52.5234798630  TIP3      3001            0.0000000000
     31255      3193  TIP3      H2             36.5190612090      -34.5964521321       51.3303983994  TIP3      3001            0.0000000000
     31256      3194  TIP3      OH2           -34.0820145437      -21.9082129763       55.9719326028  TIP3      3002            0.0000000000
     31257      3194  TIP3      H1            -34.9229873361      -21.6555816965       55.5617096762  TIP3      3002            0.0000000000
     31258      3194  TIP3      H2            -34.3345213442      -21.9133352394       56.8974205252  TIP3      3002            0.0000000000
     31259      3195  TIP3      OH2           -31.1061996090      -20.8532091655       52.2778594650  TIP3      3003            0.0000000000
     31260      3195  TIP3      H1            -31.5056087358      -20.0171000549       51.9796120144  TIP3      3003            0.0000000000
     31261      3195  TIP3      H2            -30.1989969923      -20.7645454254       51.9338915668  TIP3      3003            0.0000000000
     31262      3196  TIP3      OH2           -26.8219412893      -19.4510208182       55.1509462131  TIP3      3004            0.0000000000
     31263      3196  TIP3      H1            -26.6850956146      -19.8054923797       56.0592357946  TIP3      3004            0.0000000000
     31264      3196  TIP3      H2            -25.9178205251      -19.1476225240       54.9112819466  TIP3      3004            0.0000000000
     31265      3197  TIP3      OH2           -24.5333092588      -18.1832155224       54.4648855491  TIP3      3005            0.0000000000
     31266      3197  TIP3      H1            -23.8013458170      -18.7678728587       54.2264363130  TIP3      3005            0.0000000000
     31267      3197  TIP3      H2            -24.1576198795      -17.7441704271       55.2583314496  TIP3      3005            0.0000000000
     31268      3198  TIP3      OH2           -19.5119228378      -35.5501428859       53.4778398035  TIP3      3006            0.0000000000
     31269      3198  TIP3      H1            -20.3543952240      -35.2404268261       53.1054972855  TIP3      3006            0.0000000000
     31270      3198  TIP3      H2            -19.3587247224      -36.4023895281       53.0166228666  TIP3      3006            0.0000000000
     31271      3199  TIP3      OH2           -33.6872005905      -17.6344366760       52.2769129378  TIP3      3007            0.0000000000
     31272      3199  TIP3      H1            -34.4352197881      -17.1465348278       51.8764566875  TIP3      3007            0.0000000000
     31273      3199  TIP3      H2            -34.0385666850      -17.8306543358       53.1623000775  TIP3      3007            0.0000000000
     31274      3200  TIP3      OH2           -31.2349625309      -18.0526124463       51.3026338325  TIP3      3008            0.0000000000
     31275      3200  TIP3      H1            -32.1306007388      -17.9234489375       51.6998965933  TIP3      3008            0.0000000000
     31276      3200  TIP3      H2            -31.2910937342      -17.4551907653       50.5365221870  TIP3      3008            0.0000000000
     31277      3201  TIP3      OH2           -26.5399925207      -18.1451078236       50.4829876628  TIP3      3009            0.0000000000
     31278      3201  TIP3      H1            -27.0038556089      -17.5890585894       49.8397260939  TIP3      3009            0.0000000000
     31279      3201  TIP3      H2            -26.4090011874      -17.5160130583       51.2237800984  TIP3      3009            0.0000000000
     31280      3202  TIP3      OH2           -24.2544415683      -19.3402703812       51.5191492801  TIP3      3010            0.0000000000
     31281      3202  TIP3      H1            -25.1066824831      -19.0617243924       51.1462174501  TIP3      3010            0.0000000000
     31282      3202  TIP3      H2            -23.7670904224      -18.5036614358       51.4247480054  TIP3      3010            0.0000000000
     31283      3203  TIP3      OH2           -21.6716279203      -17.7703470614       51.7356896908  TIP3      3011            0.0000000000
     31284      3203  TIP3      H1            -21.7233735644      -16.8091776538       51.5084653366  TIP3      3011            0.0000000000
     31285      3203  TIP3      H2            -21.4536714124      -18.1430400233       50.8587815193  TIP3      3011            0.0000000000
     31286      3204  TIP3      OH2           -34.3098694121      -18.9840400933       49.1763512475  TIP3      3012            0.0000000000
     31287      3204  TIP3      H1            -34.3127278246      -19.4288345757       50.0476096640  TIP3      3012            0.0000000000
     31288      3204  TIP3      H2            -33.4933100786      -19.3609653073       48.7896985071  TIP3      3012            0.0000000000
     31289      3205  TIP3      OH2           -32.2103355454      -20.2712002772       47.8480448614  TIP3      3013            0.0000000000
     31290      3205  TIP3      H1            -32.3646176086      -21.2091847764       48.0806707432  TIP3      3013            0.0000000000
     31291      3205  TIP3      H2            -31.3432039654      -20.1201865337       48.2853027202  TIP3      3013            0.0000000000
     31292      3206  TIP3      OH2           -29.5939855986      -19.8003979836       48.7214972286  TIP3      3014            0.0000000000
     31293      3206  TIP3      H1            -29.4221690106      -20.7203938008       48.4581350876  TIP3      3014            0.0000000000
     31294      3206  TIP3      H2            -29.5271252899      -19.8485379747       49.6872756406  TIP3      3014            0.0000000000
     31295      3207  TIP3      OH2           -26.2423871488      -34.0773764860       47.8386826236  TIP3      3015            0.0000000000
     31296      3207  TIP3      H1            -26.8277203183      -34.7975836678       48.1205925429  TIP3      3015            0.0000000000
     31297      3207  TIP3      H2            -25.5606621888      -34.5714114411       47.3442431570  TIP3      3015            0.0000000000
     31298      3208  TIP3      OH2           -20.9821472121      -36.0668472324       47.9517044445  TIP3      3016            0.0000000000
     31299      3208  TIP3      H1            -20.3623304770      -35.5142061168       47.4285547799  TIP3      3016            0.0000000000
     31300      3208  TIP3      H2            -21.8490450019      -35.7265035809       47.7107347538  TIP3      3016            0.0000000000
     31301      3209  TIP3      OH2           -19.2955126452      -34.8123055910       46.1955689923  TIP3      3017            0.0000000000
     31302      3209  TIP3      H1            -18.6604865831      -35.4116563848       45.7882063751  TIP3      3017            0.0000000000
     31303      3209  TIP3      H2            -18.7884326685      -33.9795986024       46.2862217667  TIP3      3017            0.0000000000
     31304      3210  TIP3      OH2           -33.7714447561      -35.4832146015       45.7230651275  TIP3      3018            0.0000000000
     31305      3210  TIP3      H1            -34.5155574599      -35.7390549374       45.1665966099  TIP3      3018            0.0000000000
     31306      3210  TIP3      H2            -33.2919017622      -36.3289223819       45.7726749879  TIP3      3018            0.0000000000
     31307      3211  TIP3      OH2           -34.9525511054      -35.7870132347       41.3788208878  TIP3      3019            0.0000000000
     31308      3211  TIP3      H1            -34.4801387520      -35.1151143643       40.8740487880  TIP3      3019            0.0000000000
     31309      3211  TIP3      H2            -35.5462310649      -35.2196211293       41.8961000479  TIP3      3019            0.0000000000
     31310      3212  TIP3      OH2           -29.2185777941      -35.6595351506       45.4785494524  TIP3      3020            0.0000000000
     31311      3212  TIP3      H1            -28.3663351889      -35.1969137502       45.4411585714  TIP3      3020            0.0000000000
     31312      3212  TIP3      H2            -29.3191748303      -35.8154220404       46.4238437774  TIP3      3020            0.0000000000
     31313      3213  TIP3      OH2           -23.8314462797      -35.2014989659       47.2696646254  TIP3      3021            0.0000000000
     31314      3213  TIP3      H1            -23.6899355555      -35.2491952029       46.3200749626  TIP3      3021            0.0000000000
     31315      3213  TIP3      H2            -23.9211690587      -36.1773714321       47.4073908040  TIP3      3021            0.0000000000
     31316      3214  TIP3      OH2           -22.2908847592      -35.4993337377       42.8315933535  TIP3      3022            0.0000000000
     31317      3214  TIP3      H1            -23.0466733034      -34.9362631106       42.6080127912  TIP3      3022            0.0000000000
     31318      3214  TIP3      H2            -22.6967091604      -36.3628130194       42.9807597057  TIP3      3022            0.0000000000
     31319      3215  TIP3      OH2           -35.0656417710      -19.7783791662       42.4799852458  TIP3      3023            0.0000000000
     31320      3215  TIP3      H1            -35.6725828237      -19.8069442149       41.7256209915  TIP3      3023            0.0000000000
     31321      3215  TIP3      H2            -35.0454365634      -18.8227627812       42.6210468554  TIP3      3023            0.0000000000
     31322      3216  TIP3      OH2           -33.1766675249      -33.8522153418       39.9798145560  TIP3      3024            0.0000000000
     31323      3216  TIP3      H1            -32.6423744284      -34.4311200471       39.3995534595  TIP3      3024            0.0000000000
     31324      3216  TIP3      H2            -32.4845922641      -33.5082566819       40.5694848195  TIP3      3024            0.0000000000
     31325      3217  TIP3      OH2           -28.2070574752      -33.5805279423       42.3890310773  TIP3      3025            0.0000000000
     31326      3217  TIP3      H1            -27.8486563068      -34.1462259980       43.0950913287  TIP3      3025            0.0000000000
     31327      3217  TIP3      H2            -28.0510057532      -32.7066456335       42.8160600138  TIP3      3025            0.0000000000
     31328      3218  TIP3      OH2           -26.1964435668      -18.5033856268       40.7872579838  TIP3      3026            0.0000000000
     31329      3218  TIP3      H1            -25.2786289562      -18.2777043659       40.5653641058  TIP3      3026            0.0000000000
     31330      3218  TIP3      H2            -26.4170161447      -19.0238889603       39.9863623249  TIP3      3026            0.0000000000
     31331      3219  TIP3      OH2           -19.5067781580      -19.0032306381       43.5093473951  TIP3      3027            0.0000000000
     31332      3219  TIP3      H1            -19.6920893557      -19.7858032707       42.9362739344  TIP3      3027            0.0000000000
     31333      3219  TIP3      H2            -19.5684158574      -18.2686727284       42.8647322345  TIP3      3027            0.0000000000
     31334      3220  TIP3      OH2           -33.9788538671      -34.9830080918       55.0523376449  TIP3      3028            0.0000000000
     31335      3220  TIP3      H1            -34.3048151091      -35.7388715804       55.5564200432  TIP3      3028            0.0000000000
     31336      3220  TIP3      H2            -33.0663637699      -34.9729216925       55.4369790644  TIP3      3028            0.0000000000
     31337      3221  TIP3      OH2           -32.1379151528      -35.3870709330       56.6895592504  TIP3      3029            0.0000000000
     31338      3221  TIP3      H1            -31.1962373062      -35.5791111789       56.5540376177  TIP3      3029            0.0000000000
     31339      3221  TIP3      H2            -32.2870822569      -36.2449095576       57.1397800005  TIP3      3029            0.0000000000
     31340      3222  TIP3      OH2           -33.2758479264      -18.8588247917       39.3796006685  TIP3      3030            0.0000000000
     31341      3222  TIP3      H1            -33.5245563620      -18.5829679743       40.2705993782  TIP3      3030            0.0000000000
     31342      3222  TIP3      H2            -32.4678464173      -19.3796047438       39.5479531239  TIP3      3030            0.0000000000
     31343      3223  TIP3      OH2           -23.5563430270       37.0674723643       56.8628765387  TIP3      3031            0.0000000000
     31344      3223  TIP3      H1            -23.4950550642       36.5097844529       57.6667807464  TIP3      3031            0.0000000000
     31345      3223  TIP3      H2            -22.6622481931       36.8542634246       56.5520911442  TIP3      3031            0.0000000000
     31346      3224  TIP3      OH2           -20.2541641494      -20.2546049257       55.5780580277  TIP3      3032            0.0000000000
     31347      3224  TIP3      H1            -21.0590193092      -20.3908237923       55.0326678212  TIP3      3032            0.0000000000
     31348      3224  TIP3      H2            -20.3704886704      -19.3081135469       55.7971210542  TIP3      3032            0.0000000000
     31349      3225  TIP3      OH2            -5.8082849638      -26.3810389563       45.5486421374  TIP3      3033            0.0000000000
     31350      3225  TIP3      H1             -5.8256235156      -25.3993367804       45.5319848649  TIP3      3033            0.0000000000
     31351      3225  TIP3      H2             -6.5411269578      -26.6120064324       44.9565792317  TIP3      3033            0.0000000000
     31352      3226  TIP3      OH2            -6.9538076561      -27.1234382254       49.0611802861  TIP3      3034            0.0000000000
     31353      3226  TIP3      H1             -6.9674489814      -27.7725567972       49.7788415921  TIP3      3034            0.0000000000
     31354      3226  TIP3      H2             -7.3037360053      -27.6322234095       48.3094578408  TIP3      3034            0.0000000000
     31355      3227  TIP3      OH2           -14.6026639807      -27.4449638942       50.6135651870  TIP3      3035            0.0000000000
     31356      3227  TIP3      H1            -14.5181925184      -28.1328472490       51.3068191741  TIP3      3035            0.0000000000
     31357      3227  TIP3      H2            -13.8525156596      -26.8751592852       50.8363248287  TIP3      3035            0.0000000000
     31358      3228  TIP3      OH2            -3.2699737608      -24.1731929549       47.3448328231  TIP3      3036            0.0000000000
     31359      3228  TIP3      H1             -3.6821636909      -24.8907298254       47.8361635722  TIP3      3036            0.0000000000
     31360      3228  TIP3      H2             -3.2439347326      -23.4659188534       48.0160173791  TIP3      3036            0.0000000000
     31361      3229  TIP3      OH2           -13.6764549773      -22.9976033835       49.1129847253  TIP3      3037            0.0000000000
     31362      3229  TIP3      H1            -13.9862547126      -23.8677052392       48.7962110281  TIP3      3037            0.0000000000
     31363      3229  TIP3      H2            -12.7208566511      -23.1806785222       49.1592243139  TIP3      3037            0.0000000000
     31364      3230  TIP3      OH2           -17.0375517042      -29.4425661674       44.6072101658  TIP3      3038            0.0000000000
     31365      3230  TIP3      H1            -17.4739606243      -28.5747680630       44.5429879517  TIP3      3038            0.0000000000
     31366      3230  TIP3      H2            -17.5935839575      -29.9735534253       44.0253192967  TIP3      3038            0.0000000000
     31367      3231  TIP3      OH2           -16.3229691181      -27.1995526260       46.7522963864  TIP3      3039            0.0000000000
     31368      3231  TIP3      H1            -16.0548451645      -28.0279434126       47.1986796236  TIP3      3039            0.0000000000
     31369      3231  TIP3      H2            -15.6306462454      -27.1065087466       46.0814982181  TIP3      3039            0.0000000000
     31370      3232  TIP3      OH2            -6.1463646626      -19.0133165994       47.5853489006  TIP3      3040            0.0000000000
     31371      3232  TIP3      H1             -5.5000445631      -19.7043339494       47.2959309235  TIP3      3040            0.0000000000
     31372      3232  TIP3      H2             -6.3654879433      -19.3528238477       48.4530807079  TIP3      3040            0.0000000000
     31373      3233  TIP3      OH2            -8.5791344904      -24.7260534592       49.5347094063  TIP3      3041            0.0000000000
     31374      3233  TIP3      H1             -8.2418597812      -25.3500781545       48.8741977430  TIP3      3041            0.0000000000
     31375      3233  TIP3      H2             -7.7684215730      -24.5654373545       50.0484917542  TIP3      3041            0.0000000000
     31376      3234  TIP3      OH2             0.0052403097      -33.0679772845       50.2549959438  TIP3      3042            0.0000000000
     31377      3234  TIP3      H1              0.1973054956      -32.4942099391       51.0311652981  TIP3      3042            0.0000000000
     31378      3234  TIP3      H2              0.5704456761      -32.6436233869       49.5946465784  TIP3      3042            0.0000000000
     31379      3235  TIP3      OH2            -5.4101364982      -30.2549054676       49.8574461839  TIP3      3043            0.0000000000
     31380      3235  TIP3      H1             -5.2552404924      -31.2210592047       49.8569590810  TIP3      3043            0.0000000000
     31381      3235  TIP3      H2             -5.5163472752      -30.1086791727       48.8964338162  TIP3      3043            0.0000000000
     31382      3236  TIP3      OH2           -12.2871252853      -32.1535174151       47.0627322263  TIP3      3044            0.0000000000
     31383      3236  TIP3      H1            -12.1879654909      -31.3216008399       46.5610115273  TIP3      3044            0.0000000000
     31384      3236  TIP3      H2            -12.7020418213      -32.7235831308       46.3850524678  TIP3      3044            0.0000000000
     31385      3237  TIP3      OH2            -4.5564296638      -32.1099054795       45.4346973100  TIP3      3045            0.0000000000
     31386      3237  TIP3      H1             -3.9028457667      -32.3845327483       46.1160401728  TIP3      3045            0.0000000000
     31387      3237  TIP3      H2             -4.0079782197      -31.5185024969       44.9016752210  TIP3      3045            0.0000000000
     31388      3238  TIP3      OH2           -15.6786714662      -29.7491347871       47.7991286230  TIP3      3046            0.0000000000
     31389      3238  TIP3      H1            -15.0075654276      -30.2954716678       48.2519196015  TIP3      3046            0.0000000000
     31390      3238  TIP3      H2            -15.5697309843      -30.0684609884       46.8896704333  TIP3      3046            0.0000000000
     31391      3239  TIP3      OH2           -10.5176137918      -28.1989914317       47.1176571372  TIP3      3047            0.0000000000
     31392      3239  TIP3      H1             -9.8441158385      -28.7802229449       47.5102967515  TIP3      3047            0.0000000000
     31393      3239  TIP3      H2            -11.0340141612      -28.8559331641       46.6103644914  TIP3      3047            0.0000000000
     31394      3240  TIP3      OH2             0.4697191069      -31.6557264501       52.5339672162  TIP3      3048            0.0000000000
     31395      3240  TIP3      H1             -0.1566610697      -30.9087297038       52.4310448773  TIP3      3048            0.0000000000
     31396      3240  TIP3      H2              0.4910779621      -31.7648544030       53.4900023332  TIP3      3048            0.0000000000
     31397      3241  TIP3      OH2           -13.3760611828      -33.2109474692       51.0900659266  TIP3      3049            0.0000000000
     31398      3241  TIP3      H1            -13.7023129717      -32.6769459309       50.3369706076  TIP3      3049            0.0000000000
     31399      3241  TIP3      H2            -14.0822409476      -33.0363347515       51.7617611624  TIP3      3049            0.0000000000
     31400      3242  TIP3      OH2            -6.0967174949      -23.7879898437       44.6483737978  TIP3      3050            0.0000000000
     31401      3242  TIP3      H1             -6.3648188689      -24.0601400010       43.7614718155  TIP3      3050            0.0000000000
     31402      3242  TIP3      H2             -6.4066223194      -22.8543496533       44.7003175283  TIP3      3050            0.0000000000
     31403      3243  TIP3      OH2           -10.8771761048      -25.6234258845       51.3399636165  TIP3      3051            0.0000000000
     31404      3243  TIP3      H1            -11.5814413516      -24.9782877725       51.5609529123  TIP3      3051            0.0000000000
     31405      3243  TIP3      H2            -10.1704076677      -25.0248710223       51.0499631574  TIP3      3051            0.0000000000
     31406      3244  TIP3      OH2            -2.7398822798      -32.7565508158       47.4105740812  TIP3      3052            0.0000000000
     31407      3244  TIP3      H1             -2.9906392103      -33.4958476422       47.9758946777  TIP3      3052            0.0000000000
     31408      3244  TIP3      H2             -2.0788531533      -32.3052282137       47.9606380163  TIP3      3052            0.0000000000
     31409      3245  TIP3      OH2           -13.8303636110      -31.3607492850       49.1127483407  TIP3      3053            0.0000000000
     31410      3245  TIP3      H1            -13.1772635940      -30.7152800900       49.4539777293  TIP3      3053            0.0000000000
     31411      3245  TIP3      H2            -13.3107447812      -31.8080499261       48.3976628565  TIP3      3053            0.0000000000
     31412      3246  TIP3      OH2           -12.4246372756      -23.6157915316       52.1594711642  TIP3      3054            0.0000000000
     31413      3246  TIP3      H1            -12.4766419002      -22.7035044158       51.8226049786  TIP3      3054            0.0000000000
     31414      3246  TIP3      H2            -13.3111459095      -23.6998163916       52.5935232917  TIP3      3054            0.0000000000
     31415      3247  TIP3      OH2           -16.3546442703      -24.0153186530       42.9646717117  TIP3      3055            0.0000000000
     31416      3247  TIP3      H1            -16.5961377405      -23.6874139387       42.0794063955  TIP3      3055            0.0000000000
     31417      3247  TIP3      H2            -16.2572503820      -23.1762469859       43.4549814338  TIP3      3055            0.0000000000
     31418      3248  TIP3      OH2            -2.7401482037      -22.3352087360       49.7129552574  TIP3      3056            0.0000000000
     31419      3248  TIP3      H1             -3.7088264793      -22.2235710539       49.8322284207  TIP3      3056            0.0000000000
     31420      3248  TIP3      H2             -2.4710841634      -21.4196872152       49.5090057368  TIP3      3056            0.0000000000
     31421      3249  TIP3      OH2            -2.3825743566      -34.0546411408       51.1618710126  TIP3      3057            0.0000000000
     31422      3249  TIP3      H1             -3.1309592569      -33.4663408344       51.0057952840  TIP3      3057            0.0000000000
     31423      3249  TIP3      H2             -1.6954313321      -33.6494156637       50.5933198281  TIP3      3057            0.0000000000
     31424      3250  TIP3      OH2            -9.4775897610      -35.9255332097       48.3918683333  TIP3      3058            0.0000000000
     31425      3250  TIP3      H1             -9.4890984825      -36.8812213484       48.5571256469  TIP3      3058            0.0000000000
     31426      3250  TIP3      H2            -10.2629541145      -35.6572687635       48.8941465784  TIP3      3058            0.0000000000
     31427      3251  TIP3      OH2            -4.4775009034      -20.5502313179       46.2991398170  TIP3      3059            0.0000000000
     31428      3251  TIP3      H1             -4.0519170735      -21.2713435238       45.7913091514  TIP3      3059            0.0000000000
     31429      3251  TIP3      H2             -4.0453124068      -19.7617326302       45.9080678068  TIP3      3059            0.0000000000
     31430      3252  TIP3      OH2            -3.2647798256      -22.6255865160       44.8201036655  TIP3      3060            0.0000000000
     31431      3252  TIP3      H1             -3.5687244416      -23.3224032256       44.2167969857  TIP3      3060            0.0000000000
     31432      3252  TIP3      H2             -3.2331267391      -23.1162136211       45.6611080171  TIP3      3060            0.0000000000
     31433      3253  TIP3      OH2            -1.6543394305      -24.0259300868       53.3125269345  TIP3      3061            0.0000000000
     31434      3253  TIP3      H1             -1.5051412361      -24.6805986532       52.5943862339  TIP3      3061            0.0000000000
     31435      3253  TIP3      H2             -1.4299737560      -23.1840060739       52.8759279985  TIP3      3061            0.0000000000
     31436      3254  TIP3      OH2            -7.1534051529      -27.1539450652       43.0698349636  TIP3      3062            0.0000000000
     31437      3254  TIP3      H1             -7.8453519638      -26.5671654137       42.7148676830  TIP3      3062            0.0000000000
     31438      3254  TIP3      H2             -6.4429392316      -27.0419208796       42.4121290096  TIP3      3062            0.0000000000
     31439      3255  TIP3      OH2            -7.0729450348      -28.5730706773       40.0852882417  TIP3      3063            0.0000000000
     31440      3255  TIP3      H1             -6.3646492444      -28.5857315315       40.7471407555  TIP3      3063            0.0000000000
     31441      3255  TIP3      H2             -6.7664643445      -29.2899769045       39.5153109874  TIP3      3063            0.0000000000
     31442      3256  TIP3      OH2             0.2358335847      -27.7164172019       51.3551690069  TIP3      3064            0.0000000000
     31443      3256  TIP3      H1             -0.4219197837      -26.9937005139       51.3937759993  TIP3      3064            0.0000000000
     31444      3256  TIP3      H2              0.7318562064      -27.4841689510       50.5492359156  TIP3      3064            0.0000000000
     31445      3257  TIP3      OH2            -3.7027463108      -26.9415615144       43.9950186784  TIP3      3065            0.0000000000
     31446      3257  TIP3      H1             -4.4485432502      -26.6887404480       44.5955680142  TIP3      3065            0.0000000000
     31447      3257  TIP3      H2             -3.2303957410      -27.6100385185       44.5209347172  TIP3      3065            0.0000000000
     31448      3258  TIP3      OH2            -3.7786206547      -28.7684028301       53.1255049344  TIP3      3066            0.0000000000
     31449      3258  TIP3      H1             -3.7693487280      -27.9460285693       53.6437720049  TIP3      3066            0.0000000000
     31450      3258  TIP3      H2             -4.4049251844      -28.4750726228       52.4310581746  TIP3      3066            0.0000000000
     31451      3259  TIP3      OH2           -12.0944781093      -26.2697933795       45.9205868078  TIP3      3067            0.0000000000
     31452      3259  TIP3      H1            -12.4136727648      -26.6473593699       45.0614164307  TIP3      3067            0.0000000000
     31453      3259  TIP3      H2            -11.4798754935      -26.9655655193       46.2463607390  TIP3      3067            0.0000000000
     31454      3260  TIP3      OH2           -10.7760368322      -22.8889453179       48.5938648408  TIP3      3068            0.0000000000
     31455      3260  TIP3      H1            -10.7788010510      -23.4116786359       47.7826389362  TIP3      3068            0.0000000000
     31456      3260  TIP3      H2             -9.9922077564      -23.2439871465       49.0520749345  TIP3      3068            0.0000000000
     31457      3261  TIP3      OH2           -11.7659931154      -27.5239304008       49.5781683711  TIP3      3069            0.0000000000
     31458      3261  TIP3      H1            -11.2174434444      -27.4258819286       48.7750258187  TIP3      3069            0.0000000000
     31459      3261  TIP3      H2            -11.3746962479      -26.8558202431       50.1846074185  TIP3      3069            0.0000000000
     31460      3262  TIP3      OH2            -5.3432886643      -21.9524425318       50.2850086708  TIP3      3070            0.0000000000
     31461      3262  TIP3      H1             -5.6345687829      -21.3155346430       50.9439295353  TIP3      3070            0.0000000000
     31462      3262  TIP3      H2             -5.6043027950      -22.8057723854       50.7040367776  TIP3      3070            0.0000000000
     31463      3263  TIP3      OH2           -10.8106049731      -23.0914259500       54.2735519342  TIP3      3071            0.0000000000
     31464      3263  TIP3      H1            -11.2260672089      -22.3537534799       54.7644957668  TIP3      3071            0.0000000000
     31465      3263  TIP3      H2            -11.4915216244      -23.2945215391       53.5869985091  TIP3      3071            0.0000000000
     31466      3264  TIP3      OH2            -4.8266574255      -27.7276177690       41.6612379381  TIP3      3072            0.0000000000
     31467      3264  TIP3      H1             -4.2715018550      -27.5537158413       42.4620726081  TIP3      3072            0.0000000000
     31468      3264  TIP3      H2             -4.3760617737      -27.2325884572       40.9404579569  TIP3      3072            0.0000000000
     31469      3265  TIP3      OH2           -13.8690288674      -26.9298755713       53.4321695018  TIP3      3073            0.0000000000
     31470      3265  TIP3      H1            -13.8187936543      -26.2597207230       54.1423717221  TIP3      3073            0.0000000000
     31471      3265  TIP3      H2            -14.8112485771      -26.8465552357       53.2158123564  TIP3      3073            0.0000000000
     31472      3266  TIP3      OH2            -7.1160023830      -21.0057706360       45.1353981349  TIP3      3074            0.0000000000
     31473      3266  TIP3      H1             -6.6849600862      -20.6984253912       45.9413653318  TIP3      3074            0.0000000000
     31474      3266  TIP3      H2             -7.6737683195      -20.2573489390       44.8957618236  TIP3      3074            0.0000000000
     31475      3267  TIP3      OH2           -12.5643089274      -21.0594735614       55.0192415510  TIP3      3075            0.0000000000
     31476      3267  TIP3      H1            -12.6266538305      -21.1582102413       54.0536604703  TIP3      3075            0.0000000000
     31477      3267  TIP3      H2            -13.4938121533      -21.1952873092       55.2877737325  TIP3      3075            0.0000000000
     31478      3268  TIP3      OH2            -1.1338332524      -35.8465275258       41.3288618175  TIP3      3076            0.0000000000
     31479      3268  TIP3      H1             -2.0060863195      -35.8185778693       41.7606181192  TIP3      3076            0.0000000000
     31480      3268  TIP3      H2             -0.9020594532      -34.9382247698       41.1014274481  TIP3      3076            0.0000000000
     31481      3269  TIP3      OH2           -13.1290674500      -27.2581462809       43.5487782976  TIP3      3077            0.0000000000
     31482      3269  TIP3      H1            -13.4104082372      -26.4722105433       43.0263532659  TIP3      3077            0.0000000000
     31483      3269  TIP3      H2            -13.7800727711      -27.9134033005       43.2948641655  TIP3      3077            0.0000000000
     31484      3270  TIP3      OH2             0.0087570380      -21.6448738109       39.9151394867  TIP3      3078            0.0000000000
     31485      3270  TIP3      H1              0.1753573886      -20.7017795172       40.0848463744  TIP3      3078            0.0000000000
     31486      3270  TIP3      H2              0.9321542860      -21.9578436579       39.9117038808  TIP3      3078            0.0000000000
     31487      3271  TIP3      OH2           -17.0346795486      -24.8137487992       52.4317660113  TIP3      3079            0.0000000000
     31488      3271  TIP3      H1            -17.4780319778      -24.8978574734       51.5665658338  TIP3      3079            0.0000000000
     31489      3271  TIP3      H2            -16.9527869245      -25.7629968427       52.6453357973  TIP3      3079            0.0000000000
     31490      3272  TIP3      OH2           -17.2716588021      -22.0849772716       49.2112874317  TIP3      3080            0.0000000000
     31491      3272  TIP3      H1            -16.3137224115      -22.1983664184       49.1854039662  TIP3      3080            0.0000000000
     31492      3272  TIP3      H2            -17.3552157134      -21.2636449953       49.7103704495  TIP3      3080            0.0000000000
     31493      3273  TIP3      OH2             0.9164573213      -21.3735822219       54.8330292140  TIP3      3081            0.0000000000
     31494      3273  TIP3      H1              0.8824727343      -22.3374950516       54.8949315444  TIP3      3081            0.0000000000
     31495      3273  TIP3      H2              0.0932487881      -21.1307892705       55.3028271828  TIP3      3081            0.0000000000
     31496      3274  TIP3      OH2            -8.0790105906      -21.8409513188       53.7559147355  TIP3      3082            0.0000000000
     31497      3274  TIP3      H1             -8.0253647430      -20.9986377210       54.2629261292  TIP3      3082            0.0000000000
     31498      3274  TIP3      H2             -8.9515983564      -22.2004707809       54.0064301764  TIP3      3082            0.0000000000
     31499      3275  TIP3      OH2            -7.6305035144      -18.0986830349       43.5448101924  TIP3      3083            0.0000000000
     31500      3275  TIP3      H1             -7.7475920799      -18.1768115944       42.5800377727  TIP3      3083            0.0000000000
     31501      3275  TIP3      H2             -7.6348790764      -17.1371182595       43.7005954936  TIP3      3083            0.0000000000
     31502      3276  TIP3      OH2           -13.9961471983      -19.2216468395       45.3656913013  TIP3      3084            0.0000000000
     31503      3276  TIP3      H1            -13.8549151021      -19.6343065827       46.2446279591  TIP3      3084            0.0000000000
     31504      3276  TIP3      H2            -14.8388648118      -19.6366534290       45.1101492560  TIP3      3084            0.0000000000
     31505      3277  TIP3      OH2            -4.5791838996      -18.8821890201       40.5310541508  TIP3      3085            0.0000000000
     31506      3277  TIP3      H1             -4.1263820811      -19.6427720563       40.0955314296  TIP3      3085            0.0000000000
     31507      3277  TIP3      H2             -4.5462497154      -19.1458169906       41.4732908562  TIP3      3085            0.0000000000
     31508      3278  TIP3      OH2            -4.8732828133      -18.9452083935       43.3105383765  TIP3      3086            0.0000000000
     31509      3278  TIP3      H1             -5.8387352464      -18.8720088560       43.4724050694  TIP3      3086            0.0000000000
     31510      3278  TIP3      H2             -4.6492917661      -19.6932178288       43.8837859792  TIP3      3086            0.0000000000
     31511      3279  TIP3      OH2            -1.8865362428      -29.9274080661       55.3634829027  TIP3      3087            0.0000000000
     31512      3279  TIP3      H1             -2.3617166138      -29.4679822630       54.6509137686  TIP3      3087            0.0000000000
     31513      3279  TIP3      H2             -1.9020647263      -30.8457772598       55.0558948463  TIP3      3087            0.0000000000
     31514      3280  TIP3      OH2           -14.7517498692      -23.5098250786       53.3369161640  TIP3      3088            0.0000000000
     31515      3280  TIP3      H1            -14.5345101116      -23.8548047454       54.2300608949  TIP3      3088            0.0000000000
     31516      3280  TIP3      H2            -15.6266025502      -23.9028008569       53.1471467175  TIP3      3088            0.0000000000
     31517      3281  TIP3      OH2           -12.0928051385      -35.0652531426       49.3499148207  TIP3      3089            0.0000000000
     31518      3281  TIP3      H1            -12.9830580942      -35.1254721154       48.9513177056  TIP3      3089            0.0000000000
     31519      3281  TIP3      H2            -12.2011207332      -34.2086209430       49.7933746088  TIP3      3089            0.0000000000
     31520      3282  TIP3      OH2            -7.4474294409      -35.3356734798       52.7316057777  TIP3      3090            0.0000000000
     31521      3282  TIP3      H1             -7.0211247903      -35.7580650375       53.4786259146  TIP3      3090            0.0000000000
     31522      3282  TIP3      H2             -8.4001614434      -35.4472285909       52.8907937313  TIP3      3090            0.0000000000
     31523      3283  TIP3      OH2            -4.1381607610      -31.5571637607       53.5888517077  TIP3      3091            0.0000000000
     31524      3283  TIP3      H1             -4.7207952156      -31.7092339207       54.3677672734  TIP3      3091            0.0000000000
     31525      3283  TIP3      H2             -4.3025349851      -30.6283370879       53.3409263630  TIP3      3091            0.0000000000
     31526      3284  TIP3      OH2            -3.3791024489      -26.6954615360       39.4791744231  TIP3      3092            0.0000000000
     31527      3284  TIP3      H1             -3.4006328945      -26.8842821967       38.5125849235  TIP3      3092            0.0000000000
     31528      3284  TIP3      H2             -2.5196940457      -26.2535812127       39.5298825235  TIP3      3092            0.0000000000
     31529      3285  TIP3      OH2            -7.7833540160      -32.7862147554       39.9987336765  TIP3      3093            0.0000000000
     31530      3285  TIP3      H1             -8.1012250002      -32.8557152219       40.9113727190  TIP3      3093            0.0000000000
     31531      3285  TIP3      H2             -8.0930844714      -33.6605031235       39.6863786609  TIP3      3093            0.0000000000
     31532      3286  TIP3      OH2           -11.9631733646      -30.0515888289       50.5850217431  TIP3      3094            0.0000000000
     31533      3286  TIP3      H1            -12.7080070265      -30.0642056532       51.2109161214  TIP3      3094            0.0000000000
     31534      3286  TIP3      H2            -12.0141568108      -29.1473395940       50.2000859783  TIP3      3094            0.0000000000
     31535      3287  TIP3      OH2           -12.0041832124      -29.9379546766       45.4329564038  TIP3      3095            0.0000000000
     31536      3287  TIP3      H1            -12.9456153665      -30.1727536768       45.2998832806  TIP3      3095            0.0000000000
     31537      3287  TIP3      H2            -11.6278752606      -30.2307308822       44.5799200535  TIP3      3095            0.0000000000
     31538      3288  TIP3      OH2            -6.4823875982      -29.4282286729       44.2076066458  TIP3      3096            0.0000000000
     31539      3288  TIP3      H1             -6.8786781980      -28.6074180916       43.8366928724  TIP3      3096            0.0000000000
     31540      3288  TIP3      H2             -5.7926311487      -29.6074306300       43.5462503842  TIP3      3096            0.0000000000
     31541      3289  TIP3      OH2            -7.4279233940      -29.2220906362       55.6403452476  TIP3      3097            0.0000000000
     31542      3289  TIP3      H1             -7.9578676676      -29.9957057418       55.9509309777  TIP3      3097            0.0000000000
     31543      3289  TIP3      H2             -6.5921549199      -29.3466829515       56.1195058485  TIP3      3097            0.0000000000
     31544      3290  TIP3      OH2            -5.4466358712      -29.9403735991       47.0507703951  TIP3      3098            0.0000000000
     31545      3290  TIP3      H1             -5.7364248838      -29.3837808197       46.3107478932  TIP3      3098            0.0000000000
     31546      3290  TIP3      H2             -5.3598966971      -30.7911608640       46.5846552848  TIP3      3098            0.0000000000
     31547      3291  TIP3      OH2           -14.3478876932      -29.8017711703       52.2497621836  TIP3      3099            0.0000000000
     31548      3291  TIP3      H1            -14.2614147381      -29.3969607926       53.1300607962  TIP3      3099            0.0000000000
     31549      3291  TIP3      H2            -14.7942850851      -30.6350731224       52.4603572525  TIP3      3099            0.0000000000
     31550      3292  TIP3      OH2           -10.9770632708      -32.3981967638       39.1159554466  TIP3      3100            0.0000000000
     31551      3292  TIP3      H1            -11.4283745897      -32.8181407667       39.8727378903  TIP3      3100            0.0000000000
     31552      3292  TIP3      H2            -11.6686758451      -31.9653523641       38.6025733223  TIP3      3100            0.0000000000
     31553      3293  TIP3      OH2           -17.6795184137      -32.6639476001       46.2173113020  TIP3      3101            0.0000000000
     31554      3293  TIP3      H1            -17.0036169072      -32.7001780053       46.9282200343  TIP3      3101            0.0000000000
     31555      3293  TIP3      H2            -17.2299521560      -33.0590114918       45.4534760720  TIP3      3101            0.0000000000
     31556      3294  TIP3      OH2           -16.4406623380      -31.9863701593       41.5613886802  TIP3      3102            0.0000000000
     31557      3294  TIP3      H1            -15.9055742607      -31.3545406400       41.0385527425  TIP3      3102            0.0000000000
     31558      3294  TIP3      H2            -17.1013159947      -31.3580827133       41.9256280864  TIP3      3102            0.0000000000
     31559      3295  TIP3      OH2            -6.2592066240      -28.3585915465       51.6034739120  TIP3      3103            0.0000000000
     31560      3295  TIP3      H1             -5.8755223632      -29.0465849197       51.0204214725  TIP3      3103            0.0000000000
     31561      3295  TIP3      H2             -6.7225987655      -28.8886497530       52.2767553828  TIP3      3103            0.0000000000
     31562      3296  TIP3      OH2            -9.4462863301      -32.3922843294       46.4188886766  TIP3      3104            0.0000000000
     31563      3296  TIP3      H1            -10.3747662788      -32.3918073574       46.7299958769  TIP3      3104            0.0000000000
     31564      3296  TIP3      H2             -8.9564646777      -32.5422416578       47.2448469156  TIP3      3104            0.0000000000
     31565      3297  TIP3      OH2           -14.6398486563      -30.8321619604       45.3083897687  TIP3      3105            0.0000000000
     31566      3297  TIP3      H1            -15.5259931627      -30.6803448304       44.9201271620  TIP3      3105            0.0000000000
     31567      3297  TIP3      H2            -14.3437637548      -31.6614626233       44.8947048189  TIP3      3105            0.0000000000
     31568      3298  TIP3      OH2           -10.9959369247      -30.7899741481       42.9406704404  TIP3      3106            0.0000000000
     31569      3298  TIP3      H1            -10.0403119607      -30.6831593733       43.0975078559  TIP3      3106            0.0000000000
     31570      3298  TIP3      H2            -11.2347821127      -30.1014143760       42.2897666670  TIP3      3106            0.0000000000
     31571      3299  TIP3      OH2            -5.0449634166      -33.1712945360       49.6758427853  TIP3      3107            0.0000000000
     31572      3299  TIP3      H1             -5.7341613255      -33.0914288692       50.3692482000  TIP3      3107            0.0000000000
     31573      3299  TIP3      H2             -5.5468863586      -33.4361231047       48.8935161860  TIP3      3107            0.0000000000
     31574      3300  TIP3      OH2           -12.2965818797      -29.6259664192       40.5234240989  TIP3      3108            0.0000000000
     31575      3300  TIP3      H1            -12.8236424839      -29.9765877422       39.7888210135  TIP3      3108            0.0000000000
     31576      3300  TIP3      H2            -11.4762430118      -29.4060117586       40.0569501195  TIP3      3108            0.0000000000
     31577      3301  TIP3      OH2            -1.8760248339      -17.4528705377       56.0520661989  TIP3      3109            0.0000000000
     31578      3301  TIP3      H1             -1.5806945155      -17.1502840834       55.1680394878  TIP3      3109            0.0000000000
     31579      3301  TIP3      H2             -1.0756661029      -17.2147529540       56.5580404371  TIP3      3109            0.0000000000
     31580      3302  TIP3      OH2           -14.1680816819      -25.0228324067       55.5786767932  TIP3      3110            0.0000000000
     31581      3302  TIP3      H1            -13.4478972596      -24.7879809548       56.1872024560  TIP3      3110            0.0000000000
     31582      3302  TIP3      H2            -14.9398743869      -24.9525723789       56.1823756177  TIP3      3110            0.0000000000
     31583      3303  TIP3      OH2            -8.1637604921      -29.6323651753       48.3303910268  TIP3      3111            0.0000000000
     31584      3303  TIP3      H1             -7.5674821303      -30.1770659521       47.8027625186  TIP3      3111            0.0000000000
     31585      3303  TIP3      H2             -8.3191357604      -30.1759787298       49.1152776271  TIP3      3111            0.0000000000
     31586      3304  TIP3      OH2           -13.1736678710      -33.4524696183       44.7748821783  TIP3      3112            0.0000000000
     31587      3304  TIP3      H1            -13.4836343409      -34.3735440228       44.7936067332  TIP3      3112            0.0000000000
     31588      3304  TIP3      H2            -12.3923082875      -33.5374512437       44.2176998099  TIP3      3112            0.0000000000
     31589      3305  TIP3      OH2            -9.5196289840      -31.2516095233       50.7345353910  TIP3      3113            0.0000000000
     31590      3305  TIP3      H1            -10.3642336609      -30.7668040156       50.8438522526  TIP3      3113            0.0000000000
     31591      3305  TIP3      H2             -8.9763507919      -30.9372346299       51.4794953888  TIP3      3113            0.0000000000
     31592      3306  TIP3      OH2            -8.9393906760      -25.0841593728       42.4481342825  TIP3      3114            0.0000000000
     31593      3306  TIP3      H1             -9.7424595729      -25.5407722474       42.1087378859  TIP3      3114            0.0000000000
     31594      3306  TIP3      H2             -9.1688219574      -24.9535476482       43.3890964188  TIP3      3114            0.0000000000
     31595      3307  TIP3      OH2            -1.7539494360      -25.8742353109       51.2486347712  TIP3      3115            0.0000000000
     31596      3307  TIP3      H1             -1.1925197153      -25.3911064164       50.6154761098  TIP3      3115            0.0000000000
     31597      3307  TIP3      H2             -2.6148842414      -25.8303040990       50.7852785740  TIP3      3115            0.0000000000
     31598      3308  TIP3      OH2            -5.1297243498      -32.2547287877       40.6466308311  TIP3      3116            0.0000000000
     31599      3308  TIP3      H1             -6.0758424349      -32.0995285518       40.4771240289  TIP3      3116            0.0000000000
     31600      3308  TIP3      H2             -4.7771834682      -31.4019892441       40.9741270088  TIP3      3116            0.0000000000
     31601      3309  TIP3      OH2            -7.4498729790      -24.8065134523       53.6913863690  TIP3      3117            0.0000000000
     31602      3309  TIP3      H1             -7.7976511639      -25.2373444496       54.4791166882  TIP3      3117            0.0000000000
     31603      3309  TIP3      H2             -7.7097331100      -23.8863564374       53.8001626325  TIP3      3117            0.0000000000
     31604      3310  TIP3      OH2            -4.3680300374      -30.3511497099       42.2397650195  TIP3      3118            0.0000000000
     31605      3310  TIP3      H1             -3.4879833794      -30.4903030408       42.6486412237  TIP3      3118            0.0000000000
     31606      3310  TIP3      H2             -4.2678383462      -29.5196546472       41.7440357362  TIP3      3118            0.0000000000
     31607      3311  TIP3      OH2           -13.8266906648      -25.6779695432       48.2461093184  TIP3      3119            0.0000000000
     31608      3311  TIP3      H1            -13.1555275327      -25.7666349531       47.5409321776  TIP3      3119            0.0000000000
     31609      3311  TIP3      H2            -13.7713041194      -26.5383791515       48.7000631983  TIP3      3119            0.0000000000
     31610      3312  TIP3      OH2            -6.8531938393      -23.6110526554       41.4760207384  TIP3      3120            0.0000000000
     31611      3312  TIP3      H1             -7.1937356057      -22.7640284333       41.8320719292  TIP3      3120            0.0000000000
     31612      3312  TIP3      H2             -7.5906752045      -24.2222244238       41.6923272270  TIP3      3120            0.0000000000
     31613      3313  TIP3      OH2           -16.8413338871      -27.2819243594       53.5089940429  TIP3      3121            0.0000000000
     31614      3313  TIP3      H1            -16.6732495636      -27.7259207330       54.3618731904  TIP3      3121            0.0000000000
     31615      3313  TIP3      H2            -17.4624583180      -27.8894811998       53.0684183159  TIP3      3121            0.0000000000
     31616      3314  TIP3      OH2            -9.8304382474      -27.7190940915       55.6826528619  TIP3      3122            0.0000000000
     31617      3314  TIP3      H1            -10.1495473462      -28.0295758570       54.8234545746  TIP3      3122            0.0000000000
     31618      3314  TIP3      H2             -8.9078041339      -28.0444840131       55.6818001202  TIP3      3122            0.0000000000
     31619      3315  TIP3      OH2            -5.1414000365      -22.3735105251       53.6482720422  TIP3      3123            0.0000000000
     31620      3315  TIP3      H1             -6.0670237500      -22.1929937688       53.4115490576  TIP3      3123            0.0000000000
     31621      3315  TIP3      H2             -5.1754328109      -22.0874327264       54.5783068855  TIP3      3123            0.0000000000
     31622      3316  TIP3      OH2             0.5359965198      -30.1952971219       42.0218437509  TIP3      3124            0.0000000000
     31623      3316  TIP3      H1             -0.0383065941      -30.4872940405       41.2880402679  TIP3      3124            0.0000000000
     31624      3316  TIP3      H2              0.6041174962      -29.2463566090       41.7692974660  TIP3      3124            0.0000000000
     31625      3317  TIP3      OH2             0.5040859000      -24.3391472669       54.8360645669  TIP3      3125            0.0000000000
     31626      3317  TIP3      H1             -0.3834190346      -24.1198622346       54.4644313041  TIP3      3125            0.0000000000
     31627      3317  TIP3      H2              1.0636765461      -24.3735809557       54.0310569950  TIP3      3125            0.0000000000
     31628      3318  TIP3      OH2            -1.2166968187      -21.3660876387       42.4262353042  TIP3      3126            0.0000000000
     31629      3318  TIP3      H1             -1.5518220863      -22.2049062895       42.7706282979  TIP3      3126            0.0000000000
     31630      3318  TIP3      H2             -0.8663028287      -21.5883088820       41.5467677942  TIP3      3126            0.0000000000
     31631      3319  TIP3      OH2            -3.9775807112      -26.5599904595       49.5312727638  TIP3      3127            0.0000000000
     31632      3319  TIP3      H1             -4.9177034955      -26.7682906090       49.4198907987  TIP3      3127            0.0000000000
     31633      3319  TIP3      H2             -3.5459425478      -27.3182098589       49.0941491901  TIP3      3127            0.0000000000
     31634      3320  TIP3      OH2           -11.4565673138      -22.2252338055       45.6314424953  TIP3      3128            0.0000000000
     31635      3320  TIP3      H1            -10.9587583081      -21.4193236247       45.4235515226  TIP3      3128            0.0000000000
     31636      3320  TIP3      H2            -12.3356286063      -21.9983623031       45.2985328611  TIP3      3128            0.0000000000
     31637      3321  TIP3      OH2           -15.6833777708      -27.3848397859       40.1929586321  TIP3      3129            0.0000000000
     31638      3321  TIP3      H1            -15.1124144678      -26.7106703018       40.6104021988  TIP3      3129            0.0000000000
     31639      3321  TIP3      H2            -16.5798598554      -27.0889782087       40.4490508310  TIP3      3129            0.0000000000
     31640      3322  TIP3      OH2           -10.0254800736      -24.5672480744       45.1723111660  TIP3      3130            0.0000000000
     31641      3322  TIP3      H1            -10.3526952991      -23.6483905573       45.2395337986  TIP3      3130            0.0000000000
     31642      3322  TIP3      H2            -10.7697998155      -25.0549235770       45.5763979644  TIP3      3130            0.0000000000
     31643      3323  TIP3      OH2            -9.5954823756      -20.3785780184       51.5616107312  TIP3      3131            0.0000000000
     31644      3323  TIP3      H1             -9.1341756608      -19.5746797946       51.2732000558  TIP3      3131            0.0000000000
     31645      3323  TIP3      H2             -8.9779023972      -20.7211332882       52.2333717198  TIP3      3131            0.0000000000
     31646      3324  TIP3      OH2           -11.3653823817      -19.5734232628       44.6837142861  TIP3      3132            0.0000000000
     31647      3324  TIP3      H1            -12.3344672853      -19.4336189133       44.7873502647  TIP3      3132            0.0000000000
     31648      3324  TIP3      H2            -11.0061425787      -18.7324415529       45.0201326980  TIP3      3132            0.0000000000
     31649      3325  TIP3      OH2            -6.0764953283      -24.3857288120       51.1749045085  TIP3      3133            0.0000000000
     31650      3325  TIP3      H1             -6.3952434512      -24.5744259948       52.0821564217  TIP3      3133            0.0000000000
     31651      3325  TIP3      H2             -5.4313138810      -25.0918658191       51.0093483766  TIP3      3133            0.0000000000
     31652      3326  TIP3      OH2            -3.7298939807      -23.3026030630       40.2658884893  TIP3      3134            0.0000000000
     31653      3326  TIP3      H1             -3.4361523505      -23.7783083532       41.0691620023  TIP3      3134            0.0000000000
     31654      3326  TIP3      H2             -4.6836735334      -23.4884509727       40.3457371887  TIP3      3134            0.0000000000
     31655      3327  TIP3      OH2            -3.2835511006      -19.7788554696       53.6852181431  TIP3      3135            0.0000000000
     31656      3327  TIP3      H1             -3.9467673827      -20.2886884779       53.1865954301  TIP3      3135            0.0000000000
     31657      3327  TIP3      H2             -3.0567021007      -19.0985885709       53.0170576025  TIP3      3135            0.0000000000
     31658      3328  TIP3      OH2             0.7260449496      -18.9601412058       40.5104819893  TIP3      3136            0.0000000000
     31659      3328  TIP3      H1              1.4129092269      -18.3003866144       40.2914714943  TIP3      3136            0.0000000000
     31660      3328  TIP3      H2              0.0100908393      -18.3487678356       40.7907482995  TIP3      3136            0.0000000000
     31661      3329  TIP3      OH2           -15.1969571144      -32.5650985640       53.0800055651  TIP3      3137            0.0000000000
     31662      3329  TIP3      H1            -16.1024233602      -32.2103583565       53.0371848643  TIP3      3137            0.0000000000
     31663      3329  TIP3      H2            -15.3295121087      -33.4363339827       53.4928671908  TIP3      3137            0.0000000000
     31664      3330  TIP3      OH2            -2.9573420265      -24.6711858663       42.5079830332  TIP3      3138            0.0000000000
     31665      3330  TIP3      H1             -3.1943176426      -25.4582405068       43.0451561586  TIP3      3138            0.0000000000
     31666      3330  TIP3      H2             -2.0045070958      -24.6273899678       42.6845590762  TIP3      3138            0.0000000000
     31667      3331  TIP3      OH2           -15.5798596207      -20.7626149122       51.4828132259  TIP3      3139            0.0000000000
     31668      3331  TIP3      H1            -15.2750957174      -21.6829430355       51.4898317488  TIP3      3139            0.0000000000
     31669      3331  TIP3      H2            -15.3172674671      -20.4708320276       52.3629271129  TIP3      3139            0.0000000000
     31670      3332  TIP3      OH2            -9.5815129937      -22.2379341085       38.7684194723  TIP3      3140            0.0000000000
     31671      3332  TIP3      H1             -9.5195760549      -22.9988086621       38.1747845889  TIP3      3140            0.0000000000
     31672      3332  TIP3      H2            -10.0578785925      -22.6540254118       39.5246807912  TIP3      3140            0.0000000000
     31673      3333  TIP3      OH2           -10.7432655079      -22.7147453021       41.2072086103  TIP3      3141            0.0000000000
     31674      3333  TIP3      H1            -10.5967538633      -23.2166816545       42.0080193196  TIP3      3141            0.0000000000
     31675      3333  TIP3      H2            -10.7742108386      -21.7806348201       41.5143845162  TIP3      3141            0.0000000000
     31676      3334  TIP3      OH2           -14.3258633850      -25.5727178216       41.7681315616  TIP3      3142            0.0000000000
     31677      3334  TIP3      H1            -15.0161772166      -25.0758956131       42.2428112697  TIP3      3142            0.0000000000
     31678      3334  TIP3      H2            -13.8134351093      -24.7829990936       41.4226495226  TIP3      3142            0.0000000000
     31679      3335  TIP3      OH2            -6.4502267184      -32.7825264007       52.0102630395  TIP3      3143            0.0000000000
     31680      3335  TIP3      H1             -5.7304254786      -32.7204971618       52.6490049297  TIP3      3143            0.0000000000
     31681      3335  TIP3      H2             -6.8197249247      -33.6694498367       52.1914393791  TIP3      3143            0.0000000000
     31682      3336  TIP3      OH2            -5.6839380987      -33.2094471721       43.1292610310  TIP3      3144            0.0000000000
     31683      3336  TIP3      H1             -5.4910506012      -32.7532911748       42.2802140021  TIP3      3144            0.0000000000
     31684      3336  TIP3      H2             -5.1465916573      -32.7023505448       43.7519433243  TIP3      3144            0.0000000000
     31685      3337  TIP3      OH2            -8.0307067993      -21.0421790081       41.9138283018  TIP3      3145            0.0000000000
     31686      3337  TIP3      H1             -8.8636338661      -20.5240137374       41.9651193509  TIP3      3145            0.0000000000
     31687      3337  TIP3      H2             -7.4984608881      -20.4942866628       41.3199147963  TIP3      3145            0.0000000000
     31688      3338  TIP3      OH2            -8.4710744366      -31.4824868674       43.9332838759  TIP3      3146            0.0000000000
     31689      3338  TIP3      H1             -7.7103167231      -30.8699968766       43.9663904639  TIP3      3146            0.0000000000
     31690      3338  TIP3      H2             -8.7348592986      -31.5642826095       44.8702637423  TIP3      3146            0.0000000000
     31691      3339  TIP3      OH2            -7.9294451872      -30.4270700578       53.1177163648  TIP3      3147            0.0000000000
     31692      3339  TIP3      H1             -7.8532144815      -29.8743501065       53.9199125038  TIP3      3147            0.0000000000
     31693      3339  TIP3      H2             -7.2676078553      -31.1227448745       53.2135755236  TIP3      3147            0.0000000000
     31694      3340  TIP3      OH2            -7.6128946703      -34.3873671383       44.8521942196  TIP3      3148            0.0000000000
     31695      3340  TIP3      H1             -7.9613135919      -33.7164533525       45.4637547703  TIP3      3148            0.0000000000
     31696      3340  TIP3      H2             -6.9557605892      -33.8382857690       44.3645209634  TIP3      3148            0.0000000000
     31697      3341  TIP3      OH2           -10.5789955375      -20.0051467141       41.9565620531  TIP3      3149            0.0000000000
     31698      3341  TIP3      H1            -10.5548841301      -19.2081940052       41.3728897940  TIP3      3149            0.0000000000
     31699      3341  TIP3      H2            -10.9144388219      -19.6450211372       42.8024962345  TIP3      3149            0.0000000000
     31700      3342  TIP3      OH2           -12.0070036269      -33.2926868158       41.4937325038  TIP3      3150            0.0000000000
     31701      3342  TIP3      H1            -12.0397843608      -32.4038752905       41.9031541408  TIP3      3150            0.0000000000
     31702      3342  TIP3      H2            -11.0829320929      -33.5035220310       41.7543299852  TIP3      3150            0.0000000000
     31703      3343  TIP3      OH2            -1.7547818137      -32.5577593912       53.9775296136  TIP3      3151            0.0000000000
     31704      3343  TIP3      H1             -2.6827206518      -32.2402738162       53.8370119184  TIP3      3151            0.0000000000
     31705      3343  TIP3      H2             -1.4569584965      -32.5862183717       53.0477870955  TIP3      3151            0.0000000000
     31706      3344  TIP3      OH2            -3.1397313579      -28.7671258035       47.9619839858  TIP3      3152            0.0000000000
     31707      3344  TIP3      H1             -3.9671551365      -29.2109991131       47.6917022149  TIP3      3152            0.0000000000
     31708      3344  TIP3      H2             -2.6595189400      -29.4527006395       48.4819360730  TIP3      3152            0.0000000000
     31709      3345  TIP3      OH2           -13.4935777866      -23.3505488813       40.9426283124  TIP3      3153            0.0000000000
     31710      3345  TIP3      H1            -13.2568951541      -22.3932653215       40.9596617974  TIP3      3153            0.0000000000
     31711      3345  TIP3      H2            -13.2963289810      -23.3900616960       39.9818437507  TIP3      3153            0.0000000000
     31712      3346  TIP3      OH2           -15.4208458469      -30.1798896679       39.6954375838  TIP3      3154            0.0000000000
     31713      3346  TIP3      H1            -15.3677678866      -29.2225014632       39.9166828447  TIP3      3154            0.0000000000
     31714      3346  TIP3      H2            -16.3269017794      -30.3001757338       39.4058263695  TIP3      3154            0.0000000000
     31715      3347  TIP3      OH2            -2.0766310685      -19.5091447014       49.6391844088  TIP3      3155            0.0000000000
     31716      3347  TIP3      H1             -2.1647003495      -18.8279545367       48.9440806584  TIP3      3155            0.0000000000
     31717      3347  TIP3      H2             -1.1130223100      -19.4557193778       49.8137419269  TIP3      3155            0.0000000000
     31718      3348  TIP3      OH2           -14.8254929432      -35.2255045414       48.4997679595  TIP3      3156            0.0000000000
     31719      3348  TIP3      H1            -14.7651876368      -35.3264662343       47.5216812248  TIP3      3156            0.0000000000
     31720      3348  TIP3      H2            -14.9712106375      -36.1490626047       48.7258246251  TIP3      3156            0.0000000000
     31721      3349  TIP3      OH2           -15.6195959026      -21.4509066871       44.5955916123  TIP3      3157            0.0000000000
     31722      3349  TIP3      H1            -16.4842879768      -21.0213319728       44.5346508562  TIP3      3157            0.0000000000
     31723      3349  TIP3      H2            -15.1533061075      -21.0085566413       43.8722305203  TIP3      3157            0.0000000000
     31724      3350  TIP3      OH2           -16.4253059836      -18.8158735769       55.8775880711  TIP3      3158            0.0000000000
     31725      3350  TIP3      H1            -15.8213488081      -19.0208421165       56.6217351758  TIP3      3158            0.0000000000
     31726      3350  TIP3      H2            -16.8210094846      -19.6866308529       55.6920621708  TIP3      3158            0.0000000000
     31727      3351  TIP3      OH2           -11.7349227849      -19.8737697193       57.4692096213  TIP3      3159            0.0000000000
     31728      3351  TIP3      H1            -11.0162907424      -20.4068422145       57.8364780435  TIP3      3159            0.0000000000
     31729      3351  TIP3      H2            -11.7779826737      -20.1949996300       56.5492409424  TIP3      3159            0.0000000000
     31730      3352  TIP3      OH2            -7.6107382114      -20.3842788027       38.8901977000  TIP3      3160            0.0000000000
     31731      3352  TIP3      H1             -8.3207476891      -21.0354673949       39.1060781019  TIP3      3160            0.0000000000
     31732      3352  TIP3      H2             -6.8977251656      -20.9864858885       38.6389516721  TIP3      3160            0.0000000000
     31733      3353  TIP3      OH2            -5.2430175213      -21.4870228572       56.2549143006  TIP3      3161            0.0000000000
     31734      3353  TIP3      H1             -5.5572894827      -22.3847767032       56.5016114216  TIP3      3161            0.0000000000
     31735      3353  TIP3      H2             -4.4566099901      -21.4168202771       56.8246006643  TIP3      3161            0.0000000000
     31736      3354  TIP3      OH2            -3.0512999422      -20.6378309554       39.0734446749  TIP3      3162            0.0000000000
     31737      3354  TIP3      H1             -2.7562821270      -21.4154501209       39.5745807959  TIP3      3162            0.0000000000
     31738      3354  TIP3      H2             -2.2888263716      -20.4171658433       38.5194682035  TIP3      3162            0.0000000000
     31739      3355  TIP3      OH2           -16.5172298796      -25.0475623710       56.8715284627  TIP3      3163            0.0000000000
     31740      3355  TIP3      H1            -16.3495010014      -25.9568239006       56.5674250487  TIP3      3163            0.0000000000
     31741      3355  TIP3      H2            -17.2545757753      -24.7851521170       56.2961290388  TIP3      3163            0.0000000000
     31742      3356  TIP3      OH2           -12.1719357778      -24.7416070461       38.8446877848  TIP3      3164            0.0000000000
     31743      3356  TIP3      H1            -12.0176593617      -25.4505586406       39.4853399471  TIP3      3164            0.0000000000
     31744      3356  TIP3      H2            -11.3950107301      -24.8086384821       38.2697747998  TIP3      3164            0.0000000000
     31745      3357  TIP3      OH2            -9.7960778480      -25.0510713467       56.2568188739  TIP3      3165            0.0000000000
     31746      3357  TIP3      H1            -10.1338361300      -24.7418439773       55.3926645248  TIP3      3165            0.0000000000
     31747      3357  TIP3      H2             -9.7371898294      -26.0285103043       56.1586128763  TIP3      3165            0.0000000000
     31748      3358  TIP3      OH2            -6.7274644100      -23.5855418162       38.6688293232  TIP3      3166            0.0000000000
     31749      3358  TIP3      H1             -7.0191163970      -23.4960202344       39.5902884050  TIP3      3166            0.0000000000
     31750      3358  TIP3      H2             -6.9222433621      -24.5419443972       38.5240723456  TIP3      3166            0.0000000000
     31751      3359  TIP3      OH2            -4.1015129073      -25.1953225393       53.6487978904  TIP3      3167            0.0000000000
     31752      3359  TIP3      H1             -3.3135650655      -24.6126883867       53.5864700621  TIP3      3167            0.0000000000
     31753      3359  TIP3      H2             -4.8014222281      -24.5278842347       53.6846384410  TIP3      3167            0.0000000000
     31754      3360  TIP3      OH2           -15.6040442160      -27.8327053560       56.2432462194  TIP3      3168            0.0000000000
     31755      3360  TIP3      H1            -15.1739231170      -28.6879077194       56.1611233196  TIP3      3168            0.0000000000
     31756      3360  TIP3      H2            -15.8259178546      -27.8124716339       57.1892299327  TIP3      3168            0.0000000000
     31757      3361  TIP3      OH2           -10.9577930813      -26.6835595410       41.3213565032  TIP3      3169            0.0000000000
     31758      3361  TIP3      H1            -11.4679515908      -27.2182879091       41.9474236855  TIP3      3169            0.0000000000
     31759      3361  TIP3      H2            -10.6636055940      -27.3554042900       40.6640295850  TIP3      3169            0.0000000000
     31760      3362  TIP3      OH2           -11.6956444508      -28.8812392705       53.6020049870  TIP3      3170            0.0000000000
     31761      3362  TIP3      H1            -12.2889870187      -28.1565779641       53.8615684713  TIP3      3170            0.0000000000
     31762      3362  TIP3      H2            -11.2968615123      -28.5073488862       52.7972526767  TIP3      3170            0.0000000000
     31763      3363  TIP3      OH2            -9.8908304901      -28.4577685564       39.5218495230  TIP3      3171            0.0000000000
     31764      3363  TIP3      H1            -10.0586379648      -28.5511662098       38.5629022885  TIP3      3171            0.0000000000
     31765      3363  TIP3      H2             -8.9136493036      -28.4064113753       39.5770640519  TIP3      3171            0.0000000000
     31766      3364  TIP3      OH2            -6.6218304879      -26.3041307471       56.9422865167  TIP3      3172            0.0000000000
     31767      3364  TIP3      H1             -5.6652625335      -26.3150536005       56.8191006794  TIP3      3172            0.0000000000
     31768      3364  TIP3      H2             -6.7911571273      -27.0742331631       57.5083053949  TIP3      3172            0.0000000000
     31769      3365  TIP3      OH2            -0.5666501834      -26.1283914168       38.9330613455  TIP3      3173            0.0000000000
     31770      3365  TIP3      H1             -0.7445206185      -26.5184815175       38.0613171893  TIP3      3173            0.0000000000
     31771      3365  TIP3      H2             -0.4675707919      -25.1704455059       38.7399639497  TIP3      3173            0.0000000000
     31772      3366  TIP3      OH2           -11.2995691532      -31.5017541888       54.6640292584  TIP3      3174            0.0000000000
     31773      3366  TIP3      H1            -11.1679026306      -32.2110139354       54.0137195138  TIP3      3174            0.0000000000
     31774      3366  TIP3      H2            -11.3348445228      -30.6893777380       54.1106330636  TIP3      3174            0.0000000000
     31775      3367  TIP3      OH2           -10.8887047249      -33.0926893366       52.1869990788  TIP3      3175            0.0000000000
     31776      3367  TIP3      H1            -10.3732094718      -32.6189187665       51.4935239946  TIP3      3175            0.0000000000
     31777      3367  TIP3      H2            -11.7823253604      -33.1973967508       51.7809580529  TIP3      3175            0.0000000000
     31778      3368  TIP3      OH2            -9.3488957320      -27.6227298374       52.4595931128  TIP3      3176            0.0000000000
     31779      3368  TIP3      H1             -8.5929213347      -27.7891704462       51.8876414001  TIP3      3176            0.0000000000
     31780      3368  TIP3      H2             -9.7106755747      -26.7873369084       52.1223408419  TIP3      3176            0.0000000000
     31781      3369  TIP3      OH2            -4.9531344971      -29.8736293997       57.4162498536  TIP3      3177            0.0000000000
     31782      3369  TIP3      H1             -4.7158011605      -30.8096822968       57.3295686121  TIP3      3177            0.0000000000
     31783      3369  TIP3      H2             -4.0874472150      -29.4308197155       57.4534750704  TIP3      3177            0.0000000000
     31784      3370  TIP3      OH2            -3.6049667632      -27.0778809486       55.5871853859  TIP3      3178            0.0000000000
     31785      3370  TIP3      H1             -3.8603081834      -26.3571530407       54.9703727353  TIP3      3178            0.0000000000
     31786      3370  TIP3      H2             -2.6488974788      -27.1086901635       55.3992599643  TIP3      3178            0.0000000000
     31787      3371  TIP3      OH2           -12.8266757404      -30.2440395532       56.5844474965  TIP3      3179            0.0000000000
     31788      3371  TIP3      H1            -13.5963430810      -30.8210075673       56.4115200534  TIP3      3179            0.0000000000
     31789      3371  TIP3      H2            -12.1703132089      -30.6033660512       55.9616994679  TIP3      3179            0.0000000000
     31790      3372  TIP3      OH2           -10.2441887501      -35.4812489963       52.8857401540  TIP3      3180            0.0000000000
     31791      3372  TIP3      H1            -10.2975404481      -34.5411620022       52.5841065054  TIP3      3180            0.0000000000
     31792      3372  TIP3      H2            -10.8235405163      -35.8959617124       52.2309099345  TIP3      3180            0.0000000000
     31793      3373  TIP3      OH2            -8.8498191968      -31.3150400160       56.2206948954  TIP3      3181            0.0000000000
     31794      3373  TIP3      H1             -9.1261919406      -31.6242655041       57.1030855351  TIP3      3181            0.0000000000
     31795      3373  TIP3      H2             -9.6222906733      -31.5646039681       55.6895855348  TIP3      3181            0.0000000000
     31796      3374  TIP3      OH2            -6.1030055398      -32.1898197382       55.3340223140  TIP3      3182            0.0000000000
     31797      3374  TIP3      H1             -7.0704622842      -32.1677489964       55.4423967638  TIP3      3182            0.0000000000
     31798      3374  TIP3      H2             -5.8237123298      -32.8304942672       56.0176829412  TIP3      3182            0.0000000000
     31799      3375  TIP3      OH2            -4.5089782852      -33.4750583060       57.2513360158  TIP3      3183            0.0000000000
     31800      3375  TIP3      H1             -4.6013328648      -34.4602009760       57.2255743908  TIP3      3183            0.0000000000
     31801      3375  TIP3      H2             -4.8013213670      -33.2815857522       58.1587196039  TIP3      3183            0.0000000000
     31802      3376  TIP3      OH2           -14.7641961717      -32.3162333677       56.3369707046  TIP3      3184            0.0000000000
     31803      3376  TIP3      H1            -14.4966141499      -33.0505458303       55.7526234505  TIP3      3184            0.0000000000
     31804      3376  TIP3      H2            -14.8303101289      -32.7725987525       57.1996828764  TIP3      3184            0.0000000000
     31805      3377  TIP3      OH2            -9.8972929490       36.7216053536       55.3424687232  TIP3      3185            0.0000000000
     31806      3377  TIP3      H1             -9.2138397160       36.0500237430       55.3865532123  TIP3      3185            0.0000000000
     31807      3377  TIP3      H2            -10.0007169305       36.9296242640       54.3899869160  TIP3      3185            0.0000000000
     31808      3378  TIP3      OH2            -9.4869676701      -34.5957568008       57.3810898558  TIP3      3186            0.0000000000
     31809      3378  TIP3      H1             -9.6719087425      -35.1705370516       56.6066106708  TIP3      3186            0.0000000000
     31810      3378  TIP3      H2            -10.1278082821      -33.8741935593       57.3145005846  TIP3      3186            0.0000000000
     31811      3379  TIP3      OH2           -10.0382119032      -17.7101537340       40.6411250053  TIP3      3187            0.0000000000
     31812      3379  TIP3      H1             -9.0716705651      -17.6731850802       40.6505825948  TIP3      3187            0.0000000000
     31813      3379  TIP3      H2            -10.2130984218      -17.1910774683       39.8462898881  TIP3      3187            0.0000000000
     31814      3380  TIP3      OH2           -16.5012339372      -23.2072568485       40.0870221837  TIP3      3188            0.0000000000
     31815      3380  TIP3      H1            -15.5377819253      -23.0552647571       40.2292097064  TIP3      3188            0.0000000000
     31816      3380  TIP3      H2            -16.4292957701      -23.8105689590       39.3109176835  TIP3      3188            0.0000000000
     31817      3381  TIP3      OH2           -17.7200450617      -17.8008123512       45.0334785349  TIP3      3189            0.0000000000
     31818      3381  TIP3      H1            -18.4385873497      -18.2856945911       44.5713707673  TIP3      3189            0.0000000000
     31819      3381  TIP3      H2            -17.4381813451      -18.4561928941       45.6976538368  TIP3      3189            0.0000000000
     31820      3382  TIP3      OH2           -16.8982407087      -19.6610092014       46.9071340924  TIP3      3190            0.0000000000
     31821      3382  TIP3      H1            -17.2481543625      -20.5407890089       47.1048531273  TIP3      3190            0.0000000000
     31822      3382  TIP3      H2            -16.6703522068      -19.3321756393       47.7925099865  TIP3      3190            0.0000000000
     31823      3383  TIP3      OH2             0.6449332203      -18.8517606426       49.8381450078  TIP3      3191            0.0000000000
     31824      3383  TIP3      H1              0.6894178095      -18.7184151198       50.8048399508  TIP3      3191            0.0000000000
     31825      3383  TIP3      H2              1.3575366534      -18.2815693990       49.5446817358  TIP3      3191            0.0000000000
     31826      3384  TIP3      OH2             0.1929741976      -19.2688127104       52.7875655780  TIP3      3192            0.0000000000
     31827      3384  TIP3      H1             -0.2420321472      -20.0587083308       52.4087411600  TIP3      3192            0.0000000000
     31828      3384  TIP3      H2              0.7121236080      -19.6968767090       53.4981951767  TIP3      3192            0.0000000000
     31829      3385  TIP3      OH2            -1.3493981939      -23.5578731428       57.4626137633  TIP3      3193            0.0000000000
     31830      3385  TIP3      H1             -2.2515369382      -23.5782952707       57.8277156639  TIP3      3193            0.0000000000
     31831      3385  TIP3      H2             -0.9687364367      -22.7517690516       57.8658441871  TIP3      3193            0.0000000000
     31832      3386  TIP3      OH2            -0.0244871415      -25.2184833848       42.8823330350  TIP3      3194            0.0000000000
     31833      3386  TIP3      H1              0.8433861079      -24.8275458642       43.0690115103  TIP3      3194            0.0000000000
     31834      3386  TIP3      H2             -0.0406775261      -25.9377247844       43.5514981884  TIP3      3194            0.0000000000
     31835      3387  TIP3      OH2             0.3365522968      -27.1422773439       44.7739959961  TIP3      3195            0.0000000000
     31836      3387  TIP3      H1             -0.4152481920      -27.6419394651       45.1647926021  TIP3      3195            0.0000000000
     31837      3387  TIP3      H2              0.9339622216      -27.0123530651       45.5365563887  TIP3      3195            0.0000000000
     31838      3388  TIP3      OH2             0.0902017862      -24.4475096902       49.7486770823  TIP3      3196            0.0000000000
     31839      3388  TIP3      H1              0.9069563707      -24.8256912716       49.3766723647  TIP3      3196            0.0000000000
     31840      3388  TIP3      H2              0.2379889015      -23.4938813915       49.5848146969  TIP3      3196            0.0000000000
     31841      3389  TIP3      OH2            -1.3421235860      -21.5397887223       52.0220480327  TIP3      3197            0.0000000000
     31842      3389  TIP3      H1             -2.0227165547      -21.1957380249       52.6226959614  TIP3      3197            0.0000000000
     31843      3389  TIP3      H2             -1.8996906234      -21.9439817768       51.3213845599  TIP3      3197            0.0000000000
     31844      3390  TIP3      OH2             0.6362708478      -27.3199263521       41.1624698969  TIP3      3198            0.0000000000
     31845      3390  TIP3      H1              0.0697781196      -26.9797762058       40.4382681510  TIP3      3198            0.0000000000
     31846      3390  TIP3      H2              0.5360024487      -26.6063359253       41.8198961159  TIP3      3198            0.0000000000
     31847      3391  TIP3      OH2            -0.9848182846      -30.0842492235       39.6716681273  TIP3      3199            0.0000000000
     31848      3391  TIP3      H1             -0.9103257496      -29.4234208514       38.9757457863  TIP3      3199            0.0000000000
     31849      3391  TIP3      H2             -1.1739902126      -30.9101769927       39.1808897842  TIP3      3199            0.0000000000
     31850      3392  TIP3      OH2            -1.8427642151      -28.6707156074       45.3421076760  TIP3      3200            0.0000000000
     31851      3392  TIP3      H1             -1.9913800470      -29.6252628527       45.3005269503  TIP3      3200            0.0000000000
     31852      3392  TIP3      H2             -2.1740631556      -28.4556057371       46.2341547502  TIP3      3200            0.0000000000
     31853      3393  TIP3      OH2           -16.8374551552      -26.5834881658       49.4017522333  TIP3      3201            0.0000000000
     31854      3393  TIP3      H1            -16.6609565304      -26.6646695160       48.4388020749  TIP3      3201            0.0000000000
     31855      3393  TIP3      H2            -15.9439925295      -26.7622104559       49.7541817454  TIP3      3201            0.0000000000
     31856      3394  TIP3      OH2            -0.9789497018      -26.7029128361       55.0318553757  TIP3      3202            0.0000000000
     31857      3394  TIP3      H1             -0.3709135039      -27.4606365675       55.1609086064  TIP3      3202            0.0000000000
     31858      3394  TIP3      H2             -0.3762293983      -25.9289387170       55.0336730899  TIP3      3202            0.0000000000
     31859      3395  TIP3      OH2             0.5168282254      -28.8212214705       55.6810987975  TIP3      3203            0.0000000000
     31860      3395  TIP3      H1             -0.3650665169      -29.2214638747       55.5265752113  TIP3      3203            0.0000000000
     31861      3395  TIP3      H2              1.0882761280      -29.6047680573       55.6058613567  TIP3      3203            0.0000000000
     31862      3396  TIP3      OH2            -1.7471164905      -32.6116500548       38.8299958279  TIP3      3204            0.0000000000
     31863      3396  TIP3      H1             -1.1528601653      -33.0547681120       39.4669674259  TIP3      3204            0.0000000000
     31864      3396  TIP3      H2             -2.6046200716      -33.0589376709       38.9621604359  TIP3      3204            0.0000000000
     31865      3397  TIP3      OH2            -2.1994633786      -31.0749238579       43.7553504681  TIP3      3205            0.0000000000
     31866      3397  TIP3      H1             -1.8829322070      -31.9914998859       43.9127066095  TIP3      3205            0.0000000000
     31867      3397  TIP3      H2             -1.3755723051      -30.6727283231       43.4503824334  TIP3      3205            0.0000000000
     31868      3398  TIP3      OH2            -1.5393057682      -30.5192503697       49.2365736341  TIP3      3206            0.0000000000
     31869      3398  TIP3      H1             -0.5749969643      -30.3084728570       49.2283004798  TIP3      3206            0.0000000000
     31870      3398  TIP3      H2             -1.7237176685      -30.4074402737       50.1820838584  TIP3      3206            0.0000000000
     31871      3399  TIP3      OH2            -1.4823195094      -29.8010496534       52.0142426559  TIP3      3207            0.0000000000
     31872      3399  TIP3      H1             -2.3611400518      -29.5235397118       52.3436436689  TIP3      3207            0.0000000000
     31873      3399  TIP3      H2             -1.0401023570      -28.9476706638       51.8008672964  TIP3      3207            0.0000000000
     31874      3400  TIP3      OH2           -17.2301015370      -31.2641846058       55.5616991234  TIP3      3208            0.0000000000
     31875      3400  TIP3      H1            -16.2924093079      -31.4861884122       55.7313726373  TIP3      3208            0.0000000000
     31876      3400  TIP3      H2            -17.6706110953      -32.1043023562       55.8111026946  TIP3      3208            0.0000000000
     31877      3401  TIP3      OH2             0.8621403198      -35.7439647102       57.3854954756  TIP3      3209            0.0000000000
     31878      3401  TIP3      H1              1.0977606986      -36.4149877273       56.7300193081  TIP3      3209            0.0000000000
     31879      3401  TIP3      H2              0.8675003756      -34.9249345177       56.8640563163  TIP3      3209            0.0000000000
     31880      3402  TIP3      OH2            -1.5109243177      -33.7689510463       43.8510752418  TIP3      3210            0.0000000000
     31881      3402  TIP3      H1             -1.3083635336      -34.2429141181       44.6877100783  TIP3      3210            0.0000000000
     31882      3402  TIP3      H2             -2.0885037577      -34.4184438756       43.3812556226  TIP3      3210            0.0000000000
     31883      3403  TIP3      OH2           -16.0525069362      -32.9412075379       48.3622498215  TIP3      3211            0.0000000000
     31884      3403  TIP3      H1            -15.6181820753      -33.7849322358       48.6384644826  TIP3      3211            0.0000000000
     31885      3403  TIP3      H2            -15.4778542640      -32.2928572156       48.7863302310  TIP3      3211            0.0000000000
     31886      3404  TIP3      OH2           -17.7379127258      -29.9927368052       49.4399864464  TIP3      3212            0.0000000000
     31887      3404  TIP3      H1            -17.1737077863      -30.2449639136       48.6802663319  TIP3      3212            0.0000000000
     31888      3404  TIP3      H2            -17.2697511385      -29.1887820104       49.7085779513  TIP3      3212            0.0000000000
     31889      3405  TIP3      OH2             0.3281086850      -33.7026760641       55.7009288580  TIP3      3213            0.0000000000
     31890      3405  TIP3      H1             -0.5988430713      -33.3957407473       55.6514785119  TIP3      3213            0.0000000000
     31891      3405  TIP3      H2              0.3657256504      -34.2245479141       54.8849459461  TIP3      3213            0.0000000000
     31892      3406  TIP3      OH2             0.3401769583      -33.7567329204       40.4099967343  TIP3      3214            0.0000000000
     31893      3406  TIP3      H1              0.7138458778      -34.4863503714       39.8624803153  TIP3      3214            0.0000000000
     31894      3406  TIP3      H2              1.0508076535      -33.1098265501       40.4347897257  TIP3      3214            0.0000000000
     31895      3407  TIP3      OH2           -17.3633381752      -33.7791191145       43.5270244825  TIP3      3215            0.0000000000
     31896      3407  TIP3      H1            -18.3058933707      -33.5726317183       43.3841434356  TIP3      3215            0.0000000000
     31897      3407  TIP3      H2            -16.9545353936      -33.2597673636       42.8146882988  TIP3      3215            0.0000000000
     31898      3408  TIP3      OH2            -2.6340806581      -18.7753758675       45.4644450241  TIP3      3216            0.0000000000
     31899      3408  TIP3      H1             -1.9573531922      -19.1013504947       44.8456686099  TIP3      3216            0.0000000000
     31900      3408  TIP3      H2             -2.1203164167      -18.2907789907       46.1248928538  TIP3      3216            0.0000000000
     31901      3409  TIP3      OH2           -17.4177855750      -34.9973891891       51.8275388334  TIP3      3217            0.0000000000
     31902      3409  TIP3      H1            -18.0943144802      -35.2411745270       52.4761762048  TIP3      3217            0.0000000000
     31903      3409  TIP3      H2            -17.8992056459      -34.4029798091       51.2260545135  TIP3      3217            0.0000000000
     31904      3410  TIP3      OH2           -15.1912725287      -21.8894712610       55.9514229181  TIP3      3218            0.0000000000
     31905      3410  TIP3      H1            -16.0371986876      -21.6597621474       55.5350219368  TIP3      3218            0.0000000000
     31906      3410  TIP3      H2            -15.4226961562      -21.9568090229       56.8908023600  TIP3      3218            0.0000000000
     31907      3411  TIP3      OH2           -12.2842610025      -20.8714842266       52.2525745692  TIP3      3219            0.0000000000
     31908      3411  TIP3      H1            -12.6128025134      -20.0047669010       51.9766093186  TIP3      3219            0.0000000000
     31909      3411  TIP3      H2            -11.3583470478      -20.7901209723       51.9442904840  TIP3      3219            0.0000000000
     31910      3412  TIP3      OH2            -7.9730916822      -19.4446569845       55.1510415520  TIP3      3220            0.0000000000
     31911      3412  TIP3      H1             -7.8363180271      -19.8179218787       56.0518304769  TIP3      3220            0.0000000000
     31912      3412  TIP3      H2             -7.0690091145      -19.1610421433       54.8956532299  TIP3      3220            0.0000000000
     31913      3413  TIP3      OH2            -5.6862791296      -18.1860581577       54.4483981946  TIP3      3221            0.0000000000
     31914      3413  TIP3      H1             -4.9574072465      -18.7747825895       54.1968088041  TIP3      3221            0.0000000000
     31915      3413  TIP3      H2             -5.3071266814      -17.7566601891       55.2354406040  TIP3      3221            0.0000000000
     31916      3414  TIP3      OH2            -0.6559360688      -35.5501215651       53.4778440275  TIP3      3222            0.0000000000
     31917      3414  TIP3      H1             -1.4984027829      -35.2404504472       53.1054723301  TIP3      3222            0.0000000000
     31918      3414  TIP3      H2             -0.5027221031      -36.4023835220       53.0166298579  TIP3      3222            0.0000000000
     31919      3415  TIP3      OH2           -14.8605478241      -17.6396177012       52.2420430303  TIP3      3223            0.0000000000
     31920      3415  TIP3      H1            -15.5915700790      -17.1371210836       51.8474259261  TIP3      3223            0.0000000000
     31921      3415  TIP3      H2            -15.1703731625      -17.8279999441       53.1395970262  TIP3      3223            0.0000000000
     31922      3416  TIP3      OH2           -12.3925096558      -18.0612901188       51.3174039837  TIP3      3224            0.0000000000
     31923      3416  TIP3      H1            -13.2845057435      -17.9082488830       51.7097768056  TIP3      3224            0.0000000000
     31924      3416  TIP3      H2            -12.4458225388      -17.4708002189       50.5428944179  TIP3      3224            0.0000000000
     31925      3417  TIP3      OH2            -7.6841857450      -18.1465812879       50.4826870065  TIP3      3225            0.0000000000
     31926      3417  TIP3      H1             -8.1480811221      -17.5901159228       49.8394178199  TIP3      3225            0.0000000000
     31927      3417  TIP3      H2             -7.5541029567      -17.5171141466       51.2225490918  TIP3      3225            0.0000000000
     31928      3418  TIP3      OH2            -5.3989279699      -19.3418775585       51.5162265209  TIP3      3226            0.0000000000
     31929      3418  TIP3      H1             -6.2513531806      -19.0612943335       51.1454831231  TIP3      3226            0.0000000000
     31930      3418  TIP3      H2             -4.9134801771      -18.5030402414       51.4313148728  TIP3      3226            0.0000000000
     31931      3419  TIP3      OH2            -2.8162682916      -17.7722389055       51.7371348988  TIP3      3227            0.0000000000
     31932      3419  TIP3      H1             -2.8681742612      -16.8113582187       51.5086791247  TIP3      3227            0.0000000000
     31933      3419  TIP3      H2             -2.5979999497      -18.1473244676       50.8618082226  TIP3      3227            0.0000000000
     31934      3420  TIP3      OH2           -15.3990911085      -18.9884825622       49.1867681012  TIP3      3228            0.0000000000
     31935      3420  TIP3      H1            -15.4821493982      -19.4479368079       50.0493384082  TIP3      3228            0.0000000000
     31936      3420  TIP3      H2            -14.5851044764      -19.3688352631       48.7986162098  TIP3      3228            0.0000000000
     31937      3421  TIP3      OH2           -13.3245825798      -20.2770101528       47.8402977051  TIP3      3229            0.0000000000
     31938      3421  TIP3      H1            -13.4889580544      -21.2105381365       48.0732808514  TIP3      3229            0.0000000000
     31939      3421  TIP3      H2            -12.4689279894      -20.1219112362       48.2925128875  TIP3      3229            0.0000000000
     31940      3422  TIP3      OH2           -10.7171020344      -19.7889857404       48.7205903946  TIP3      3230            0.0000000000
     31941      3422  TIP3      H1            -10.5668281017      -20.7147660532       48.4564409895  TIP3      3230            0.0000000000
     31942      3422  TIP3      H2            -10.6760050316      -19.8487652483       49.6855462668  TIP3      3230            0.0000000000
     31943      3423  TIP3      OH2            -7.3863493121      -34.0771943781       47.8387309975  TIP3      3231            0.0000000000
     31944      3423  TIP3      H1             -7.9715841092      -34.7976848959       48.1204705997  TIP3      3231            0.0000000000
     31945      3423  TIP3      H2             -6.7046266588      -34.5713700546       47.3443221108  TIP3      3231            0.0000000000
     31946      3424  TIP3      OH2            -2.1262462101      -36.0668605874       47.9517873103  TIP3      3232            0.0000000000
     31947      3424  TIP3      H1             -1.5058779910      -35.5144472985       47.4289428996  TIP3      3232            0.0000000000
     31948      3424  TIP3      H2             -2.9917548671      -35.7254976357       47.7087009659  TIP3      3232            0.0000000000
     31949      3425  TIP3      OH2            -0.4353153251      -34.8138723767       46.1995726297  TIP3      3233            0.0000000000
     31950      3425  TIP3      H1              0.1947632376      -35.4093403273       45.7815029228  TIP3      3233            0.0000000000
     31951      3425  TIP3      H2              0.0682281596      -33.9784438980       46.2819920080  TIP3      3233            0.0000000000
     31952      3426  TIP3      OH2           -14.9293850811      -35.4780344810       45.7190796042  TIP3      3234            0.0000000000
     31953      3426  TIP3      H1            -15.7000427913      -35.7211147656       45.1865410406  TIP3      3234            0.0000000000
     31954      3426  TIP3      H2            -14.4513642954      -36.3265125899       45.7586483769  TIP3      3234            0.0000000000
     31955      3427  TIP3      OH2           -16.1289201916      -35.7639001150       41.4044916641  TIP3      3235            0.0000000000
     31956      3427  TIP3      H1            -15.6472761859      -35.1036353729       40.9121833972  TIP3      3235            0.0000000000
     31957      3427  TIP3      H2            -16.7422735085      -35.2368045914       41.9343244962  TIP3      3235            0.0000000000
     31958      3428  TIP3      OH2           -10.3633291520      -35.6588531934       45.4788259060  TIP3      3236            0.0000000000
     31959      3428  TIP3      H1             -9.5106508366      -35.1967734170       45.4409145331  TIP3      3236            0.0000000000
     31960      3428  TIP3      H2            -10.4631471561      -35.8149544789       46.4239342801  TIP3      3236            0.0000000000
     31961      3429  TIP3      OH2            -4.9756451379      -35.2012545428       47.2697026915  TIP3      3237            0.0000000000
     31962      3429  TIP3      H1             -4.8339661446      -35.2485511624       46.3198769337  TIP3      3237            0.0000000000
     31963      3429  TIP3      H2             -5.0652067749      -36.1773648168       47.4072028657  TIP3      3237            0.0000000000
     31964      3430  TIP3      OH2            -3.4391872766      -35.5008002401       42.8346025375  TIP3      3238            0.0000000000
     31965      3430  TIP3      H1             -4.1914676678      -34.9353166454       42.6073307557  TIP3      3238            0.0000000000
     31966      3430  TIP3      H2             -3.8445079467      -36.3681693419       42.9611854371  TIP3      3238            0.0000000000
     31967      3431  TIP3      OH2           -16.2330716488      -19.8104873022       42.4821791372  TIP3      3239            0.0000000000
     31968      3431  TIP3      H1            -16.8593658914      -19.8360936875       41.7379039849  TIP3      3239            0.0000000000
     31969      3431  TIP3      H2            -16.1992286763      -18.8503078542       42.6056874117  TIP3      3239            0.0000000000
     31970      3432  TIP3      OH2           -14.2981074988      -33.8810498904       39.9424292004  TIP3      3240            0.0000000000
     31971      3432  TIP3      H1            -13.6770510433      -34.4628732305       39.4540948493  TIP3      3240            0.0000000000
     31972      3432  TIP3      H2            -13.6584861160      -33.5125902470       40.6048014799  TIP3      3240            0.0000000000
     31973      3433  TIP3      OH2            -9.3552336407      -33.5823374086       42.3922979277  TIP3      3241            0.0000000000
     31974      3433  TIP3      H1             -8.9860603259      -34.1450939517       43.0969140674  TIP3      3241            0.0000000000
     31975      3433  TIP3      H2             -9.1952445628      -32.7070962715       42.8154995348  TIP3      3241            0.0000000000
     31976      3434  TIP3      OH2            -7.3389787074      -18.5042138935       40.7876999063  TIP3      3242            0.0000000000
     31977      3434  TIP3      H1             -6.4225034075      -18.2773144213       40.5636705425  TIP3      3242            0.0000000000
     31978      3434  TIP3      H2             -7.5624742494      -19.0235930554       39.9864972999  TIP3      3242            0.0000000000
     31979      3435  TIP3      OH2            -0.6076484767      -18.9908552601       43.5060160856  TIP3      3243            0.0000000000
     31980      3435  TIP3      H1             -0.8350063857      -19.7834598224       42.9531021245  TIP3      3243            0.0000000000
     31981      3435  TIP3      H2             -0.7286321770      -18.2745858923       42.8495407667  TIP3      3243            0.0000000000
     31982      3436  TIP3      OH2           -15.1123766127      -35.0067636555       55.0447201742  TIP3      3244            0.0000000000
     31983      3436  TIP3      H1            -15.4481549194      -35.7392796246       55.5655955860  TIP3      3244            0.0000000000
     31984      3436  TIP3      H2            -14.2126672079      -34.9817142472       55.4551780502  TIP3      3244            0.0000000000
     31985      3437  TIP3      OH2           -13.2724729171      -35.3745660575       56.6948794501  TIP3      3245            0.0000000000
     31986      3437  TIP3      H1            -12.3315646325      -35.5731457709       56.5647251600  TIP3      3245            0.0000000000
     31987      3437  TIP3      H2            -13.4397502668      -36.2323400735       57.1345451836  TIP3      3245            0.0000000000
     31988      3438  TIP3      OH2           -14.3794233835      -18.3585238627       39.4586532369  TIP3      3246            0.0000000000
     31989      3438  TIP3      H1            -14.7397065482      -18.5297314310       40.3313598481  TIP3      3246            0.0000000000
     31990      3438  TIP3      H2            -13.8386911263      -19.2099929968       39.4408881078  TIP3      3246            0.0000000000
     31991      3439  TIP3      OH2            -4.7003170824       37.0674975360       56.8628451214  TIP3      3247            0.0000000000
     31992      3439  TIP3      H1             -4.6390826201       36.5097868765       57.6667722536  TIP3      3247            0.0000000000
     31993      3439  TIP3      H2             -3.8062413534       36.8542496175       56.5521041150  TIP3      3247            0.0000000000
     31994      3440  TIP3      OH2            -1.4540694024      -20.2727336364       55.6160499800  TIP3      3248            0.0000000000
     31995      3440  TIP3      H1             -2.2167398822      -20.3908983958       55.0144191311  TIP3      3248            0.0000000000
     31996      3440  TIP3      H2             -1.4859439766      -19.3136519678       55.7768626378  TIP3      3248            0.0000000000
     31997      3441  TIP3      OH2            13.0475811144      -26.3809357654       45.5486831097  TIP3      3249            0.0000000000
     31998      3441  TIP3      H1             13.0296257735      -25.3994301757       45.5325727484  TIP3      3249            0.0000000000
     31999      3441  TIP3      H2             12.3148988620      -26.6115567648       44.9563315393  TIP3      3249            0.0000000000
     32000      3442  TIP3      OH2            11.9017274486      -27.1232014599       49.0610429513  TIP3      3250            0.0000000000
     32001      3442  TIP3      H1             11.8887358119      -27.7725106324       49.7785860813  TIP3      3250            0.0000000000
     32002      3442  TIP3      H2             11.5528925670      -27.6325731668       48.3091506109  TIP3      3250            0.0000000000
     32003      3443  TIP3      OH2             4.2537108262      -27.4455379446       50.6128106522  TIP3      3251            0.0000000000
     32004      3443  TIP3      H1              4.3376752056      -28.1321259025       51.3075596157  TIP3      3251            0.0000000000
     32005      3443  TIP3      H2              5.0031888838      -26.8751389827       50.8365292180  TIP3      3251            0.0000000000
     32006      3444  TIP3      OH2            15.5860036902      -24.1736626894       47.3453063915  TIP3      3252            0.0000000000
     32007      3444  TIP3      H1             15.1759193594      -24.8917126034       47.8378165491  TIP3      3252            0.0000000000
     32008      3444  TIP3      H2             15.6130433483      -23.4664320436       48.0166595316  TIP3      3252            0.0000000000
     32009      3445  TIP3      OH2             5.1802796558      -22.9970847347       49.1127396557  TIP3      3253            0.0000000000
     32010      3445  TIP3      H1              4.8694431809      -23.8672336366       48.7966251187  TIP3      3253            0.0000000000
     32011      3445  TIP3      H2              6.1353339642      -23.1817241439       49.1593967739  TIP3      3253            0.0000000000
     32012      3446  TIP3      OH2             1.8179020619      -29.4440870452       44.6066520742  TIP3      3254            0.0000000000
     32013      3446  TIP3      H1              1.3797244896      -28.5772214248       44.5416148955  TIP3      3254            0.0000000000
     32014      3446  TIP3      H2              1.2571773167      -29.9837401843       44.0345328333  TIP3      3254            0.0000000000
     32015      3447  TIP3      OH2             2.5329599114      -27.1998193215       46.7521888987  TIP3      3255            0.0000000000
     32016      3447  TIP3      H1              2.8013596998      -28.0278737632       47.1988885582  TIP3      3255            0.0000000000
     32017      3447  TIP3      H2              3.2255059751      -27.1062918635       46.0818234407  TIP3      3255            0.0000000000
     32018      3448  TIP3      OH2            12.7079881293      -19.0137484585       47.5841438675  TIP3      3256            0.0000000000
     32019      3448  TIP3      H1             13.3573984932      -19.7026973352       47.2933484998  TIP3      3256            0.0000000000
     32020      3448  TIP3      H2             12.4910145605      -19.3531132619       48.4521858637  TIP3      3256            0.0000000000
     32021      3449  TIP3      OH2            10.2725791161      -24.7186512371       49.5377272258  TIP3      3257            0.0000000000
     32022      3449  TIP3      H1             10.6103753542      -25.3468619247       48.8775000299  TIP3      3257            0.0000000000
     32023      3449  TIP3      H2             11.0862027154      -24.5647338298       50.0495116319  TIP3      3257            0.0000000000
     32024      3450  TIP3      OH2            18.8316596112      -33.0503150482       50.2455393571  TIP3      3258            0.0000000000
     32025      3450  TIP3      H1             19.0770004372      -32.5050644968       51.0338957460  TIP3      3258            0.0000000000
     32026      3450  TIP3      H2             19.4564364822      -32.6387731180       49.6273016873  TIP3      3258            0.0000000000
     32027      3451  TIP3      OH2            13.4456344173      -30.2553273022       49.8576511323  TIP3      3259            0.0000000000
     32028      3451  TIP3      H1             13.6045020015      -31.2209889387       49.8565664573  TIP3      3259            0.0000000000
     32029      3451  TIP3      H2             13.3399427515      -30.1089271511       48.8965926593  TIP3      3259            0.0000000000
     32030      3452  TIP3      OH2             6.5688052095      -32.1517673094       47.0625676794  TIP3      3260            0.0000000000
     32031      3452  TIP3      H1              6.6681953939      -31.3203844466       46.5601720899  TIP3      3260            0.0000000000
     32032      3452  TIP3      H2              6.1543554043      -32.7228825587       46.3854279441  TIP3      3260            0.0000000000
     32033      3453  TIP3      OH2            14.3007675141      -32.1084833349       45.4355147490  TIP3      3261            0.0000000000
     32034      3453  TIP3      H1             14.9537300202      -32.3841911378       46.1165426397  TIP3      3261            0.0000000000
     32035      3453  TIP3      H2             14.8484239865      -31.5180843983       44.9017674783  TIP3      3261            0.0000000000
     32036      3454  TIP3      OH2             3.1769571176      -29.7501230532       47.7966228549  TIP3      3262            0.0000000000
     32037      3454  TIP3      H1              3.8486729915      -30.2959051046       48.2514197702  TIP3      3262            0.0000000000
     32038      3454  TIP3      H2              3.2856983977      -30.0692608917       46.8866050476  TIP3      3262            0.0000000000
     32039      3455  TIP3      OH2             8.3384382432      -28.1984800047       47.1170573672  TIP3      3263            0.0000000000
     32040      3455  TIP3      H1              9.0116013746      -28.7799492169       47.5101405212  TIP3      3263            0.0000000000
     32041      3455  TIP3      H2              7.8215969633      -28.8565108376       46.6109824631  TIP3      3263            0.0000000000
     32042      3456  TIP3      OH2            19.1732783659      -31.7299290070       52.5606287697  TIP3      3264            0.0000000000
     32043      3456  TIP3      H1             18.7032665871      -30.8832074073       52.4325396426  TIP3      3264            0.0000000000
     32044      3456  TIP3      H2             19.3704666377      -31.7412224755       53.5007790126  TIP3      3264            0.0000000000
     32045      3457  TIP3      OH2             5.4799894762      -33.2109606856       51.0900983744  TIP3      3265            0.0000000000
     32046      3457  TIP3      H1              5.1536876038      -32.6769737221       50.3369584607  TIP3      3265            0.0000000000
     32047      3457  TIP3      H2              4.7737334590      -33.0362859094       51.7617294843  TIP3      3265            0.0000000000
     32048      3458  TIP3      OH2            12.7539043525      -23.7870905409       44.6459911552  TIP3      3266            0.0000000000
     32049      3458  TIP3      H1             12.4917668058      -24.0581153823       43.7569023019  TIP3      3266            0.0000000000
     32050      3458  TIP3      H2             12.4476832191      -22.8521091479       44.6985093529  TIP3      3266            0.0000000000
     32051      3459  TIP3      OH2             7.9785836404      -25.6323826271       51.3205401040  TIP3      3267            0.0000000000
     32052      3459  TIP3      H1              7.2796560378      -24.9874417684       51.5632112696  TIP3      3267            0.0000000000
     32053      3459  TIP3      H2              8.6828591256      -25.0180347661       51.0609695552  TIP3      3267            0.0000000000
     32054      3460  TIP3      OH2            16.1250899380      -32.7533398449       47.4165640564  TIP3      3268            0.0000000000
     32055      3460  TIP3      H1             15.8740984684      -33.4910521652       47.9831793111  TIP3      3268            0.0000000000
     32056      3460  TIP3      H2             16.7912523388      -32.3040978678       47.9664482513  TIP3      3268            0.0000000000
     32057      3461  TIP3      OH2             5.0257246418      -31.3608576587       49.1127916012  TIP3      3269            0.0000000000
     32058      3461  TIP3      H1              5.6787106607      -30.7152225540       49.4538462115  TIP3      3269            0.0000000000
     32059      3461  TIP3      H2              5.5451988303      -31.8079201671       48.3977115359  TIP3      3269            0.0000000000
     32060      3462  TIP3      OH2             6.4381990279      -23.6134101561       52.1593453969  TIP3      3270            0.0000000000
     32061      3462  TIP3      H1              6.3700162484      -22.7035234743       51.8218457372  TIP3      3270            0.0000000000
     32062      3462  TIP3      H2              5.5525906749      -23.6964174312       52.6062439558  TIP3      3270            0.0000000000
     32063      3463  TIP3      OH2             2.5094053872      -24.0081028683       42.9531953014  TIP3      3271            0.0000000000
     32064      3463  TIP3      H1              2.2578540164      -23.6692362190       42.0764903808  TIP3      3271            0.0000000000
     32065      3463  TIP3      H2              2.5874562651      -23.1809609106       43.4688665555  TIP3      3271            0.0000000000
     32066      3464  TIP3      OH2            16.1158533424      -22.3352799185       49.7127985026  TIP3      3272            0.0000000000
     32067      3464  TIP3      H1             15.1476749583      -22.2222664659       49.8304818773  TIP3      3272            0.0000000000
     32068      3464  TIP3      H2             16.3859784755      -21.4198131613       49.5095282753  TIP3      3272            0.0000000000
     32069      3465  TIP3      OH2            16.4742108926      -34.0677255105       51.1380040589  TIP3      3273            0.0000000000
     32070      3465  TIP3      H1             15.7295541581      -33.4650491880       51.0035824655  TIP3      3273            0.0000000000
     32071      3465  TIP3      H2             17.1768013066      -33.6369518899       50.6025681075  TIP3      3273            0.0000000000
     32072      3466  TIP3      OH2             9.3780446705      -35.9255409591       48.3919034435  TIP3      3274            0.0000000000
     32073      3466  TIP3      H1              9.3673008219      -36.8811009507       48.5575429183  TIP3      3274            0.0000000000
     32074      3466  TIP3      H2              8.5923846809      -35.6554814820       48.8937259424  TIP3      3274            0.0000000000
     32075      3467  TIP3      OH2            14.3772386346      -20.5507020613       46.2992160611  TIP3      3275            0.0000000000
     32076      3467  TIP3      H1             14.8037594885      -21.2714166610       45.7915276938  TIP3      3275            0.0000000000
     32077      3467  TIP3      H2             14.8112712515      -19.7626802428       45.9085927942  TIP3      3275            0.0000000000
     32078      3468  TIP3      OH2            15.5909981516      -22.6254805405       44.8203987328  TIP3      3276            0.0000000000
     32079      3468  TIP3      H1             15.2877776490      -23.3220021564       44.2165556250  TIP3      3276            0.0000000000
     32080      3468  TIP3      H2             15.6227967910      -23.1158887037       45.6613692335  TIP3      3276            0.0000000000
     32081      3469  TIP3      OH2            17.2015941434      -24.0285216294       53.3122459400  TIP3      3277            0.0000000000
     32082      3469  TIP3      H1             17.3520773861      -24.6847736218       52.5956817908  TIP3      3277            0.0000000000
     32083      3469  TIP3      H2             17.4166590544      -23.1903353322       52.8663342874  TIP3      3277            0.0000000000
     32084      3470  TIP3      OH2            11.7007532891      -27.1538184399       43.0703447834  TIP3      3278            0.0000000000
     32085      3470  TIP3      H1             11.0102986029      -26.5679413433       42.7155080919  TIP3      3278            0.0000000000
     32086      3470  TIP3      H2             12.4130398330      -27.0419854258       42.4121093386  TIP3      3278            0.0000000000
     32087      3471  TIP3      OH2            11.7840251310      -28.5719686233       40.0848941846  TIP3      3279            0.0000000000
     32088      3471  TIP3      H1             12.4916324586      -28.5855878640       40.7475170268  TIP3      3279            0.0000000000
     32089      3471  TIP3      H2             12.0895040918      -29.2898573389       39.5156550478  TIP3      3279            0.0000000000
     32090      3472  TIP3      OH2            19.0888728835      -27.6980532280       51.3741737624  TIP3      3280            0.0000000000
     32091      3472  TIP3      H1             18.4275516044      -26.9845105395       51.3862790889  TIP3      3280            0.0000000000
     32092      3472  TIP3      H2             19.5775416162      -27.5049828356       50.5530099845  TIP3      3280            0.0000000000
     32093      3473  TIP3      OH2            15.1537127320      -26.9416925371       43.9948250060  TIP3      3281            0.0000000000
     32094      3473  TIP3      H1             14.4122885427      -26.6904286841       44.5953398196  TIP3      3281            0.0000000000
     32095      3473  TIP3      H2             15.6264514639      -27.6099088514       44.5210114187  TIP3      3281            0.0000000000
     32096      3474  TIP3      OH2            15.0754984339      -28.7683684743       53.1259573496  TIP3      3282            0.0000000000
     32097      3474  TIP3      H1             15.0860952351      -27.9459396499       53.6437680794  TIP3      3282            0.0000000000
     32098      3474  TIP3      H2             14.4508730479      -28.4755241048       52.4309713751  TIP3      3282            0.0000000000
     32099      3475  TIP3      OH2             6.7613760190      -26.2680368276       45.9142380430  TIP3      3283            0.0000000000
     32100      3475  TIP3      H1              6.4414665356      -26.6611437632       45.0657305869  TIP3      3283            0.0000000000
     32101      3475  TIP3      H2              7.3756548817      -26.9617431387       46.2484109689  TIP3      3283            0.0000000000
     32102      3476  TIP3      OH2             8.0823433063      -22.8918993960       48.5930203585  TIP3      3284            0.0000000000
     32103      3476  TIP3      H1              8.0781102568      -23.4138282788       47.7825189618  TIP3      3284            0.0000000000
     32104      3476  TIP3      H2              8.8652854111      -23.2440861838       49.0541682345  TIP3      3284            0.0000000000
     32105      3477  TIP3      OH2             7.0893452489      -27.5247913721       49.5769781534  TIP3      3285            0.0000000000
     32106      3477  TIP3      H1              7.6388233235      -27.4260754334       48.7749040845  TIP3      3285            0.0000000000
     32107      3477  TIP3      H2              7.4808780506      -26.8561311973       50.1840933612  TIP3      3285            0.0000000000
     32108      3478  TIP3      OH2            13.5106896964      -21.9515212289       50.2831488025  TIP3      3286            0.0000000000
     32109      3478  TIP3      H1             13.2206036241      -21.3145712485       50.9420954886  TIP3      3286            0.0000000000
     32110      3478  TIP3      H2             13.2547687067      -22.8043036849       50.7056051241  TIP3      3286            0.0000000000
     32111      3479  TIP3      OH2             8.0856566533      -23.0624787336       54.2427770335  TIP3      3287            0.0000000000
     32112      3479  TIP3      H1              7.6046883125      -22.3628852995       54.7547867902  TIP3      3287            0.0000000000
     32113      3479  TIP3      H2              7.3834966259      -23.2986293041       53.5835189910  TIP3      3287            0.0000000000
     32114      3480  TIP3      OH2            14.0292825980      -27.7275626407       41.6613233513  TIP3      3288            0.0000000000
     32115      3480  TIP3      H1             14.5846315383      -27.5537247045       42.4621393534  TIP3      3288            0.0000000000
     32116      3480  TIP3      H2             14.4799755049      -27.2326780933       40.9404709777  TIP3      3288            0.0000000000
     32117      3481  TIP3      OH2             4.9873982672      -26.9333152096       53.4222414238  TIP3      3289            0.0000000000
     32118      3481  TIP3      H1              5.0375336165      -26.2673092160       54.1353108636  TIP3      3289            0.0000000000
     32119      3481  TIP3      H2              4.0432594190      -26.8489207393       53.2150687879  TIP3      3289            0.0000000000
     32120      3482  TIP3      OH2            11.7397597932      -21.0054915186       45.1354409436  TIP3      3290            0.0000000000
     32121      3482  TIP3      H1             12.1713907590      -20.6984035363       45.9402835977  TIP3      3290            0.0000000000
     32122      3482  TIP3      H2             11.1820472986      -20.2566510025       44.8962895272  TIP3      3290            0.0000000000
     32123      3483  TIP3      OH2             6.4998827464      -21.2253462283       55.0295909848  TIP3      3291            0.0000000000
     32124      3483  TIP3      H1              6.2532392169      -21.1943151889       54.0726940818  TIP3      3291            0.0000000000
     32125      3483  TIP3      H2              5.5523020841      -21.0863179391       55.3014167684  TIP3      3291            0.0000000000
     32126      3484  TIP3      OH2            17.7162498403      -35.8506283978       41.3152340773  TIP3      3292            0.0000000000
     32127      3484  TIP3      H1             16.8604933186      -35.8120988972       41.7784478341  TIP3      3292            0.0000000000
     32128      3484  TIP3      H2             17.9579236744      -34.9389083439       41.1053801055  TIP3      3292            0.0000000000
     32129      3485  TIP3      OH2             5.7223474586      -27.2530666794       43.5455206672  TIP3      3293            0.0000000000
     32130      3485  TIP3      H1              5.4443935179      -26.4683623114       43.0257586234  TIP3      3293            0.0000000000
     32131      3485  TIP3      H2              5.0757214479      -27.9175953786       43.2967653498  TIP3      3293            0.0000000000
     32132      3486  TIP3      OH2            18.8651617315      -21.6445534311       39.9149431165  TIP3      3294            0.0000000000
     32133      3486  TIP3      H1             19.0312106923      -20.7015143824       40.0844615483  TIP3      3294            0.0000000000
     32134      3486  TIP3      H2             19.7885986588      -21.9574675469       39.9117252690  TIP3      3294            0.0000000000
     32135      3487  TIP3      OH2             1.8209395008      -24.8141342857       52.4309251787  TIP3      3295            0.0000000000
     32136      3487  TIP3      H1              1.3791007136      -24.8957852368       51.5659780266  TIP3      3295            0.0000000000
     32137      3487  TIP3      H2              1.9031619439      -25.7618760520       52.6449942364  TIP3      3295            0.0000000000
     32138      3488  TIP3      OH2             1.5868897787      -22.0682817399       49.1967130682  TIP3      3296            0.0000000000
     32139      3488  TIP3      H1              2.5411128962      -22.1999228557       49.1837482188  TIP3      3296            0.0000000000
     32140      3488  TIP3      H2              1.5017870245      -21.2629412056       49.7186708486  TIP3      3296            0.0000000000
     32141      3489  TIP3      OH2            19.8224012942      -21.3781572350       54.8968901550  TIP3      3297            0.0000000000
     32142      3489  TIP3      H1             19.7028789448      -22.3388708744       54.8666661582  TIP3      3297            0.0000000000
     32143      3489  TIP3      H2             18.9474502025      -21.1309046335       55.2801239110  TIP3      3297            0.0000000000
     32144      3490  TIP3      OH2            10.7619411860      -21.8162471668       53.7338981649  TIP3      3298            0.0000000000
     32145      3490  TIP3      H1             10.8576275695      -21.0085994337       54.2760360606  TIP3      3298            0.0000000000
     32146      3490  TIP3      H2              9.9120250180      -22.2094286402       54.0078782994  TIP3      3298            0.0000000000
     32147      3491  TIP3      OH2            11.2237031684      -18.0960005481       43.5514022377  TIP3      3299            0.0000000000
     32148      3491  TIP3      H1             11.1103895235      -18.1696942419       42.5887450789  TIP3      3299            0.0000000000
     32149      3491  TIP3      H2             11.2228019529      -17.1340132923       43.7057547966  TIP3      3299            0.0000000000
     32150      3492  TIP3      OH2             4.8328255570      -19.1937280461       45.3803385865  TIP3      3300            0.0000000000
     32151      3492  TIP3      H1              5.0146511763      -19.6446169644       46.2376183613  TIP3      3300            0.0000000000
     32152      3492  TIP3      H2              4.0149008563      -19.6552440158       45.1267102197  TIP3      3300            0.0000000000
     32153      3493  TIP3      OH2            14.2753124585      -18.8846589405       40.5314454460  TIP3      3301            0.0000000000
     32154      3493  TIP3      H1             14.7295420049      -19.6420359252       40.0968373510  TIP3      3301            0.0000000000
     32155      3493  TIP3      H2             14.3140794297      -19.1434090277       41.4770288977  TIP3      3301            0.0000000000
     32156      3494  TIP3      OH2            13.9724038135      -18.9483571349       43.3053370912  TIP3      3302            0.0000000000
     32157      3494  TIP3      H1             13.0098564530      -18.8734979926       43.4750843727  TIP3      3302            0.0000000000
     32158      3494  TIP3      H2             14.2043740987      -19.6917903723       43.8824498457  TIP3      3302            0.0000000000
     32159      3495  TIP3      OH2            16.9699538785      -29.9278215311       55.3618848107  TIP3      3303            0.0000000000
     32160      3495  TIP3      H1             16.4935093370      -29.4686223072       54.6501612535  TIP3      3303            0.0000000000
     32161      3495  TIP3      H2             16.9530719395      -30.8465763467       55.0543484917  TIP3      3303            0.0000000000
     32162      3496  TIP3      OH2             4.1201392218      -23.5261232971       53.3456931845  TIP3      3304            0.0000000000
     32163      3496  TIP3      H1              4.3162552466      -23.8248599308       54.2580023281  TIP3      3304            0.0000000000
     32164      3496  TIP3      H2              3.2313685423      -23.8897885831       53.1618360943  TIP3      3304            0.0000000000
     32165      3497  TIP3      OH2             6.7630483739      -35.0652508678       49.3495791430  TIP3      3305            0.0000000000
     32166      3497  TIP3      H1              5.8725000505      -35.1250982682       48.9513425156  TIP3      3305            0.0000000000
     32167      3497  TIP3      H2              6.6549839797      -34.2087541020       49.7934651244  TIP3      3305            0.0000000000
     32168      3498  TIP3      OH2            11.4087976586      -35.3362567888       52.7319047859  TIP3      3306            0.0000000000
     32169      3498  TIP3      H1             11.8357549342      -35.7582399744       53.4788719769  TIP3      3306            0.0000000000
     32170      3498  TIP3      H2             10.4558692095      -35.4472258076       52.8908898089  TIP3      3306            0.0000000000
     32171      3499  TIP3      OH2            14.7132187089      -31.5561156516       53.5843788995  TIP3      3307            0.0000000000
     32172      3499  TIP3      H1             14.1379481668      -31.7101719878       54.3666709600  TIP3      3307            0.0000000000
     32173      3499  TIP3      H2             14.5528945846      -30.6262134722       53.3407771126  TIP3      3307            0.0000000000
     32174      3500  TIP3      OH2            15.4772158186      -26.6957236647       39.4794826004  TIP3      3308            0.0000000000
     32175      3500  TIP3      H1             15.4553045707      -26.8839859100       38.5124446107  TIP3      3308            0.0000000000
     32176      3500  TIP3      H2             16.3359994909      -26.2532802263       39.5299523283  TIP3      3308            0.0000000000
     32177      3501  TIP3      OH2            11.0751905314      -32.7844175931       40.0015463615  TIP3      3309            0.0000000000
     32178      3501  TIP3      H1             10.7497970350      -32.8553182631       40.9111027061  TIP3      3309            0.0000000000
     32179      3501  TIP3      H2             10.7577314261      -33.6540209446       39.6890509037  TIP3      3309            0.0000000000
     32180      3502  TIP3      OH2             6.8922551061      -30.0505583937       50.5826223941  TIP3      3310            0.0000000000
     32181      3502  TIP3      H1              6.1486615567      -30.0638839609       51.2099981460  TIP3      3310            0.0000000000
     32182      3502  TIP3      H2              6.8416111953      -29.1454373263       50.1993326664  TIP3      3310            0.0000000000
     32183      3503  TIP3      OH2             6.8510953664      -29.9379284943       45.4325859601  TIP3      3311            0.0000000000
     32184      3503  TIP3      H1              5.9106308744      -30.1789864088       45.3030870535  TIP3      3311            0.0000000000
     32185      3503  TIP3      H2              7.2266152317      -30.2307864567       44.5793891290  TIP3      3311            0.0000000000
     32186      3504  TIP3      OH2            12.3736545022      -29.4283902046       44.2075334246  TIP3      3312            0.0000000000
     32187      3504  TIP3      H1             11.9775075669      -28.6074112113       43.8368092847  TIP3      3312            0.0000000000
     32188      3504  TIP3      H2             13.0634336881      -29.6073914412       43.5462180048  TIP3      3312            0.0000000000
     32189      3505  TIP3      OH2            11.4280997807      -29.2220875331       55.6403544576  TIP3      3313            0.0000000000
     32190      3505  TIP3      H1             10.8980917396      -29.9956539257       55.9509286717  TIP3      3313            0.0000000000
     32191      3505  TIP3      H2             12.2638211670      -29.3467819018       56.1195326048  TIP3      3313            0.0000000000
     32192      3506  TIP3      OH2            13.4089923952      -29.9404864981       47.0505952512  TIP3      3314            0.0000000000
     32193      3506  TIP3      H1             13.1186444357      -29.3835997430       46.3103013482  TIP3      3314            0.0000000000
     32194      3506  TIP3      H2             13.4961493248      -30.7912462264       46.5846679162  TIP3      3314            0.0000000000
     32195      3507  TIP3      OH2             4.5086107716      -29.8021162804       52.2497348212  TIP3      3315            0.0000000000
     32196      3507  TIP3      H1              4.5942854666      -29.3964870358       53.1298237283  TIP3      3315            0.0000000000
     32197      3507  TIP3      H2              4.0615126762      -30.6350274880       52.4604171938  TIP3      3315            0.0000000000
     32198      3508  TIP3      OH2             7.8735900725      -32.3833214579       39.1152994668  TIP3      3316            0.0000000000
     32199      3508  TIP3      H1              7.4111954683      -32.8255965463       39.8535745054  TIP3      3316            0.0000000000
     32200      3508  TIP3      H2              7.1691065517      -31.9931010997       38.5789838922  TIP3      3316            0.0000000000
     32201      3509  TIP3      OH2             1.1761592106      -32.6639484128       46.2191638405  TIP3      3317            0.0000000000
     32202      3509  TIP3      H1              1.8536686418      -32.7007533663       46.9282021342  TIP3      3317            0.0000000000
     32203      3509  TIP3      H2              1.6239761333      -33.0575783378       45.4522435234  TIP3      3317            0.0000000000
     32204      3510  TIP3      OH2             2.4356538230      -31.9581324474       41.6189831065  TIP3      3318            0.0000000000
     32205      3510  TIP3      H1              2.9471655136      -31.3735299377       41.0272812880  TIP3      3318            0.0000000000
     32206      3510  TIP3      H2              1.7412132372      -31.3361554553       41.9104573113  TIP3      3318            0.0000000000
     32207      3511  TIP3      OH2            12.5966654825      -28.3585630599       51.6033152991  TIP3      3319            0.0000000000
     32208      3511  TIP3      H1             12.9804995795      -29.0466507823       51.0204442356  TIP3      3319            0.0000000000
     32209      3511  TIP3      H2             12.1334535469      -28.8885990128       52.2767190467  TIP3      3319            0.0000000000
     32210      3512  TIP3      OH2             9.4096946528      -32.3923572949       46.4188810914  TIP3      3320            0.0000000000
     32211      3512  TIP3      H1              8.4812278386      -32.3917420068       46.7300034488  TIP3      3320            0.0000000000
     32212      3512  TIP3      H2              9.8995007718      -32.5424840237       47.2449031980  TIP3      3320            0.0000000000
     32213      3513  TIP3      OH2             4.2155444553      -30.8325034221       45.3082674533  TIP3      3321            0.0000000000
     32214      3513  TIP3      H1              3.3300799770      -30.6835721202       44.9165467293  TIP3      3321            0.0000000000
     32215      3513  TIP3      H2              4.5113945434      -31.6611579233       44.8946593271  TIP3      3321            0.0000000000
     32216      3514  TIP3      OH2             7.8588966166      -30.7897104441       42.9344491205  TIP3      3322            0.0000000000
     32217      3514  TIP3      H1              8.8146784608      -30.6831751500       43.0965295647  TIP3      3322            0.0000000000
     32218      3514  TIP3      H2              7.6206088305      -30.0974309315       42.2877455209  TIP3      3322            0.0000000000
     32219      3515  TIP3      OH2            13.8125258522      -33.1705628493       49.6747109982  TIP3      3323            0.0000000000
     32220      3515  TIP3      H1             13.1268847014      -33.0900136957       50.3721052956  TIP3      3323            0.0000000000
     32221      3515  TIP3      H2             13.3084637366      -33.4359230547       48.8943291231  TIP3      3323            0.0000000000
     32222      3516  TIP3      OH2             6.5600740820      -29.6102540652       40.5208260547  TIP3      3324            0.0000000000
     32223      3516  TIP3      H1              6.0301734318      -29.9879972020       39.7961697533  TIP3      3324            0.0000000000
     32224      3516  TIP3      H2              7.3834777948      -29.4038138932       40.0509936857  TIP3      3324            0.0000000000
     32225      3517  TIP3      OH2            17.0037297243      -17.5037589737       56.0035580493  TIP3      3325            0.0000000000
     32226      3517  TIP3      H1             17.2723727825      -17.1205366363       55.1495416084  TIP3      3325            0.0000000000
     32227      3517  TIP3      H2             17.7247960518      -17.1759258698       56.5610973873  TIP3      3325            0.0000000000
     32228      3518  TIP3      OH2             4.6995909359      -25.0810447517       55.5975699230  TIP3      3326            0.0000000000
     32229      3518  TIP3      H1              5.4046348120      -24.7600051321       56.1786885491  TIP3      3326            0.0000000000
     32230      3518  TIP3      H2              3.9158683757      -24.9125527194       56.1673845539  TIP3      3326            0.0000000000
     32231      3519  TIP3      OH2            10.6922561917      -29.6324393566       48.3304724286  TIP3      3327            0.0000000000
     32232      3519  TIP3      H1             11.2885665917      -30.1770682820       47.8027684618  TIP3      3327            0.0000000000
     32233      3519  TIP3      H2             10.5375290397      -30.1758870605       49.1157229217  TIP3      3327            0.0000000000
     32234      3520  TIP3      OH2             5.6828019012      -33.4528720133       44.7765348040  TIP3      3328            0.0000000000
     32235      3520  TIP3      H1              5.3686541265      -34.3727913899       44.7937907420  TIP3      3328            0.0000000000
     32236      3520  TIP3      H2              6.4627945404      -33.5375381225       44.2170589237  TIP3      3328            0.0000000000
     32237      3521  TIP3      OH2             9.3362383828      -31.2516666434       50.7346247549  TIP3      3329            0.0000000000
     32238      3521  TIP3      H1              8.4917857383      -30.7667026863       50.8437460240  TIP3      3329            0.0000000000
     32239      3521  TIP3      H2              9.8796935573      -30.9372339803       51.4794807154  TIP3      3329            0.0000000000
     32240      3522  TIP3      OH2             9.9141134282      -25.0773991593       42.4452520693  TIP3      3330            0.0000000000
     32241      3522  TIP3      H1              9.1142854658      -25.5433603654       42.1098278949  TIP3      3330            0.0000000000
     32242      3522  TIP3      H2              9.6868130527      -24.9528118837       43.3893812064  TIP3      3330            0.0000000000
     32243      3523  TIP3      OH2            17.0995945808      -25.8714421809       51.2493671964  TIP3      3331            0.0000000000
     32244      3523  TIP3      H1             17.6640221744      -25.3919382339       50.6153497591  TIP3      3331            0.0000000000
     32245      3523  TIP3      H2             16.2403095261      -25.8297461151       50.7834985513  TIP3      3331            0.0000000000
     32246      3524  TIP3      OH2            13.7293621518      -32.2540300954       40.6368490772  TIP3      3332            0.0000000000
     32247      3524  TIP3      H1             12.7804666405      -32.1007756700       40.4780009163  TIP3      3332            0.0000000000
     32248      3524  TIP3      H2             14.0789393680      -31.4034921390       40.9743526336  TIP3      3332            0.0000000000
     32249      3525  TIP3      OH2            11.4026946857      -24.8148854863       53.6812753600  TIP3      3333            0.0000000000
     32250      3525  TIP3      H1             11.0577142872      -25.2388372316       54.4745798175  TIP3      3333            0.0000000000
     32251      3525  TIP3      H2             11.1487333014      -23.8920020523       53.7946663947  TIP3      3333            0.0000000000
     32252      3526  TIP3      OH2            14.4874380589      -30.3519668806       42.2386327592  TIP3      3334            0.0000000000
     32253      3526  TIP3      H1             15.3667953012      -30.4889215147       42.6490280242  TIP3      3334            0.0000000000
     32254      3526  TIP3      H2             14.5883078117      -29.5196874118       41.7442847374  TIP3      3334            0.0000000000
     32255      3527  TIP3      OH2             5.0270546150      -25.6793041981       48.2461764515  TIP3      3335            0.0000000000
     32256      3527  TIP3      H1              5.7037622281      -25.7653348261       47.5459958177  TIP3      3335            0.0000000000
     32257      3527  TIP3      H2              5.0834371895      -26.5388992120       48.7015443357  TIP3      3335            0.0000000000
     32258      3528  TIP3      OH2            12.0078304021      -23.6097919192       41.4769487084  TIP3      3336            0.0000000000
     32259      3528  TIP3      H1             11.6646623191      -22.7643347642       41.8337641891  TIP3      3336            0.0000000000
     32260      3528  TIP3      H2             11.2755390496      -24.2260924839       41.6951922795  TIP3      3336            0.0000000000
     32261      3529  TIP3      OH2             2.0156951260      -27.2964364127       53.4990905714  TIP3      3337            0.0000000000
     32262      3529  TIP3      H1              2.1853022362      -27.7162865049       54.3636263318  TIP3      3337            0.0000000000
     32263      3529  TIP3      H2              1.3892203910      -27.9010109122       53.0668739113  TIP3      3337            0.0000000000
     32264      3530  TIP3      OH2             9.0267354886      -27.7198703376       55.6834088799  TIP3      3338            0.0000000000
     32265      3530  TIP3      H1              8.7063664946      -28.0319141637       54.8248634976  TIP3      3338            0.0000000000
     32266      3530  TIP3      H2              9.9493598218      -28.0456090957       55.6817130659  TIP3      3338            0.0000000000
     32267      3531  TIP3      OH2            13.7111734781      -22.3844171629       53.6397033462  TIP3      3339            0.0000000000
     32268      3531  TIP3      H1             12.7870740540      -22.2045876944       53.4033111819  TIP3      3339            0.0000000000
     32269      3531  TIP3      H2             13.6782180898      -22.0907963300       54.5701645583  TIP3      3339            0.0000000000
     32270      3532  TIP3      OH2            19.3920474675      -30.1951939537       42.0217802689  TIP3      3340            0.0000000000
     32271      3532  TIP3      H1             18.8174384241      -30.4872496841       41.2882797089  TIP3      3340            0.0000000000
     32272      3532  TIP3      H2             19.4598197917      -29.2460402335       41.7699779348  TIP3      3340            0.0000000000
     32273      3533  TIP3      OH2            19.3673202265      -24.3407217765       54.8307525046  TIP3      3341            0.0000000000
     32274      3533  TIP3      H1             18.4745533169      -24.1219818021       54.4659525634  TIP3      3341            0.0000000000
     32275      3533  TIP3      H2             19.9133615356      -24.3951737113       54.0187868967  TIP3      3341            0.0000000000
     32276      3534  TIP3      OH2            17.6334798391      -21.3760043830       42.4179748335  TIP3      3342            0.0000000000
     32277      3534  TIP3      H1             17.3032855673      -22.2134136693       42.7678554630  TIP3      3342            0.0000000000
     32278      3534  TIP3      H2             17.9895619043      -21.5952268731       41.5411728964  TIP3      3342            0.0000000000
     32279      3535  TIP3      OH2            14.8740925339      -26.5530855019       49.5312708489  TIP3      3343            0.0000000000
     32280      3535  TIP3      H1             13.9343876819      -26.7684298906       49.4200697540  TIP3      3343            0.0000000000
     32281      3535  TIP3      H2             15.3076165363      -27.3128485035       49.0960387128  TIP3      3343            0.0000000000
     32282      3536  TIP3      OH2             7.4009697137      -22.2255737095       45.6316504583  TIP3      3344            0.0000000000
     32283      3536  TIP3      H1              7.8971798142      -21.4188875493       45.4237939130  TIP3      3344            0.0000000000
     32284      3536  TIP3      H2              6.5214604851      -22.0012711476       45.2993453455  TIP3      3344            0.0000000000
     32285      3537  TIP3      OH2             3.1636909549      -27.3896954238       40.2027129934  TIP3      3345            0.0000000000
     32286      3537  TIP3      H1              3.7415802979      -26.7228509614       40.6114196085  TIP3      3345            0.0000000000
     32287      3537  TIP3      H2              2.2730417595      -27.0762845317       40.4496708390  TIP3      3345            0.0000000000
     32288      3538  TIP3      OH2             8.8054980786      -24.5631309721       45.1348419216  TIP3      3346            0.0000000000
     32289      3538  TIP3      H1              8.4958918568      -23.6432069916       45.2412218842  TIP3      3346            0.0000000000
     32290      3538  TIP3      H2              8.0956417745      -25.0570443343       45.5908031777  TIP3      3346            0.0000000000
     32291      3539  TIP3      OH2             9.2425699547      -20.3246341996       51.6350666064  TIP3      3347            0.0000000000
     32292      3539  TIP3      H1              9.7472700126      -19.5840796747       51.2506009244  TIP3      3347            0.0000000000
     32293      3539  TIP3      H2              9.9111810846      -20.7473078999       52.2064393262  TIP3      3347            0.0000000000
     32294      3540  TIP3      OH2             7.4921973247      -19.5764038740       44.6718385592  TIP3      3348            0.0000000000
     32295      3540  TIP3      H1              6.5304444296      -19.4435641404       44.8080970492  TIP3      3348            0.0000000000
     32296      3540  TIP3      H2              7.8536792267      -18.7386367916       45.0171173565  TIP3      3348            0.0000000000
     32297      3541  TIP3      OH2            12.7794740166      -24.3853643042       51.1749088490  TIP3      3349            0.0000000000
     32298      3541  TIP3      H1             12.4608598300      -24.5750681101       52.0820522390  TIP3      3349            0.0000000000
     32299      3541  TIP3      H2             13.4244577743      -25.0917046342       51.0087623155  TIP3      3349            0.0000000000
     32300      3542  TIP3      OH2            15.1261460949      -23.3028884735       40.2657595241  TIP3      3350            0.0000000000
     32301      3542  TIP3      H1             15.4200812580      -23.7781274327       41.0692028164  TIP3      3350            0.0000000000
     32302      3542  TIP3      H2             14.1724987252      -23.4884574663       40.3462823316  TIP3      3350            0.0000000000
     32303      3543  TIP3      OH2            15.6049787239      -19.7980580199       53.6638834589  TIP3      3351            0.0000000000
     32304      3543  TIP3      H1             14.9154549331      -20.2948900944       53.1842263932  TIP3      3351            0.0000000000
     32305      3543  TIP3      H2             15.7880008625      -19.0990777185       53.0020730114  TIP3      3351            0.0000000000
     32306      3544  TIP3      OH2            19.5870611837      -18.9532424125       40.5210744147  TIP3      3352            0.0000000000
     32307      3544  TIP3      H1             20.2749390055      -18.2883632791       40.3155323557  TIP3      3352            0.0000000000
     32308      3544  TIP3      H2             18.8722175752      -18.3418750572       40.8066606335  TIP3      3352            0.0000000000
     32309      3545  TIP3      OH2             3.6591659702      -32.5658625020       53.0797340045  TIP3      3353            0.0000000000
     32310      3545  TIP3      H1              2.7529307984      -32.2098697768       53.0370231205  TIP3      3353            0.0000000000
     32311      3545  TIP3      H2              3.5267067367      -33.4351975830       53.4922993950  TIP3      3353            0.0000000000
     32312      3546  TIP3      OH2            15.9001338774      -24.6711513223       42.5083729214  TIP3      3354            0.0000000000
     32313      3546  TIP3      H1             15.6618662783      -25.4581930634       43.0450495281  TIP3      3354            0.0000000000
     32314      3546  TIP3      H2             16.8528924730      -24.6280773809       42.6860969689  TIP3      3354            0.0000000000
     32315      3547  TIP3      OH2             3.2793377461      -20.7613563530       51.4784047190  TIP3      3355            0.0000000000
     32316      3547  TIP3      H1              3.5878035781      -21.6773606381       51.5236221415  TIP3      3355            0.0000000000
     32317      3547  TIP3      H2              3.5181409453      -20.4513108036       52.3766475696  TIP3      3355            0.0000000000
     32318      3548  TIP3      OH2             9.2524219736      -22.2340237131       38.7618775811  TIP3      3356            0.0000000000
     32319      3548  TIP3      H1              9.3514802775      -22.9981337330       38.1713506035  TIP3      3356            0.0000000000
     32320      3548  TIP3      H2              8.8102159010      -22.6645136471       39.5261026341  TIP3      3356            0.0000000000
     32321      3549  TIP3      OH2             8.0252808089      -22.7066665036       41.2134158079  TIP3      3357            0.0000000000
     32322      3549  TIP3      H1              8.2943279931      -23.2216780463       41.9836735341  TIP3      3357            0.0000000000
     32323      3549  TIP3      H2              8.1165884089      -21.7807153950       41.5368616200  TIP3      3357            0.0000000000
     32324      3550  TIP3      OH2             4.5680789192      -25.4612901951       41.7003983288  TIP3      3358            0.0000000000
     32325      3550  TIP3      H1              3.8526433518      -25.0654035356       42.2374595461  TIP3      3358            0.0000000000
     32326      3550  TIP3      H2              5.0724002247      -24.6811395803       41.4057754141  TIP3      3358            0.0000000000
     32327      3551  TIP3      OH2            12.4058324762      -32.7825207665       52.0101530844  TIP3      3359            0.0000000000
     32328      3551  TIP3      H1             13.1256511112      -32.7202381798       52.6488727644  TIP3      3359            0.0000000000
     32329      3551  TIP3      H2             12.0363962562      -33.6694452715       52.1913288179  TIP3      3359            0.0000000000
     32330      3552  TIP3      OH2            13.1738659915      -33.2092781208       43.1285238898  TIP3      3360            0.0000000000
     32331      3552  TIP3      H1             13.3631080420      -32.7488185006       42.2822297427  TIP3      3360            0.0000000000
     32332      3552  TIP3      H2             13.7097257154      -32.7021892285       43.7521342719  TIP3      3360            0.0000000000
     32333      3553  TIP3      OH2            10.8294157173      -21.0443401332       41.9091474507  TIP3      3361            0.0000000000
     32334      3553  TIP3      H1             10.0113820852      -20.5118037178       41.9813808337  TIP3      3361            0.0000000000
     32335      3553  TIP3      H2             11.3681892834      -20.4935398019       41.3228830875  TIP3      3361            0.0000000000
     32336      3554  TIP3      OH2            10.3830708605      -31.4793431516       43.9316043998  TIP3      3362            0.0000000000
     32337      3554  TIP3      H1             11.1472445141      -30.8713186535       43.9653657033  TIP3      3362            0.0000000000
     32338      3554  TIP3      H2             10.1206897239      -31.5655492536       44.8694582622  TIP3      3362            0.0000000000
     32339      3555  TIP3      OH2            10.9270385371      -30.4277677339       53.1181689369  TIP3      3363            0.0000000000
     32340      3555  TIP3      H1             11.0026446908      -29.8746744037       53.9192955427  TIP3      3363            0.0000000000
     32341      3555  TIP3      H2             11.5907263393      -31.1228055054       53.2132187443  TIP3      3363            0.0000000000
     32342      3556  TIP3      OH2            11.2433298539      -34.3874150114       44.8524926669  TIP3      3364            0.0000000000
     32343      3556  TIP3      H1             10.8945701378      -33.7164094742       45.4637514573  TIP3      3364            0.0000000000
     32344      3556  TIP3      H2             11.8999688264      -33.8383477824       44.3643791969  TIP3      3364            0.0000000000
     32345      3557  TIP3      OH2             8.2323416823      -20.0110251694       41.9375428757  TIP3      3365            0.0000000000
     32346      3557  TIP3      H1              8.3244697096      -19.1957728845       41.3868078489  TIP3      3365            0.0000000000
     32347      3557  TIP3      H2              7.9630018889      -19.6482664687       42.8087719053  TIP3      3365            0.0000000000
     32348      3558  TIP3      OH2             6.8604988340      -33.2986024509       41.5034010286  TIP3      3366            0.0000000000
     32349      3558  TIP3      H1              6.8062331933      -32.4035838876       41.8927616620  TIP3      3366            0.0000000000
     32350      3558  TIP3      H2              7.7840689868      -33.4989814706       41.7543194230  TIP3      3366            0.0000000000
     32351      3559  TIP3      OH2            17.0788263809      -32.5667961393       53.9887053738  TIP3      3367            0.0000000000
     32352      3559  TIP3      H1             16.1640878533      -32.2299006914       53.8306395543  TIP3      3367            0.0000000000
     32353      3559  TIP3      H2             17.4232020237      -32.5663045264       53.0660621687  TIP3      3367            0.0000000000
     32354      3560  TIP3      OH2            15.7141621447      -28.7648931262       47.9632344317  TIP3      3368            0.0000000000
     32355      3560  TIP3      H1             14.8922649220      -29.2162724667       47.6924682765  TIP3      3368            0.0000000000
     32356      3560  TIP3      H2             16.1985689860      -29.4504360841       48.4812806033  TIP3      3368            0.0000000000
     32357      3561  TIP3      OH2             5.1091269160      -22.8469864775       40.5597634744  TIP3      3369            0.0000000000
     32358      3561  TIP3      H1              5.7784157233      -22.2210185310       40.8717700666  TIP3      3369            0.0000000000
     32359      3561  TIP3      H2              5.6312862757      -23.3126111554       39.8759388975  TIP3      3369            0.0000000000
     32360      3562  TIP3      OH2             3.4449489398      -30.1658413233       39.7142850813  TIP3      3370            0.0000000000
     32361      3562  TIP3      H1              3.4663539345      -29.2067758356       39.9138940579  TIP3      3370            0.0000000000
     32362      3562  TIP3      H2              2.5611228576      -30.3440149244       39.3893083669  TIP3      3370            0.0000000000
     32363      3563  TIP3      OH2            16.7823792659      -19.5157637572       49.6376145147  TIP3      3371            0.0000000000
     32364      3563  TIP3      H1             16.6901526835      -18.8299477029       48.9466768551  TIP3      3371            0.0000000000
     32365      3563  TIP3      H2             17.7451287241      -19.4569036470       49.8138883126  TIP3      3371            0.0000000000
     32366      3564  TIP3      OH2             4.0315332583      -35.2257674945       48.5001955684  TIP3      3372            0.0000000000
     32367      3564  TIP3      H1              4.0902876672      -35.3265372485       47.5216316082  TIP3      3372            0.0000000000
     32368      3564  TIP3      H2              3.8844532798      -36.1491843344       48.7256611321  TIP3      3372            0.0000000000
     32369      3565  TIP3      OH2             3.2361019381      -21.4737067005       44.6004487556  TIP3      3373            0.0000000000
     32370      3565  TIP3      H1              2.3729253536      -21.0493225835       44.5369187367  TIP3      3373            0.0000000000
     32371      3565  TIP3      H2              3.7046368711      -21.0203958218       43.8871953521  TIP3      3373            0.0000000000
     32372      3566  TIP3      OH2             1.9185294052      -18.7437913684       56.2312402413  TIP3      3374            0.0000000000
     32373      3566  TIP3      H1              2.8458085662      -18.8600620233       56.5492251359  TIP3      3374            0.0000000000
     32374      3566  TIP3      H2              1.9847504770      -19.5277880798       55.6596575393  TIP3      3374            0.0000000000
     32375      3567  TIP3      OH2             7.2103091360      -19.8728947115       57.4023587945  TIP3      3375            0.0000000000
     32376      3567  TIP3      H1              7.8604182591      -20.4399355543       57.8449216372  TIP3      3375            0.0000000000
     32377      3567  TIP3      H2              6.9847824630      -20.3268536312       56.5796322917  TIP3      3375            0.0000000000
     32378      3568  TIP3      OH2            11.2464578143      -20.3833926902       38.8853048460  TIP3      3376            0.0000000000
     32379      3568  TIP3      H1             10.5538817682      -21.0428236323       39.1128711645  TIP3      3376            0.0000000000
     32380      3568  TIP3      H2             11.9646182037      -20.9819140287       38.6373713405  TIP3      3376            0.0000000000
     32381      3569  TIP3      OH2            13.6143327380      -21.5124081912       56.2332782277  TIP3      3377            0.0000000000
     32382      3569  TIP3      H1             13.2992810159      -22.3998871728       56.5072932503  TIP3      3377            0.0000000000
     32383      3569  TIP3      H2             14.3835205902      -21.3941680327       56.8251609650  TIP3      3377            0.0000000000
     32384      3570  TIP3      OH2            15.8043079565      -20.6393076426       39.0718407911  TIP3      3378            0.0000000000
     32385      3570  TIP3      H1             16.1003555116      -21.4152962694       39.5750759678  TIP3      3378            0.0000000000
     32386      3570  TIP3      H2             16.5668487739      -20.4140970649       38.5195479201  TIP3      3378            0.0000000000
     32387      3571  TIP3      OH2             2.3279919321      -25.0592782810       56.8889625120  TIP3      3379            0.0000000000
     32388      3571  TIP3      H1              2.5069832075      -25.9584857942       56.5613257910  TIP3      3379            0.0000000000
     32389      3571  TIP3      H2              1.6237330477      -24.7607572316       56.2897812890  TIP3      3379            0.0000000000
     32390      3572  TIP3      OH2             6.6921399165      -24.6990263209       38.8908867510  TIP3      3380            0.0000000000
     32391      3572  TIP3      H1              6.8326623117      -25.4610682780       39.4756700486  TIP3      3380            0.0000000000
     32392      3572  TIP3      H2              7.4398267361      -24.8170398622       38.2721805539  TIP3      3380            0.0000000000
     32393      3573  TIP3      OH2             9.0666705005      -25.0491115493       56.2532945697  TIP3      3381            0.0000000000
     32394      3573  TIP3      H1              8.7237327103      -24.7493193783       55.3910038663  TIP3      3381            0.0000000000
     32395      3573  TIP3      H2              9.1336741571      -26.0293456046       56.1492266550  TIP3      3381            0.0000000000
     32396      3574  TIP3      OH2            12.1222747324      -23.5894075359       38.6679982287  TIP3      3382            0.0000000000
     32397      3574  TIP3      H1             11.8516643400      -23.5083338903       39.5961161945  TIP3      3382            0.0000000000
     32398      3574  TIP3      H2             11.9326052963      -24.5470073560       38.5232644681  TIP3      3382            0.0000000000
     32399      3575  TIP3      OH2            14.7543055082      -25.1954661694       53.6496203040  TIP3      3383            0.0000000000
     32400      3575  TIP3      H1             15.5425633730      -24.6131309504       53.5866144957  TIP3      3383            0.0000000000
     32401      3575  TIP3      H2             14.0549360667      -24.5273989870       53.6844376671  TIP3      3383            0.0000000000
     32402      3576  TIP3      OH2             3.2601356522      -27.8177313739       56.2476017413  TIP3      3384            0.0000000000
     32403      3576  TIP3      H1              3.6782768850      -28.6811385292       56.1653293781  TIP3      3384            0.0000000000
     32404      3576  TIP3      H2              3.0328438312      -27.7917133946       57.1914689992  TIP3      3384            0.0000000000
     32405      3577  TIP3      OH2             7.8975873998      -26.6800525730       41.3252778768  TIP3      3385            0.0000000000
     32406      3577  TIP3      H1              7.3900277807      -27.2196940315       41.9480054801  TIP3      3385            0.0000000000
     32407      3577  TIP3      H2              8.1919850512      -27.3511215252       40.6659754108  TIP3      3385            0.0000000000
     32408      3578  TIP3      OH2             7.1614204774      -28.8811782703       53.6021610010  TIP3      3386            0.0000000000
     32409      3578  TIP3      H1              6.5669020455      -28.1572993306       53.8611094261  TIP3      3386            0.0000000000
     32410      3578  TIP3      H2              7.5591916329      -28.5076264662       52.7968186002  TIP3      3386            0.0000000000
     32411      3579  TIP3      OH2             8.9704207565      -28.4576004397       39.5188607950  TIP3      3387            0.0000000000
     32412      3579  TIP3      H1              8.8204460002      -28.5459391782       38.5547757513  TIP3      3387            0.0000000000
     32413      3579  TIP3      H2              9.9464478273      -28.4051299816       39.5832501579  TIP3      3387            0.0000000000
     32414      3580  TIP3      OH2            12.2356411815      -26.3037414457       56.9433312787  TIP3      3388            0.0000000000
     32415      3580  TIP3      H1             13.1922122899      -26.3188526191       56.8178313073  TIP3      3388            0.0000000000
     32416      3580  TIP3      H2             12.0649271241      -27.0743904814       57.5080243891  TIP3      3388            0.0000000000
     32417      3581  TIP3      OH2            18.2982867832      -26.1372318340       38.9289719099  TIP3      3389            0.0000000000
     32418      3581  TIP3      H1             18.1085089518      -26.5188125643       38.0580786458  TIP3      3389            0.0000000000
     32419      3581  TIP3      H2             18.3880688450      -25.1752522218       38.7419201836  TIP3      3389            0.0000000000
     32420      3582  TIP3      OH2             7.5563874233      -31.5018183005       54.6639718216  TIP3      3390            0.0000000000
     32421      3582  TIP3      H1              7.6881200649      -32.2109976533       54.0136937190  TIP3      3390            0.0000000000
     32422      3582  TIP3      H2              7.5212006388      -30.6893844201       54.1106185953  TIP3      3390            0.0000000000
     32423      3583  TIP3      OH2             7.9672803195      -33.0927352832       52.1870073011  TIP3      3391            0.0000000000
     32424      3583  TIP3      H1              8.4828127346      -32.6189285731       51.4935436328  TIP3      3391            0.0000000000
     32425      3583  TIP3      H2              7.0736672408      -33.1973794780       51.7809358791  TIP3      3391            0.0000000000
     32426      3584  TIP3      OH2             9.5082044258      -27.6222773688       52.4600148304  TIP3      3392            0.0000000000
     32427      3584  TIP3      H1             10.2622730661      -27.7911235371       51.8872363696  TIP3      3392            0.0000000000
     32428      3584  TIP3      H2              9.1443699201      -26.7897177411       52.1202985334  TIP3      3392            0.0000000000
     32429      3585  TIP3      OH2            13.9030499285      -29.8737127965       57.4175938147  TIP3      3393            0.0000000000
     32430      3585  TIP3      H1             14.1404966015      -30.8097260891       57.3296265364  TIP3      3393            0.0000000000
     32431      3585  TIP3      H2             14.7688401838      -29.4309440707       57.4537456520  TIP3      3393            0.0000000000
     32432      3586  TIP3      OH2            15.2467491971      -27.0775534710       55.5897566275  TIP3      3394            0.0000000000
     32433      3586  TIP3      H1             14.9955813126      -26.3577803535       54.9705576174  TIP3      3394            0.0000000000
     32434      3586  TIP3      H2             16.2052942136      -27.1096972579       55.3995733531  TIP3      3394            0.0000000000
     32435      3587  TIP3      OH2             6.0298151706      -30.2448947184       56.5841029732  TIP3      3395            0.0000000000
     32436      3587  TIP3      H1              5.2598950557      -30.8206410334       56.4116157993  TIP3      3395            0.0000000000
     32437      3587  TIP3      H2              6.6868254158      -30.6052159288       55.9601819420  TIP3      3395            0.0000000000
     32438      3588  TIP3      OH2             8.6115758380      -35.4814407991       52.8856314706  TIP3      3396            0.0000000000
     32439      3588  TIP3      H1              8.5585114690      -34.5412518524       52.5841190135  TIP3      3396            0.0000000000
     32440      3588  TIP3      H2              8.0323892935      -35.8958574078       52.2306289103  TIP3      3396            0.0000000000
     32441      3589  TIP3      OH2            10.0067111908      -31.3149351180       56.2204921194  TIP3      3397            0.0000000000
     32442      3589  TIP3      H1              9.7296475622      -31.6242604573       57.1031112589  TIP3      3397            0.0000000000
     32443      3589  TIP3      H2              9.2331522643      -31.5647331392       55.6893971881  TIP3      3397            0.0000000000
     32444      3590  TIP3      OH2            12.7530417642      -32.1899618309       55.3349262547  TIP3      3398            0.0000000000
     32445      3590  TIP3      H1             11.7855175246      -32.1678758045       55.4424779204  TIP3      3398            0.0000000000
     32446      3590  TIP3      H2             13.0323114696      -32.8303037239       56.0188634996  TIP3      3398            0.0000000000
     32447      3591  TIP3      OH2            14.3479571344      -33.4761206339       57.2517427888  TIP3      3399            0.0000000000
     32448      3591  TIP3      H1             14.2543723180      -34.4608381914       57.2257726726  TIP3      3399            0.0000000000
     32449      3591  TIP3      H2             14.0542387328      -33.2812893672       58.1584792835  TIP3      3399            0.0000000000
     32450      3592  TIP3      OH2             4.0921221876      -32.3162072218       56.3369904967  TIP3      3400            0.0000000000
     32451      3592  TIP3      H1              4.3594605925      -33.0506793033       55.7525392630  TIP3      3400            0.0000000000
     32452      3592  TIP3      H2              4.0256984757      -32.7724292903       57.1996154254  TIP3      3400            0.0000000000
     32453      3593  TIP3      OH2             8.9587938249       36.7216941273       55.3425374647  TIP3      3401            0.0000000000
     32454      3593  TIP3      H1              9.6420836791       36.0499266106       55.3863875292  TIP3      3401            0.0000000000
     32455      3593  TIP3      H2              8.8552759010       36.9296124885       54.3899786472  TIP3      3401            0.0000000000
     32456      3594  TIP3      OH2             9.3692120246      -34.5960872261       57.3806176993  TIP3      3402            0.0000000000
     32457      3594  TIP3      H1              9.1841746432      -35.1702070007       56.6070474682  TIP3      3402            0.0000000000
     32458      3594  TIP3      H2              8.7280439039      -33.8739873596       57.3145742247  TIP3      3402            0.0000000000
     32459      3595  TIP3      OH2             8.8016283568      -17.7552486350       40.5970841716  TIP3      3403            0.0000000000
     32460      3595  TIP3      H1              9.7684633930      -17.6715621024       40.6638494370  TIP3      3403            0.0000000000
     32461      3595  TIP3      H2              8.6542406034      -17.1546141094       39.8568870547  TIP3      3403            0.0000000000
     32462      3596  TIP3      OH2             2.3539824518      -23.1844514447       40.0644750138  TIP3      3404            0.0000000000
     32463      3596  TIP3      H1              3.3211683541      -23.0906055585       40.2438736349  TIP3      3404            0.0000000000
     32464      3596  TIP3      H2              2.4038117692      -23.8278845876       39.3179027895  TIP3      3404            0.0000000000
     32465      3597  TIP3      OH2             1.1785001293      -17.7627440871       45.0408902047  TIP3      3405            0.0000000000
     32466      3597  TIP3      H1              0.4488915131      -18.2577885018       44.5699828942  TIP3      3405            0.0000000000
     32467      3597  TIP3      H2              1.4153733198      -18.4635484835       45.6899507905  TIP3      3405            0.0000000000
     32468      3598  TIP3      OH2             1.9427119833      -19.6351286776       46.8997890702  TIP3      3406            0.0000000000
     32469      3598  TIP3      H1              1.6171655710      -20.5309473605       47.0855976575  TIP3      3406            0.0000000000
     32470      3598  TIP3      H2              2.1931513193      -19.3457289239       47.7982304895  TIP3      3406            0.0000000000
     32471      3599  TIP3      OH2            19.4989071147      -18.8657088836       49.8359113898  TIP3      3407            0.0000000000
     32472      3599  TIP3      H1             19.5294731024      -18.7050660322       50.7950815609  TIP3      3407            0.0000000000
     32473      3599  TIP3      H2             20.2023120476      -18.2825763941       49.5327396824  TIP3      3407            0.0000000000
     32474      3600  TIP3      OH2            19.0797420769      -19.2788085622       52.7793155266  TIP3      3408            0.0000000000
     32475      3600  TIP3      H1             18.5991396915      -20.0439793762       52.4018042791  TIP3      3408            0.0000000000
     32476      3600  TIP3      H2             19.5603027041      -19.7217035676       53.4967238043  TIP3      3408            0.0000000000
     32477      3601  TIP3      OH2            17.5170399103      -23.5496072797       57.4544271706  TIP3      3409            0.0000000000
     32478      3601  TIP3      H1             16.6112831558      -23.5768275839       57.8185386697  TIP3      3409            0.0000000000
     32479      3601  TIP3      H2             17.8889788757      -22.7450819246       57.8653331859  TIP3      3409            0.0000000000
     32480      3602  TIP3      OH2            18.8311618252      -25.2185686162       42.8822974912  TIP3      3410            0.0000000000
     32481      3602  TIP3      H1             19.6978850232      -24.8269686242       43.0701726362  TIP3      3410            0.0000000000
     32482      3602  TIP3      H2             18.8154474750      -25.9377134684       43.5514759378  TIP3      3410            0.0000000000
     32483      3603  TIP3      OH2            19.1923572878      -27.1430586466       44.7733842801  TIP3      3411            0.0000000000
     32484      3603  TIP3      H1             18.4413335939      -27.6420807936       45.1659730092  TIP3      3411            0.0000000000
     32485      3603  TIP3      H2             19.7902789845      -27.0128256590       45.5365823551  TIP3      3411            0.0000000000
     32486      3604  TIP3      OH2            18.9461693785      -24.4511909094       49.7525362094  TIP3      3412            0.0000000000
     32487      3604  TIP3      H1             19.7624196216      -24.8300921744       49.3760762058  TIP3      3412            0.0000000000
     32488      3604  TIP3      H2             19.0956298240      -23.4972539863       49.5848500624  TIP3      3412            0.0000000000
     32489      3605  TIP3      OH2            17.5052610418      -21.5412699377       52.0247907473  TIP3      3413            0.0000000000
     32490      3605  TIP3      H1             16.8163020129      -21.2013168681       52.6142087400  TIP3      3413            0.0000000000
     32491      3605  TIP3      H2             16.9606504656      -21.9446703269       51.3161350721  TIP3      3413            0.0000000000
     32492      3606  TIP3      OH2            19.4922636435      -27.3198748001       41.1623310027  TIP3      3414            0.0000000000
     32493      3606  TIP3      H1             18.9255956510      -26.9790703886       40.4384913391  TIP3      3414            0.0000000000
     32494      3606  TIP3      H2             19.3921307388      -26.6063472991       41.8198741249  TIP3      3414            0.0000000000
     32495      3607  TIP3      OH2            17.8727476893      -30.0849553361       39.6704041443  TIP3      3415            0.0000000000
     32496      3607  TIP3      H1             17.9433344222      -29.4222511042       38.9770243689  TIP3      3415            0.0000000000
     32497      3607  TIP3      H2             17.6811747262      -30.9095881260       39.1810123159  TIP3      3415            0.0000000000
     32498      3608  TIP3      OH2            17.0105542670      -28.6705422016       45.3389136854  TIP3      3416            0.0000000000
     32499      3608  TIP3      H1             16.8651110507      -29.6257134442       45.3016573544  TIP3      3416            0.0000000000
     32500      3608  TIP3      H2             16.6832789937      -28.4541527332       46.2316356202  TIP3      3416            0.0000000000
     32501      3609  TIP3      OH2             2.0193438416      -26.5807472971       49.4027411607  TIP3      3417            0.0000000000
     32502      3609  TIP3      H1              2.1950694634      -26.6642711340       48.4398535880  TIP3      3417            0.0000000000
     32503      3609  TIP3      H2              2.9126062363      -26.7620858650       49.7545792012  TIP3      3417            0.0000000000
     32504      3610  TIP3      OH2            17.8751959484      -26.7082824180       55.0293900634  TIP3      3418            0.0000000000
     32505      3610  TIP3      H1             18.4851724471      -27.4625465053       55.1648012923  TIP3      3418            0.0000000000
     32506      3610  TIP3      H2             18.4769360162      -25.9331825395       55.0329456807  TIP3      3418            0.0000000000
     32507      3611  TIP3      OH2            19.3639931952      -28.8201799337       55.7145022689  TIP3      3419            0.0000000000
     32508      3611  TIP3      H1             18.4848135624      -29.2202825907       55.5368167468  TIP3      3419            0.0000000000
     32509      3611  TIP3      H2             19.9426666742      -29.5966661668       55.5908023518  TIP3      3419            0.0000000000
     32510      3612  TIP3      OH2            17.1132353723      -32.6095590231       38.8286022712  TIP3      3420            0.0000000000
     32511      3612  TIP3      H1             17.7045298997      -33.0540911596       39.4671376863  TIP3      3420            0.0000000000
     32512      3612  TIP3      H2             16.2539086882      -33.0467534997       38.9677468601  TIP3      3420            0.0000000000
     32513      3613  TIP3      OH2            16.6565787079      -31.0749183163       43.7555048665  TIP3      3421            0.0000000000
     32514      3613  TIP3      H1             16.9731453427      -31.9915690586       43.9126775292  TIP3      3421            0.0000000000
     32515      3613  TIP3      H2             17.4803452573      -30.6728197550       43.4501476036  TIP3      3421            0.0000000000
     32516      3614  TIP3      OH2            17.2762983801      -30.5253432651       49.2374602514  TIP3      3422            0.0000000000
     32517      3614  TIP3      H1             18.2518975633      -30.3167747228       49.2061562743  TIP3      3422            0.0000000000
     32518      3614  TIP3      H2             17.1449326707      -30.4177162798       50.1909061576  TIP3      3422            0.0000000000
     32519      3615  TIP3      OH2            17.3847648972      -29.7977333073       52.0328262718  TIP3      3423            0.0000000000
     32520      3615  TIP3      H1             16.4999491723      -29.5098397491       52.3343287083  TIP3      3423            0.0000000000
     32521      3615  TIP3      H2             17.8368768803      -28.9560889959       51.7940237579  TIP3      3423            0.0000000000
     32522      3616  TIP3      OH2             1.6250581956      -31.2621256403       55.5633141896  TIP3      3424            0.0000000000
     32523      3616  TIP3      H1              2.5631150602      -31.4858310477       55.7312814576  TIP3      3424            0.0000000000
     32524      3616  TIP3      H2              1.1854682038      -32.1038032111       55.8109333808  TIP3      3424            0.0000000000
     32525      3617  TIP3      OH2            19.6942070232      -35.7613430163       57.3996813420  TIP3      3425            0.0000000000
     32526      3617  TIP3      H1             19.9532503291      -36.4178217688       56.7373841171  TIP3      3425            0.0000000000
     32527      3617  TIP3      H2             19.7193903257      -34.9359682411       56.8795257714  TIP3      3425            0.0000000000
     32528      3618  TIP3      OH2            17.3432841153      -33.7684540565       43.8508587708  TIP3      3426            0.0000000000
     32529      3618  TIP3      H1             17.5481464062      -34.2419866337       44.6872463612  TIP3      3426            0.0000000000
     32530      3618  TIP3      H2             16.7662034729      -34.4183064856       43.3815215898  TIP3      3426            0.0000000000
     32531      3619  TIP3      OH2             2.8038129929      -32.9413596001       48.3625748715  TIP3      3427            0.0000000000
     32532      3619  TIP3      H1              3.2378598159      -33.7852311418       48.6384171433  TIP3      3427            0.0000000000
     32533      3619  TIP3      H2              3.3785589880      -32.2931844497       48.7867328687  TIP3      3427            0.0000000000
     32534      3620  TIP3      OH2             1.1180777963      -29.9926823790       49.4398308195  TIP3      3428            0.0000000000
     32535      3620  TIP3      H1              1.6824120811      -30.2450132832       48.6802188420  TIP3      3428            0.0000000000
     32536      3620  TIP3      H2              1.5863185341      -29.1888752759       49.7087209199  TIP3      3428            0.0000000000
     32537      3621  TIP3      OH2            19.1775042512      -33.7217579775       55.7151367975  TIP3      3429            0.0000000000
     32538      3621  TIP3      H1             18.2573100940      -33.3969697473       55.6503017127  TIP3      3429            0.0000000000
     32539      3621  TIP3      H2             19.2325193831      -34.2080705813       54.8762177278  TIP3      3429            0.0000000000
     32540      3622  TIP3      OH2            19.1940707414      -33.7584235779       40.4080467456  TIP3      3430            0.0000000000
     32541      3622  TIP3      H1             19.5718811322      -34.4855792279       39.8596733757  TIP3      3430            0.0000000000
     32542      3622  TIP3      H2             19.9061531025      -33.1104757423       40.4364104664  TIP3      3430            0.0000000000
     32543      3623  TIP3      OH2             1.4927710553      -33.7574099235       43.5446874114  TIP3      3431            0.0000000000
     32544      3623  TIP3      H1              0.5511322745      -33.5756165746       43.3646578074  TIP3      3431            0.0000000000
     32545      3623  TIP3      H2              1.9075828887      -33.2769393897       42.8033681856  TIP3      3431            0.0000000000
     32546      3624  TIP3      OH2            16.2192851219      -18.7786814069       45.4663250757  TIP3      3432            0.0000000000
     32547      3624  TIP3      H1             16.9030334769      -19.0839683715       44.8436194081  TIP3      3432            0.0000000000
     32548      3624  TIP3      H2             16.7341359494      -18.2798804350       46.1184861563  TIP3      3432            0.0000000000
     32549      3625  TIP3      OH2             1.4392670293      -34.9967752877       51.8278998755  TIP3      3433            0.0000000000
     32550      3625  TIP3      H1              0.7615668976      -35.2411979811       52.4762990758  TIP3      3433            0.0000000000
     32551      3625  TIP3      H2              0.9568283572      -34.4029958342       51.2260115478  TIP3      3433            0.0000000000
     32552      3626  TIP3      OH2             3.5057608419      -22.2667405037       56.0683742604  TIP3      3434            0.0000000000
     32553      3626  TIP3      H1              2.9507571451      -21.6577405225       55.5409948435  TIP3      3434            0.0000000000
     32554      3626  TIP3      H2              3.4180828296      -21.8747801447       56.9378377346  TIP3      3434            0.0000000000
     32555      3627  TIP3      OH2             6.5908142263      -20.8571060914       52.2807498245  TIP3      3435            0.0000000000
     32556      3627  TIP3      H1              6.2083820893      -20.0275601517       51.9624683707  TIP3      3435            0.0000000000
     32557      3627  TIP3      H2              7.4980408670      -20.7713538668       51.9335449785  TIP3      3435            0.0000000000
     32558      3628  TIP3      OH2            10.8320453536      -19.4131501772       55.1863266150  TIP3      3436            0.0000000000
     32559      3628  TIP3      H1             11.0334603749      -19.8106409545       56.0692622761  TIP3      3436            0.0000000000
     32560      3628  TIP3      H2             11.7487925218      -19.1433907972       54.9058959721  TIP3      3436            0.0000000000
     32561      3629  TIP3      OH2            13.1661890862      -18.1908019005       54.4777564048  TIP3      3437            0.0000000000
     32562      3629  TIP3      H1             13.9080387240      -18.7548714292       54.2188545015  TIP3      3437            0.0000000000
     32563      3629  TIP3      H2             13.5661154296      -17.7399965692       55.2544526473  TIP3      3437            0.0000000000
     32564      3630  TIP3      OH2            18.2001323260      -35.5499354722       53.4781794296  TIP3      3438            0.0000000000
     32565      3630  TIP3      H1             17.3574361524      -35.2391661926       53.1065417985  TIP3      3438            0.0000000000
     32566      3630  TIP3      H2             18.3537027893      -36.4008897898       53.0146443461  TIP3      3438            0.0000000000
     32567      3631  TIP3      OH2             4.0200208653      -17.6182883519       52.2504090604  TIP3      3439            0.0000000000
     32568      3631  TIP3      H1              3.2610984623      -17.1522998464       51.8637917587  TIP3      3439            0.0000000000
     32569      3631  TIP3      H2              3.6990006606      -17.8922942741       53.1352501817  TIP3      3439            0.0000000000
     32570      3632  TIP3      OH2             6.4723400996      -18.0423194706       51.3235992667  TIP3      3440            0.0000000000
     32571      3632  TIP3      H1              5.5683927484      -17.9097566625       51.7099780241  TIP3      3440            0.0000000000
     32572      3632  TIP3      H2              6.3957513903      -17.4600203857       50.5497253571  TIP3      3440            0.0000000000
     32573      3633  TIP3      OH2            11.1394029157      -18.1636101068       50.5080271132  TIP3      3441            0.0000000000
     32574      3633  TIP3      H1             10.7280653355      -17.5944145758       49.8390663393  TIP3      3441            0.0000000000
     32575      3633  TIP3      H2             11.3336384206      -17.4950189536       51.2095383177  TIP3      3441            0.0000000000
     32576      3634  TIP3      OH2            13.4626732606      -19.3402174591       51.5130531560  TIP3      3442            0.0000000000
     32577      3634  TIP3      H1             12.6088005023      -19.0612503287       51.1433255071  TIP3      3442            0.0000000000
     32578      3634  TIP3      H2             13.9467207346      -18.5018943316       51.4263984347  TIP3      3442            0.0000000000
     32579      3635  TIP3      OH2            16.0405038818      -17.7548982379       51.7368925438  TIP3      3443            0.0000000000
     32580      3635  TIP3      H1             15.9792215025      -16.7936724017       51.5055282876  TIP3      3443            0.0000000000
     32581      3635  TIP3      H2             16.2551490402      -18.1350652881       50.8613957300  TIP3      3443            0.0000000000
     32582      3636  TIP3      OH2             3.4587790431      -18.9787183212       49.1404718233  TIP3      3444            0.0000000000
     32583      3636  TIP3      H1              3.3640925224      -19.4332378624       50.0098825246  TIP3      3444            0.0000000000
     32584      3636  TIP3      H2              4.2802093988      -19.3784723486       48.7930174598  TIP3      3444            0.0000000000
     32585      3637  TIP3      OH2             5.5339960930      -20.2797813632       47.8375785981  TIP3      3445            0.0000000000
     32586      3637  TIP3      H1              5.3675703702      -21.2123970160       48.0731768003  TIP3      3445            0.0000000000
     32587      3637  TIP3      H2              6.3921105628      -20.1257666664       48.2851942246  TIP3      3445            0.0000000000
     32588      3638  TIP3      OH2             8.1385519489      -19.7918820906       48.7088701094  TIP3      3446            0.0000000000
     32589      3638  TIP3      H1              8.2897586901      -20.7197906891       48.4528222072  TIP3      3446            0.0000000000
     32590      3638  TIP3      H2              8.1808908541      -19.8492573160       49.6707126176  TIP3      3446            0.0000000000
     32591      3639  TIP3      OH2            11.4659372887      -34.0770677410       47.8357372202  TIP3      3447            0.0000000000
     32592      3639  TIP3      H1             10.8843516471      -34.7978374066       48.1205895856  TIP3      3447            0.0000000000
     32593      3639  TIP3      H2             12.1512077696      -34.5712027572       47.3444672559  TIP3      3447            0.0000000000
     32594      3640  TIP3      OH2            16.7294777096      -36.0681678547       47.9511337595  TIP3      3448            0.0000000000
     32595      3640  TIP3      H1             17.3482264559      -35.5154262244       47.4282192658  TIP3      3448            0.0000000000
     32596      3640  TIP3      H2             15.8641376222      -35.7253323285       47.7100045782  TIP3      3448            0.0000000000
     32597      3641  TIP3      OH2            18.4219966893      -34.8126033969       46.2010082668  TIP3      3449            0.0000000000
     32598      3641  TIP3      H1             19.0520435456      -35.4086176146       45.7807580746  TIP3      3449            0.0000000000
     32599      3641  TIP3      H2             18.9283522857      -33.9761098407       46.2876772104  TIP3      3449            0.0000000000
     32600      3642  TIP3      OH2             3.9252532462      -35.4824760317       45.7272329588  TIP3      3450            0.0000000000
     32601      3642  TIP3      H1              3.1580735015      -35.7210277301       45.1873568163  TIP3      3450            0.0000000000
     32602      3642  TIP3      H2              4.4060105768      -36.3300178328       45.7567247452  TIP3      3450            0.0000000000
     32603      3643  TIP3      OH2             2.7548120610      -35.7612827660       41.4436039264  TIP3      3451            0.0000000000
     32604      3643  TIP3      H1              3.1714598620      -35.1115154396       40.8601408084  TIP3      3451            0.0000000000
     32605      3643  TIP3      H2              2.1056457430      -35.2203141787       41.9061252609  TIP3      3451            0.0000000000
     32606      3644  TIP3      OH2             8.4931725774      -35.6613180583       45.4790945800  TIP3      3452            0.0000000000
     32607      3644  TIP3      H1              9.3446215717      -35.1967925452       45.4405781752  TIP3      3452            0.0000000000
     32608      3644  TIP3      H2              8.3930676288      -35.8139180442       46.4246474063  TIP3      3452            0.0000000000
     32609      3645  TIP3      OH2            13.8804431482      -35.2012128252       47.2697322776  TIP3      3453            0.0000000000
     32610      3645  TIP3      H1             14.0220123709      -35.2479531695       46.3199486438  TIP3      3453            0.0000000000
     32611      3645  TIP3      H2             13.7906044264      -36.1772389980       47.4074614464  TIP3      3453            0.0000000000
     32612      3646  TIP3      OH2            15.4195586133      -35.4994105745       42.8319359344  TIP3      3454            0.0000000000
     32613      3646  TIP3      H1             14.6641932970      -34.9357244329       42.6087394675  TIP3      3454            0.0000000000
     32614      3646  TIP3      H2             15.0138532864      -36.3626002031       42.9816700023  TIP3      3454            0.0000000000
     32615      3647  TIP3      OH2             2.6291161080      -19.8093993610       42.4725115921  TIP3      3455            0.0000000000
     32616      3647  TIP3      H1              1.9924899332      -19.8470653005       41.7320818337  TIP3      3455            0.0000000000
     32617      3647  TIP3      H2              2.6389437028      -18.8528043356       42.6022774704  TIP3      3455            0.0000000000
     32618      3648  TIP3      OH2             4.5240229008      -33.8895992507       39.9581475130  TIP3      3456            0.0000000000
     32619      3648  TIP3      H1              5.0974419009      -34.4373823172       39.3925472727  TIP3      3456            0.0000000000
     32620      3648  TIP3      H2              5.1798616177      -33.5066274760       40.5725844660  TIP3      3456            0.0000000000
     32621      3649  TIP3      OH2             9.5023224610      -33.5807792568       42.3890517546  TIP3      3457            0.0000000000
     32622      3649  TIP3      H1              9.8635518704      -34.1466259724       43.0937581678  TIP3      3457            0.0000000000
     32623      3649  TIP3      H2              9.6604382340      -32.7072101540       42.8159039482  TIP3      3457            0.0000000000
     32624      3650  TIP3      OH2            11.5155722082      -18.5037514780       40.7867078215  TIP3      3458            0.0000000000
     32625      3650  TIP3      H1             12.4329246393      -18.2776907072       40.5650955450  TIP3      3458            0.0000000000
     32626      3650  TIP3      H2             11.2955683444      -19.0240670383       39.9856930623  TIP3      3458            0.0000000000
     32627      3651  TIP3      OH2            18.2082992546      -19.0037564099       43.5076894576  TIP3      3459            0.0000000000
     32628      3651  TIP3      H1             18.0194456295      -19.7861542421       42.9354984872  TIP3      3459            0.0000000000
     32629      3651  TIP3      H2             18.1429985992      -18.2687621094       42.8639107444  TIP3      3459            0.0000000000
     32630      3652  TIP3      OH2             3.7436067054      -35.0067499651       55.0446469371  TIP3      3460            0.0000000000
     32631      3652  TIP3      H1              3.4077276897      -35.7391759219       55.5656692131  TIP3      3460            0.0000000000
     32632      3652  TIP3      H2              4.6433065397      -34.9817076298       55.4551973878  TIP3      3460            0.0000000000
     32633      3653  TIP3      OH2             5.5836809811      -35.3748736828       56.6943371270  TIP3      3461            0.0000000000
     32634      3653  TIP3      H1              6.5246936558      -35.5732774537       56.5647315853  TIP3      3461            0.0000000000
     32635      3653  TIP3      H2              5.4163022638      -36.2323796352       57.1345312691  TIP3      3461            0.0000000000
     32636      3654  TIP3      OH2             4.4328051900      -18.8290821156       39.4023311168  TIP3      3462            0.0000000000
     32637      3654  TIP3      H1              4.1780583902      -18.5668545077       40.2977239319  TIP3      3462            0.0000000000
     32638      3654  TIP3      H2              5.2183916768      -19.3914541671       39.5521329395  TIP3      3462            0.0000000000
     32639      3655  TIP3      OH2            14.1662850523       37.0636180014       56.8707672415  TIP3      3463            0.0000000000
     32640      3655  TIP3      H1             14.2174210755       36.5066919651       57.6727169944  TIP3      3463            0.0000000000
     32641      3655  TIP3      H2             15.0554971524       36.8521015511       56.5536145183  TIP3      3463            0.0000000000
     32642      3656  TIP3      OH2            17.4579237205      -20.2545108258       55.5793295989  TIP3      3464            0.0000000000
     32643      3656  TIP3      H1             16.6535791033      -20.3910439835       55.0328712714  TIP3      3464            0.0000000000
     32644      3656  TIP3      H2             17.3413653865      -19.3076117432       55.7963941270  TIP3      3464            0.0000000000
     32645      3657  TIP3      OH2            31.9007343859      -26.3931659500       45.5595272752  TIP3      3465            0.0000000000
     32646      3657  TIP3      H1             31.9049645112      -25.4090033142       45.5362442523  TIP3      3465            0.0000000000
     32647      3657  TIP3      H2             31.1720912115      -26.6136607355       44.9574858762  TIP3      3465            0.0000000000
     32648      3658  TIP3      OH2            30.7322708681      -27.1088217387       49.0578659997  TIP3      3466            0.0000000000
     32649      3658  TIP3      H1             30.7740869754      -27.7563263617       49.7892166251  TIP3      3466            0.0000000000
     32650      3658  TIP3      H2             30.4511255659      -27.6565082204       48.3132635454  TIP3      3466            0.0000000000
     32651      3659  TIP3      OH2            23.0904729673      -27.4303913853       50.6325483687  TIP3      3467            0.0000000000
     32652      3659  TIP3      H1             23.1889070736      -28.1523512657       51.2896492741  TIP3      3467            0.0000000000
     32653      3659  TIP3      H2             23.8648817246      -26.8927208125       50.8452177084  TIP3      3467            0.0000000000
     32654      3660  TIP3      OH2            34.4615400669      -24.2016247183       47.3575324376  TIP3      3468            0.0000000000
     32655      3660  TIP3      H1             34.0440830916      -24.9064804572       47.8639787554  TIP3      3468            0.0000000000
     32656      3660  TIP3      H2             34.4685517682      -23.4732580374       47.9983048229  TIP3      3468            0.0000000000
     32657      3661  TIP3      OH2            24.0358108579      -22.9977001625       49.1124895842  TIP3      3469            0.0000000000
     32658      3661  TIP3      H1             23.7247793614      -23.8679865438       48.7969478617  TIP3      3469            0.0000000000
     32659      3661  TIP3      H2             24.9911382348      -23.1810183013       49.1593142089  TIP3      3469            0.0000000000
     32660      3662  TIP3      OH2            20.6814530698      -29.4522789674       44.6110526433  TIP3      3470            0.0000000000
     32661      3662  TIP3      H1             20.2406564962      -28.5841487283       44.5507524876  TIP3      3470            0.0000000000
     32662      3662  TIP3      H2             20.1142275142      -29.9838280127       44.0358931230  TIP3      3470            0.0000000000
     32663      3663  TIP3      OH2            21.3884871308      -27.1910352552       46.7397810457  TIP3      3471            0.0000000000
     32664      3663  TIP3      H1             21.6470312087      -28.0226367904       47.2002763241  TIP3      3471            0.0000000000
     32665      3663  TIP3      H2             22.0877754045      -27.1080453426       46.0769730443  TIP3      3471            0.0000000000
     32666      3664  TIP3      OH2            31.5702800731      -19.0150595807       47.5743480939  TIP3      3472            0.0000000000
     32667      3664  TIP3      H1             32.2111177255      -19.7145338408       47.2976251582  TIP3      3472            0.0000000000
     32668      3664  TIP3      H2             31.3350861542      -19.3518941205       48.4444283894  TIP3      3472            0.0000000000
     32669      3665  TIP3      OH2            29.1465506725      -24.7219094276       49.5408697376  TIP3      3473            0.0000000000
     32670      3665  TIP3      H1             29.4694890344      -25.3529550170       48.8770358850  TIP3      3473            0.0000000000
     32671      3665  TIP3      H2             29.9617784369      -24.5813598642       50.0558697394  TIP3      3473            0.0000000000
     32672      3666  TIP3      OH2            32.0788065555      -30.3012671418       49.7157797729  TIP3      3474            0.0000000000
     32673      3666  TIP3      H1             32.4809312970      -31.1808035647       49.8537903444  TIP3      3474            0.0000000000
     32674      3666  TIP3      H2             32.2241695593      -30.1274259142       48.7832541844  TIP3      3474            0.0000000000
     32675      3667  TIP3      OH2            25.5006654258      -32.1725359036       47.0105887948  TIP3      3475            0.0000000000
     32676      3667  TIP3      H1             25.5016350538      -31.3093247540       46.5663514746  TIP3      3475            0.0000000000
     32677      3667  TIP3      H2             24.9886216184      -32.7189982482       46.3858845559  TIP3      3475            0.0000000000
     32678      3668  TIP3      OH2            33.1676455006      -32.0511050976       45.4555636176  TIP3      3476            0.0000000000
     32679      3668  TIP3      H1             33.8173650875      -32.3906815836       46.1166196970  TIP3      3476            0.0000000000
     32680      3668  TIP3      H2             33.7531220822      -31.5288153608       44.9000944854  TIP3      3476            0.0000000000
     32681      3669  TIP3      OH2            22.0692465703      -29.7177019266       47.7840085357  TIP3      3477            0.0000000000
     32682      3669  TIP3      H1             22.6666615013      -30.3083840004       48.2968045548  TIP3      3477            0.0000000000
     32683      3669  TIP3      H2             22.1533720971      -30.0968252092       46.9017793067  TIP3      3477            0.0000000000
     32684      3670  TIP3      OH2            27.1842720970      -28.1956819895       47.1160004416  TIP3      3478            0.0000000000
     32685      3670  TIP3      H1             27.8646641711      -28.7763594812       47.5090631693  TIP3      3478            0.0000000000
     32686      3670  TIP3      H2             26.6758033671      -28.8585043572       46.6094798640  TIP3      3478            0.0000000000
     32687      3671  TIP3      OH2            24.3472111169      -33.2167311896       51.0886088292  TIP3      3479            0.0000000000
     32688      3671  TIP3      H1             23.9832104779      -32.6718465994       50.3556312234  TIP3      3479            0.0000000000
     32689      3671  TIP3      H2             23.6282971282      -33.0146675545       51.7359638104  TIP3      3479            0.0000000000
     32690      3672  TIP3      OH2            31.5942469519      -23.8019761361       44.6384560730  TIP3      3480            0.0000000000
     32691      3672  TIP3      H1             31.3406458147      -24.0641971566       43.7486292153  TIP3      3480            0.0000000000
     32692      3672  TIP3      H2             31.2983286574      -22.8639712419       44.7011258698  TIP3      3480            0.0000000000
     32693      3673  TIP3      OH2            26.8346070538      -25.6199240093       51.3370563763  TIP3      3481            0.0000000000
     32694      3673  TIP3      H1             26.1315413720      -24.9768055325       51.5609821828  TIP3      3481            0.0000000000
     32695      3673  TIP3      H2             27.5424845403      -25.0229514016       51.0494911516  TIP3      3481            0.0000000000
     32696      3674  TIP3      OH2            34.6864370949      -32.8430068979       47.5006670586  TIP3      3482            0.0000000000
     32697      3674  TIP3      H1             34.6662506716      -33.5974088653       48.0910052687  TIP3      3482            0.0000000000
     32698      3674  TIP3      H2             35.4015788908      -32.3177887691       47.9300612316  TIP3      3482            0.0000000000
     32699      3675  TIP3      OH2            23.9759014651      -31.3503677797       48.9586664909  TIP3      3483            0.0000000000
     32700      3675  TIP3      H1             24.5599783091      -30.7350429435       49.4415000019  TIP3      3483            0.0000000000
     32701      3675  TIP3      H2             24.5287325490      -31.8377061239       48.3220357999  TIP3      3483            0.0000000000
     32702      3676  TIP3      OH2            25.2864495996      -23.6150287551       52.1633087298  TIP3      3484            0.0000000000
     32703      3676  TIP3      H1             25.2348139701      -22.7039276484       51.8230230423  TIP3      3484            0.0000000000
     32704      3676  TIP3      H2             24.4030829813      -23.6980180122       52.6039044408  TIP3      3484            0.0000000000
     32705      3677  TIP3      OH2            21.3640220522      -24.0091963202       42.9525774730  TIP3      3485            0.0000000000
     32706      3677  TIP3      H1             21.1137722090      -23.6690966685       42.0759680164  TIP3      3485            0.0000000000
     32707      3677  TIP3      H2             21.4433530933      -23.1817948623       43.4682444853  TIP3      3485            0.0000000000
     32708      3678  TIP3      OH2            34.7721183779      -22.4107124044       49.8058378995  TIP3      3486            0.0000000000
     32709      3678  TIP3      H1             33.8152857559      -22.1991395184       49.8481993447  TIP3      3486            0.0000000000
     32710      3678  TIP3      H2             35.1566409027      -21.5663597964       49.5036599854  TIP3      3486            0.0000000000
     32711      3679  TIP3      OH2            35.0737119520      -33.8999777103       50.8473796026  TIP3      3487            0.0000000000
     32712      3679  TIP3      H1             34.3953675538      -33.2166412093       50.9583642847  TIP3      3487            0.0000000000
     32713      3679  TIP3      H2             35.8557243753      -33.4273104689       50.5439069399  TIP3      3487            0.0000000000
     32714      3680  TIP3      OH2            28.2358390221      -35.9263912281       48.3972268079  TIP3      3488            0.0000000000
     32715      3680  TIP3      H1             28.2226825666      -36.8826552273       48.5573313996  TIP3      3488            0.0000000000
     32716      3680  TIP3      H2             27.4477862437      -35.6570741162       48.8940262289  TIP3      3488            0.0000000000
     32717      3681  TIP3      OH2            33.1484238391      -20.6240735891       46.3192935271  TIP3      3489            0.0000000000
     32718      3681  TIP3      H1             33.6375210151      -21.3028052707       45.8113739546  TIP3      3489            0.0000000000
     32719      3681  TIP3      H2             33.5988798808      -19.8223489695       45.9682063177  TIP3      3489            0.0000000000
     32720      3682  TIP3      OH2            34.4298587351      -22.6375352287       44.8226999331  TIP3      3490            0.0000000000
     32721      3682  TIP3      H1             34.1837648489      -23.3493527511       44.2113941663  TIP3      3490            0.0000000000
     32722      3682  TIP3      H2             34.4921102856      -23.1441929409       45.6582466891  TIP3      3490            0.0000000000
     32723      3683  TIP3      OH2            35.8233525962      -23.8734741281       53.4348666444  TIP3      3491            0.0000000000
     32724      3683  TIP3      H1             36.0681944596      -24.5892981782       52.8135949556  TIP3      3491            0.0000000000
     32725      3683  TIP3      H2             36.2185766631      -23.1245055342       52.9639128777  TIP3      3491            0.0000000000
     32726      3684  TIP3      OH2            30.5492267112      -27.1537223788       43.0646245032  TIP3      3492            0.0000000000
     32727      3684  TIP3      H1             29.8612239014      -26.5642734581       42.7114284592  TIP3      3492            0.0000000000
     32728      3684  TIP3      H2             31.2670147257      -27.0439159750       42.4149056274  TIP3      3492            0.0000000000
     32729      3685  TIP3      OH2            30.6369900659      -28.5702683590       40.0860851311  TIP3      3493            0.0000000000
     32730      3685  TIP3      H1             31.3562459935      -28.5870580660       40.7375649103  TIP3      3493            0.0000000000
     32731      3685  TIP3      H2             30.9407235602      -29.2888097867       39.5150439055  TIP3      3493            0.0000000000
     32732      3686  TIP3      OH2            33.9699984091      -26.9286920316       43.9589803203  TIP3      3494            0.0000000000
     32733      3686  TIP3      H1             33.2516648039      -26.6728499990       44.5841779840  TIP3      3494            0.0000000000
     32734      3686  TIP3      H2             34.4597029751      -27.5611329479       44.5291241247  TIP3      3494            0.0000000000
     32735      3687  TIP3      OH2            33.9958054877      -27.5360729954       52.9506116186  TIP3      3495            0.0000000000
     32736      3687  TIP3      H1             33.8905651199      -27.9294310081       53.8160671777  TIP3      3495            0.0000000000
     32737      3687  TIP3      H2             33.4995829751      -28.2300752230       52.4600211561  TIP3      3495            0.0000000000
     32738      3688  TIP3      OH2            25.6162517621      -26.2745603176       45.9159498359  TIP3      3496            0.0000000000
     32739      3688  TIP3      H1             25.2974468998      -26.6626308118       45.0655302734  TIP3      3496            0.0000000000
     32740      3688  TIP3      H2             26.2323437581      -26.9648016587       46.2491791611  TIP3      3496            0.0000000000
     32741      3689  TIP3      OH2            26.9358035365      -22.8895589373       48.5948762010  TIP3      3497            0.0000000000
     32742      3689  TIP3      H1             26.9326697453      -23.4114299413       47.7833813449  TIP3      3497            0.0000000000
     32743      3689  TIP3      H2             27.7199728614      -23.2433457753       49.0534501087  TIP3      3497            0.0000000000
     32744      3690  TIP3      OH2            25.9608257546      -27.5031125892       49.5676697011  TIP3      3498            0.0000000000
     32745      3690  TIP3      H1             26.5172381305      -27.4148662430       48.7691537153  TIP3      3498            0.0000000000
     32746      3690  TIP3      H2             26.3537493399      -26.8487708835       50.1864172860  TIP3      3498            0.0000000000
     32747      3691  TIP3      OH2            32.2855149032      -21.9423588690       50.2690943419  TIP3      3499            0.0000000000
     32748      3691  TIP3      H1             32.0900239901      -21.3142181040       50.9685853596  TIP3      3499            0.0000000000
     32749      3691  TIP3      H2             32.1146892778      -22.8117964176       50.7056515324  TIP3      3499            0.0000000000
     32750      3692  TIP3      OH2            26.9006673035      -23.0928383982       54.2724752819  TIP3      3500            0.0000000000
     32751      3692  TIP3      H1             26.4852193001      -22.3542229033       54.7623395109  TIP3      3500            0.0000000000
     32752      3692  TIP3      H2             26.2286316033      -23.2936701686       53.5749382392  TIP3      3500            0.0000000000
     32753      3693  TIP3      OH2            32.8728407674      -27.7498184994       41.6713412227  TIP3      3501            0.0000000000
     32754      3693  TIP3      H1             33.4268549022      -27.5310939483       42.4621582239  TIP3      3501            0.0000000000
     32755      3693  TIP3      H2             33.2748715230      -27.2211290557       40.9527448825  TIP3      3501            0.0000000000
     32756      3694  TIP3      OH2            23.8590110983      -26.9028310898       53.4290865768  TIP3      3502            0.0000000000
     32757      3694  TIP3      H1             23.8885572725      -26.2456616244       54.1476662455  TIP3      3502            0.0000000000
     32758      3694  TIP3      H2             22.9135244936      -26.8634512553       53.2111153171  TIP3      3502            0.0000000000
     32759      3695  TIP3      OH2            30.5868370429      -21.0065153533       45.1255469968  TIP3      3503            0.0000000000
     32760      3695  TIP3      H1             31.0190748894      -20.7083497724       45.9371500777  TIP3      3503            0.0000000000
     32761      3695  TIP3      H2             30.0284866285      -20.2575812376       44.8940885012  TIP3      3503            0.0000000000
     32762      3696  TIP3      OH2            25.1472078204      -21.0594775795       55.0187085200  TIP3      3504            0.0000000000
     32763      3696  TIP3      H1             25.0858851843      -21.1583002340       54.0531395564  TIP3      3504            0.0000000000
     32764      3696  TIP3      H2             24.2174260567      -21.1931856391       55.2864649266  TIP3      3504            0.0000000000
     32765      3697  TIP3      OH2            24.5758882943      -27.2522380747       43.5460721184  TIP3      3505            0.0000000000
     32766      3697  TIP3      H1             24.2998304160      -26.4683166691       43.0255600079  TIP3      3505            0.0000000000
     32767      3697  TIP3      H2             23.9321740045      -27.9180600641       43.2975702515  TIP3      3505            0.0000000000
     32768      3698  TIP3      OH2            20.6766371848      -24.8118048344       52.4379453129  TIP3      3506            0.0000000000
     32769      3698  TIP3      H1             20.2345521492      -24.8942087902       51.5711089486  TIP3      3506            0.0000000000
     32770      3698  TIP3      H2             20.7629123441      -25.7659695320       52.6400094480  TIP3      3506            0.0000000000
     32771      3699  TIP3      OH2            20.4377233025      -22.0844087134       49.2042304907  TIP3      3507            0.0000000000
     32772      3699  TIP3      H1             21.3961347574      -22.1999091077       49.1847760059  TIP3      3507            0.0000000000
     32773      3699  TIP3      H2             20.3550849752      -21.2662006103       49.7084688537  TIP3      3507            0.0000000000
     32774      3700  TIP3      OH2            29.6352223318      -21.8401843840       53.7560720479  TIP3      3508            0.0000000000
     32775      3700  TIP3      H1             29.7027108461      -21.0008539492       54.2709218771  TIP3      3508            0.0000000000
     32776      3700  TIP3      H2             28.7619888140      -22.1994521266       54.0075801921  TIP3      3508            0.0000000000
     32777      3701  TIP3      OH2            30.1140461032      -18.0930751851       43.5519568023  TIP3      3509            0.0000000000
     32778      3701  TIP3      H1             29.9797687561      -18.1761731888       42.5891689218  TIP3      3509            0.0000000000
     32779      3701  TIP3      H2             30.0952536860      -17.1297845224       43.6992801576  TIP3      3509            0.0000000000
     32780      3702  TIP3      OH2            23.7128207566      -19.2180879367       45.3699810526  TIP3      3510            0.0000000000
     32781      3702  TIP3      H1             23.8590941249      -19.6328226182       46.2470700522  TIP3      3510            0.0000000000
     32782      3702  TIP3      H2             22.8649479161      -19.6281440452       45.1306238945  TIP3      3510            0.0000000000
     32783      3703  TIP3      OH2            33.1484019797      -18.8729700428       40.5155936463  TIP3      3511            0.0000000000
     32784      3703  TIP3      H1             33.5784439596      -19.6435224790       40.0785540758  TIP3      3511            0.0000000000
     32785      3703  TIP3      H2             33.1659254033      -19.1446109988       41.4554676557  TIP3      3511            0.0000000000
     32786      3704  TIP3      OH2            32.8062582828      -18.9661766893       43.3163464839  TIP3      3512            0.0000000000
     32787      3704  TIP3      H1             31.8432768854      -18.8766942489       43.4844629920  TIP3      3512            0.0000000000
     32788      3704  TIP3      H2             33.0370026555      -19.7072748218       43.8948268477  TIP3      3512            0.0000000000
     32789      3705  TIP3      OH2            35.3156957938      -29.7378090709       55.3909788707  TIP3      3513            0.0000000000
     32790      3705  TIP3      H1             35.3162110708      -29.3964707513       54.4975203587  TIP3      3513            0.0000000000
     32791      3705  TIP3      H2             35.8576305810      -30.5599247895       55.2392411525  TIP3      3513            0.0000000000
     32792      3706  TIP3      OH2            22.9649590788      -23.5026123075       53.3693176452  TIP3      3514            0.0000000000
     32793      3706  TIP3      H1             23.1851344434      -23.8686221003       54.2501001595  TIP3      3514            0.0000000000
     32794      3706  TIP3      H2             22.0950619189      -23.9006390927       53.1559533726  TIP3      3514            0.0000000000
     32795      3707  TIP3      OH2            25.6281249648      -35.0693468462       49.3493314711  TIP3      3515            0.0000000000
     32796      3707  TIP3      H1             24.7302892025      -35.1174227797       48.9601116241  TIP3      3515            0.0000000000
     32797      3707  TIP3      H2             25.5048314618      -34.2130293429       49.7974984024  TIP3      3515            0.0000000000
     32798      3708  TIP3      OH2            30.2605016966      -35.3397233726       52.7328458663  TIP3      3516            0.0000000000
     32799      3708  TIP3      H1             30.6884472189      -35.7560624742       53.4804889935  TIP3      3516            0.0000000000
     32800      3708  TIP3      H2             29.3072394679      -35.4542859368       52.8924466932  TIP3      3516            0.0000000000
     32801      3709  TIP3      OH2            33.4547072029      -32.1896501109       53.9828114766  TIP3      3517            0.0000000000
     32802      3709  TIP3      H1             32.8540677868      -31.8912731153       54.6827302222  TIP3      3517            0.0000000000
     32803      3709  TIP3      H2             33.4205250568      -31.3483612120       53.4679327016  TIP3      3517            0.0000000000
     32804      3710  TIP3      OH2            34.3757350244      -26.7900768498       39.4808640592  TIP3      3518            0.0000000000
     32805      3710  TIP3      H1             34.3037988839      -26.9440815687       38.5113733802  TIP3      3518            0.0000000000
     32806      3710  TIP3      H2             35.1466491116      -26.2230384039       39.5084028048  TIP3      3518            0.0000000000
     32807      3711  TIP3      OH2            29.9395551090      -32.7855208361       40.0034272728  TIP3      3519            0.0000000000
     32808      3711  TIP3      H1             29.6055120176      -32.8542937626       40.9104406740  TIP3      3519            0.0000000000
     32809      3711  TIP3      H2             29.6136243514      -33.6504019079       39.6883982709  TIP3      3519            0.0000000000
     32810      3712  TIP3      OH2            25.7321046117      -30.0505299025       50.5793263138  TIP3      3520            0.0000000000
     32811      3712  TIP3      H1             24.9760265092      -30.0804378830       51.2019631603  TIP3      3520            0.0000000000
     32812      3712  TIP3      H2             25.6686114747      -29.1498772420       50.1990610621  TIP3      3520            0.0000000000
     32813      3713  TIP3      OH2            25.7040377053      -29.9319988569       45.4278411140  TIP3      3521            0.0000000000
     32814      3713  TIP3      H1             24.7651545780      -30.1797094118       45.3014336672  TIP3      3521            0.0000000000
     32815      3713  TIP3      H2             26.0827614627      -30.2326546929       44.5800138773  TIP3      3521            0.0000000000
     32816      3714  TIP3      OH2            31.2478770101      -29.4197884621       44.2112660219  TIP3      3522            0.0000000000
     32817      3714  TIP3      H1             30.8338985092      -28.6081947526       43.8375222855  TIP3      3522            0.0000000000
     32818      3714  TIP3      H2             31.9272942942      -29.5961479276       43.5443077926  TIP3      3522            0.0000000000
     32819      3715  TIP3      OH2            30.2781644064      -29.2016938550       55.6783831905  TIP3      3523            0.0000000000
     32820      3715  TIP3      H1             29.7814117138      -30.0112780178       55.9402252556  TIP3      3523            0.0000000000
     32821      3715  TIP3      H2             31.1412532896      -29.3518566629       56.0995384201  TIP3      3523            0.0000000000
     32822      3716  TIP3      OH2            32.2293799523      -29.9116579521       47.0408764252  TIP3      3524            0.0000000000
     32823      3716  TIP3      H1             31.9889302115      -29.3813616979       46.2673520767  TIP3      3524            0.0000000000
     32824      3716  TIP3      H2             32.3546267220      -30.7837044882       46.6193545562  TIP3      3524            0.0000000000
     32825      3717  TIP3      OH2            23.5829104439      -29.7535659561       52.3771166174  TIP3      3525            0.0000000000
     32826      3717  TIP3      H1             23.4079327889      -29.3787105529       53.2414681328  TIP3      3525            0.0000000000
     32827      3717  TIP3      H2             22.9463108414      -30.5113675992       52.3384127502  TIP3      3525            0.0000000000
     32828      3718  TIP3      OH2            26.7343915636      -32.3872432422       39.1199917549  TIP3      3526            0.0000000000
     32829      3718  TIP3      H1             26.2705262800      -32.8285273834       39.8573767843  TIP3      3526            0.0000000000
     32830      3718  TIP3      H2             26.0283326690      -31.9961788404       38.5918209328  TIP3      3526            0.0000000000
     32831      3719  TIP3      OH2            20.0179495633      -32.6705642834       46.2035686030  TIP3      3527            0.0000000000
     32832      3719  TIP3      H1             20.6874404949      -32.6814824109       46.9310001460  TIP3      3527            0.0000000000
     32833      3719  TIP3      H2             20.4974301343      -33.0589147960       45.4583901141  TIP3      3527            0.0000000000
     32834      3720  TIP3      OH2            21.2908682998      -31.9584909043       41.6182443721  TIP3      3528            0.0000000000
     32835      3720  TIP3      H1             21.8035849495      -31.3738331768       41.0279517958  TIP3      3528            0.0000000000
     32836      3720  TIP3      H2             20.5975095410      -31.3358118918       41.9110707394  TIP3      3528            0.0000000000
     32837      3721  TIP3      OH2            31.3007592815      -28.3503431619       51.4973188294  TIP3      3529            0.0000000000
     32838      3721  TIP3      H1             31.8847711340      -29.0247951734       51.0765691345  TIP3      3529            0.0000000000
     32839      3721  TIP3      H2             31.0344575974      -28.8690348667       52.2752334124  TIP3      3529            0.0000000000
     32840      3722  TIP3      OH2            28.2670868337      -32.3947189020       46.4225765073  TIP3      3530            0.0000000000
     32841      3722  TIP3      H1             27.3317492584      -32.3860054036       46.7360888093  TIP3      3530            0.0000000000
     32842      3722  TIP3      H2             28.7677395174      -32.5362831420       47.2460337210  TIP3      3530            0.0000000000
     32843      3723  TIP3      OH2            23.0927179998      -30.8196921999       45.2636503657  TIP3      3531            0.0000000000
     32844      3723  TIP3      H1             22.1800194152      -30.6900014280       44.9344328660  TIP3      3531            0.0000000000
     32845      3723  TIP3      H2             23.3652684649      -31.6699265959       44.8841413770  TIP3      3531            0.0000000000
     32846      3724  TIP3      OH2            26.7089676310      -30.7921517924       42.9346224600  TIP3      3532            0.0000000000
     32847      3724  TIP3      H1             27.6655066823      -30.6851461864       43.0978218100  TIP3      3532            0.0000000000
     32848      3724  TIP3      H2             26.4746540186      -30.0980396342       42.2885303294  TIP3      3532            0.0000000000
     32849      3725  TIP3      OH2            32.5983314400      -33.1803197155       49.6951904330  TIP3      3533            0.0000000000
     32850      3725  TIP3      H1             31.9262191889      -33.0730291204       50.3913564509  TIP3      3533            0.0000000000
     32851      3725  TIP3      H2             32.1035107917      -33.3995120252       48.8971269617  TIP3      3533            0.0000000000
     32852      3726  TIP3      OH2            25.4182669187      -29.6091594623       40.5232302528  TIP3      3534            0.0000000000
     32853      3726  TIP3      H1             24.8853921293      -29.9887094591       39.8041358671  TIP3      3534            0.0000000000
     32854      3726  TIP3      H2             26.2395445207      -29.4034870835       40.0500396806  TIP3      3534            0.0000000000
     32855      3727  TIP3      OH2            35.7290564155      -17.3122508591       55.8664259323  TIP3      3535            0.0000000000
     32856      3727  TIP3      H1             36.2310961097      -17.0799392162       55.0844348869  TIP3      3535            0.0000000000
     32857      3727  TIP3      H2             36.4220499200      -17.2897615324       56.5714487736  TIP3      3535            0.0000000000
     32858      3728  TIP3      OH2            23.5406537395      -25.0372653952       55.5791965521  TIP3      3536            0.0000000000
     32859      3728  TIP3      H1             24.2630366225      -24.7934900448       56.1811111805  TIP3      3536            0.0000000000
     32860      3728  TIP3      H2             22.7691271240      -24.9573511230       56.1815719690  TIP3      3536            0.0000000000
     32861      3729  TIP3      OH2            29.5027464407      -29.6537748889       48.2995358044  TIP3      3537            0.0000000000
     32862      3729  TIP3      H1             30.1853892323      -30.1604823766       47.8422595431  TIP3      3537            0.0000000000
     32863      3729  TIP3      H2             29.4282752444      -30.1502574951       49.1298345000  TIP3      3537            0.0000000000
     32864      3730  TIP3      OH2            24.5330172381      -33.4537772588       44.7703298185  TIP3      3538            0.0000000000
     32865      3730  TIP3      H1             24.2252668660      -34.3747406712       44.7943882133  TIP3      3538            0.0000000000
     32866      3730  TIP3      H2             25.3187592746      -33.5379827616       44.2175732882  TIP3      3538            0.0000000000
     32867      3731  TIP3      OH2            28.1538249290      -31.2680640915       50.7365754617  TIP3      3539            0.0000000000
     32868      3731  TIP3      H1             27.3202320107      -30.7647923890       50.8467205094  TIP3      3539            0.0000000000
     32869      3731  TIP3      H2             28.7281598358      -30.9451605894       51.4599392041  TIP3      3539            0.0000000000
     32870      3732  TIP3      OH2            28.7696617059      -25.0775170993       42.4456910129  TIP3      3540            0.0000000000
     32871      3732  TIP3      H1             27.9699537875      -25.5439022305       42.1103900618  TIP3      3540            0.0000000000
     32872      3732  TIP3      H2             28.5445366477      -24.9533150824       43.3901878048  TIP3      3540            0.0000000000
     32873      3733  TIP3      OH2            35.6441702168      -25.8014329467       51.2245680962  TIP3      3541            0.0000000000
     32874      3733  TIP3      H1             36.3620845098      -25.7194490875       50.5600562057  TIP3      3541            0.0000000000
     32875      3733  TIP3      H2             34.8628044796      -25.8870683809       50.6511095704  TIP3      3541            0.0000000000
     32876      3734  TIP3      OH2            32.6294683592      -32.2350973514       40.6220003783  TIP3      3542            0.0000000000
     32877      3734  TIP3      H1             31.6695905001      -32.1293085119       40.4669590455  TIP3      3542            0.0000000000
     32878      3734  TIP3      H2             32.9068521321      -31.3755808692       40.9915787525  TIP3      3542            0.0000000000
     32879      3735  TIP3      OH2            30.2677609446      -24.8147727286       53.6858645474  TIP3      3543            0.0000000000
     32880      3735  TIP3      H1             29.9101931070      -25.2279093787       54.4777757155  TIP3      3543            0.0000000000
     32881      3735  TIP3      H2             30.0668121340      -23.8821830349       53.7961346367  TIP3      3543            0.0000000000
     32882      3736  TIP3      OH2            33.3322871403      -30.3217502424       42.2219609889  TIP3      3544            0.0000000000
     32883      3736  TIP3      H1             34.2018923448      -30.4650326057       42.6514645038  TIP3      3544            0.0000000000
     32884      3736  TIP3      H2             33.4368847448      -29.4857597850       41.7379849231  TIP3      3544            0.0000000000
     32885      3737  TIP3      OH2            23.8823112413      -25.6895649673       48.2526496725  TIP3      3545            0.0000000000
     32886      3737  TIP3      H1             24.5590011880      -25.7705465419       47.5506152027  TIP3      3545            0.0000000000
     32887      3737  TIP3      H2             23.9284305421      -26.5550523741       48.7025759118  TIP3      3545            0.0000000000
     32888      3738  TIP3      OH2            30.8449691464      -23.6083885485       41.4765462815  TIP3      3546            0.0000000000
     32889      3738  TIP3      H1             30.5199275605      -22.7581446888       41.8409456767  TIP3      3546            0.0000000000
     32890      3738  TIP3      H2             30.1199380532      -24.2269848107       41.7051418491  TIP3      3546            0.0000000000
     32891      3739  TIP3      OH2            20.8486659123      -27.2631858394       53.5286357664  TIP3      3547            0.0000000000
     32892      3739  TIP3      H1             21.0458383949      -27.7407644902       54.3544943394  TIP3      3547            0.0000000000
     32893      3739  TIP3      H2             20.2750184287      -27.8978252526       53.0537468904  TIP3      3547            0.0000000000
     32894      3740  TIP3      OH2            27.8991506833      -27.7045311737       55.6895189648  TIP3      3548            0.0000000000
     32895      3740  TIP3      H1             27.5617974374      -28.0274081108       54.8363194854  TIP3      3548            0.0000000000
     32896      3740  TIP3      H2             28.8152279198      -28.0464628326       55.6820965382  TIP3      3548            0.0000000000
     32897      3741  TIP3      OH2            32.5684629038      -22.3615201120       53.6166043518  TIP3      3549            0.0000000000
     32898      3741  TIP3      H1             31.6390473268      -22.2260541675       53.3993383551  TIP3      3549            0.0000000000
     32899      3741  TIP3      H2             32.5429346328      -22.1098674802       54.5603048554  TIP3      3549            0.0000000000
     32900      3742  TIP3      OH2            33.6773967669      -26.5259906216       49.4380827063  TIP3      3550            0.0000000000
     32901      3742  TIP3      H1             32.7524645693      -26.8207935932       49.4392083480  TIP3      3550            0.0000000000
     32902      3742  TIP3      H2             34.1518882502      -27.3240376980       49.1526647752  TIP3      3550            0.0000000000
     32903      3743  TIP3      OH2            26.2558045867      -22.2252376388       45.6306843598  TIP3      3551            0.0000000000
     32904      3743  TIP3      H1             26.7525470315      -21.4186291527       45.4238694178  TIP3      3551            0.0000000000
     32905      3743  TIP3      H2             25.3757519975      -21.9967367087       45.3002699225  TIP3      3551            0.0000000000
     32906      3744  TIP3      OH2            22.0197332176      -27.3884763874       40.2006984524  TIP3      3552            0.0000000000
     32907      3744  TIP3      H1             22.5989483105      -26.7238875137       40.6122769605  TIP3      3552            0.0000000000
     32908      3744  TIP3      H2             21.1293819926      -27.0761609222       40.4499234966  TIP3      3552            0.0000000000
     32909      3745  TIP3      OH2            27.6657419750      -24.5592621809       45.1409114856  TIP3      3553            0.0000000000
     32910      3745  TIP3      H1             27.3506619256      -23.6412261606       45.2413258571  TIP3      3553            0.0000000000
     32911      3745  TIP3      H2             26.9528285832      -25.0559933982       45.5906713342  TIP3      3553            0.0000000000
     32912      3746  TIP3      OH2            28.1168699707      -20.3777647206       51.5608453635  TIP3      3554            0.0000000000
     32913      3746  TIP3      H1             28.5794117028      -19.5741635792       51.2728752439  TIP3      3554            0.0000000000
     32914      3746  TIP3      H2             28.7299909219      -20.7195319208       52.2363594336  TIP3      3554            0.0000000000
     32915      3747  TIP3      OH2            26.3458192314      -19.5740197172       44.6726957514  TIP3      3555            0.0000000000
     32916      3747  TIP3      H1             25.3823772404      -19.4312768897       44.8078213588  TIP3      3555            0.0000000000
     32917      3747  TIP3      H2             26.7101697027      -18.7370834958       45.0176813880  TIP3      3555            0.0000000000
     32918      3748  TIP3      OH2            31.6651889560      -24.3967823213       51.1786397861  TIP3      3556            0.0000000000
     32919      3748  TIP3      H1             31.3215164453      -24.5772326545       52.0786320400  TIP3      3556            0.0000000000
     32920      3748  TIP3      H2             32.2915343608      -25.1236785944       51.0240491849  TIP3      3556            0.0000000000
     32921      3749  TIP3      OH2            33.9585751408      -23.3278817292       40.2587988148  TIP3      3557            0.0000000000
     32922      3749  TIP3      H1             34.2819541774      -23.7593087644       41.0743905860  TIP3      3557            0.0000000000
     32923      3749  TIP3      H2             33.0084675064      -23.4985484978       40.3487335792  TIP3      3557            0.0000000000
     32924      3750  TIP3      OH2            34.4379547108      -19.8374635183       53.6352304170  TIP3      3558            0.0000000000
     32925      3750  TIP3      H1             33.7203720760      -20.2984072793       53.1566945471  TIP3      3558            0.0000000000
     32926      3750  TIP3      H2             34.6718242625      -19.1071253182       53.0224130453  TIP3      3558            0.0000000000
     32927      3751  TIP3      OH2            22.5665385279      -32.5881647246       53.3511612244  TIP3      3559            0.0000000000
     32928      3751  TIP3      H1             21.7517665353      -32.2158367185       52.9342581984  TIP3      3559            0.0000000000
     32929      3751  TIP3      H2             22.3487483474      -33.5176124639       53.4889529933  TIP3      3559            0.0000000000
     32930      3752  TIP3      OH2            34.7583817388      -24.7212059788       42.4865775745  TIP3      3560            0.0000000000
     32931      3752  TIP3      H1             34.5332205277      -25.4871886914       43.0611734831  TIP3      3560            0.0000000000
     32932      3752  TIP3      H2             35.6963416655      -24.5990727501       42.7134146429  TIP3      3560            0.0000000000
     32933      3753  TIP3      OH2            22.1310097901      -20.7634283478       51.4821825995  TIP3      3561            0.0000000000
     32934      3753  TIP3      H1             22.4368483133      -21.6834691971       51.4895668049  TIP3      3561            0.0000000000
     32935      3753  TIP3      H2             22.3944480435      -20.4707203792       52.3621657590  TIP3      3561            0.0000000000
     32936      3754  TIP3      OH2            28.1085280171      -22.2331504222       38.7625154329  TIP3      3562            0.0000000000
     32937      3754  TIP3      H1             28.2105541580      -22.9985137648       38.1744074134  TIP3      3562            0.0000000000
     32938      3754  TIP3      H2             27.6661491363      -22.6639755046       39.5263878450  TIP3      3562            0.0000000000
     32939      3755  TIP3      OH2            26.8793275914      -22.7066108042       41.2142958465  TIP3      3563            0.0000000000
     32940      3755  TIP3      H1             27.1505743573      -23.2217576364       41.9837273628  TIP3      3563            0.0000000000
     32941      3755  TIP3      H2             26.9719470448      -21.7803197336       41.5373327793  TIP3      3563            0.0000000000
     32942      3756  TIP3      OH2            23.4239534123      -25.4612974428       41.6997797802  TIP3      3564            0.0000000000
     32943      3756  TIP3      H1             22.7086863847      -25.0654906349       42.2372575362  TIP3      3564            0.0000000000
     32944      3756  TIP3      H2             23.9282137671      -24.6809209276       41.4055504823  TIP3      3564            0.0000000000
     32945      3757  TIP3      OH2            31.2265170075      -32.7821725141       52.0360276596  TIP3      3565            0.0000000000
     32946      3757  TIP3      H1             32.0083922019      -32.7070279874       52.6056542074  TIP3      3565            0.0000000000
     32947      3757  TIP3      H2             30.8958716359      -33.6798630587       52.2085958074  TIP3      3565            0.0000000000
     32948      3758  TIP3      OH2            32.0685355033      -33.2129611914       43.1186461307  TIP3      3566            0.0000000000
     32949      3758  TIP3      H1             32.2344426443      -32.7420800609       42.2767637975  TIP3      3566            0.0000000000
     32950      3758  TIP3      H2             32.5823039502      -32.6931705330       43.7526963217  TIP3      3566            0.0000000000
     32951      3759  TIP3      OH2            29.6848080052      -21.0431119211       41.9092351761  TIP3      3567            0.0000000000
     32952      3759  TIP3      H1             28.8671599824      -20.5114856889       41.9808534744  TIP3      3567            0.0000000000
     32953      3759  TIP3      H2             30.2242218391      -20.4931516648       41.3230113910  TIP3      3567            0.0000000000
     32954      3760  TIP3      OH2            29.2418050211      -31.4817002771       43.9369032254  TIP3      3568            0.0000000000
     32955      3760  TIP3      H1             30.0012233762      -30.8699120552       43.9661343352  TIP3      3568            0.0000000000
     32956      3760  TIP3      H2             28.9839701152      -31.5586919068       44.8781720732  TIP3      3568            0.0000000000
     32957      3761  TIP3      OH2            29.7618116671      -30.4684828221       53.1362908602  TIP3      3569            0.0000000000
     32958      3761  TIP3      H1             29.9012031309      -29.8704761631       53.8927480240  TIP3      3569            0.0000000000
     32959      3761  TIP3      H2             30.4766618036      -31.1210348118       53.1735965184  TIP3      3569            0.0000000000
     32960      3762  TIP3      OH2            30.0647251803      -34.3839434389       44.8422926852  TIP3      3570            0.0000000000
     32961      3762  TIP3      H1             29.7660780052      -33.7096214128       45.4777344905  TIP3      3570            0.0000000000
     32962      3762  TIP3      H2             30.7468884823      -33.8582241763       44.3628148786  TIP3      3570            0.0000000000
     32963      3763  TIP3      OH2            27.0787894959      -20.0105498475       41.9377743782  TIP3      3571            0.0000000000
     32964      3763  TIP3      H1             27.1782585326      -19.1956624505       41.3884318496  TIP3      3571            0.0000000000
     32965      3763  TIP3      H2             26.8118204665      -19.6455394915       42.8095956360  TIP3      3571            0.0000000000
     32966      3764  TIP3      OH2            25.7164994028      -33.2982115135       41.5026815331  TIP3      3572            0.0000000000
     32967      3764  TIP3      H1             25.6623842441      -32.4035791343       41.8933965077  TIP3      3572            0.0000000000
     32968      3764  TIP3      H2             26.6397368967      -33.4991162261       41.7549164802  TIP3      3572            0.0000000000
     32969      3765  TIP3      OH2            35.9359484483      -32.7381080843       53.7885789629  TIP3      3573            0.0000000000
     32970      3765  TIP3      H1             35.0356781932      -32.3138040423       53.8090265163  TIP3      3573            0.0000000000
     32971      3765  TIP3      H2             36.2280727837      -32.5286234859       52.9075388071  TIP3      3573            0.0000000000
     32972      3766  TIP3      OH2            34.5862749963      -28.7755931212       47.9587215514  TIP3      3574            0.0000000000
     32973      3766  TIP3      H1             33.7374501161      -29.1987229268       47.7267891154  TIP3      3574            0.0000000000
     32974      3766  TIP3      H2             34.9866206896      -29.4577995617       48.5090392821  TIP3      3574            0.0000000000
     32975      3767  TIP3      OH2            23.9636928761      -22.8467449517       40.5597277519  TIP3      3575            0.0000000000
     32976      3767  TIP3      H1             24.6298186910      -22.2196021789       40.8806211001  TIP3      3575            0.0000000000
     32977      3767  TIP3      H2             24.4852807691      -23.3106458063       39.8738528744  TIP3      3575            0.0000000000
     32978      3768  TIP3      OH2            22.3029917853      -30.1614334280       39.7151123905  TIP3      3576            0.0000000000
     32979      3768  TIP3      H1             22.3211959143      -29.2072181386       39.9219181470  TIP3      3576            0.0000000000
     32980      3768  TIP3      H2             21.4171493403      -30.3426348343       39.3961383058  TIP3      3576            0.0000000000
     32981      3769  TIP3      OH2            35.6977071697      -19.4764883114       49.6351878542  TIP3      3577            0.0000000000
     32982      3769  TIP3      H1             35.5446686312      -18.8120634103       48.9356838427  TIP3      3577            0.0000000000
     32983      3769  TIP3      H2             36.6425724713      -19.3953679635       49.8006509753  TIP3      3577            0.0000000000
     32984      3770  TIP3      OH2            22.9077543654      -35.2429054414       48.5055010301  TIP3      3578            0.0000000000
     32985      3770  TIP3      H1             22.9391386109      -35.3156939267       47.5253334925  TIP3      3578            0.0000000000
     32986      3770  TIP3      H2             22.7291840579      -36.1555863171       48.7289549468  TIP3      3578            0.0000000000
     32987      3771  TIP3      OH2            22.0821275114      -21.4665101306       44.5946359915  TIP3      3579            0.0000000000
     32988      3771  TIP3      H1             21.2288817933      -21.0170221563       44.5475595291  TIP3      3579            0.0000000000
     32989      3771  TIP3      H2             22.5581200467      -21.0021083170       43.8930654949  TIP3      3579            0.0000000000
     32990      3772  TIP3      OH2            21.2841358651      -18.8151975903       55.8736454355  TIP3      3580            0.0000000000
     32991      3772  TIP3      H1             21.8906378920      -19.0157553852       56.6139490842  TIP3      3580            0.0000000000
     32992      3772  TIP3      H2             20.8862026518      -19.6851205768       55.6933536168  TIP3      3580            0.0000000000
     32993      3773  TIP3      OH2            25.9677028708      -19.8965012913       57.4821010754  TIP3      3581            0.0000000000
     32994      3773  TIP3      H1             26.7245795473      -20.3964190118       57.8161086947  TIP3      3581            0.0000000000
     32995      3773  TIP3      H2             25.9415049331      -20.1759370731       56.5464988462  TIP3      3581            0.0000000000
     32996      3774  TIP3      OH2            30.1154493313      -20.3846286129       38.8730727135  TIP3      3582            0.0000000000
     32997      3774  TIP3      H1             29.4169835030      -21.0366642831       39.1103926178  TIP3      3582            0.0000000000
     32998      3774  TIP3      H2             30.8317740781      -20.9887282269       38.6391913124  TIP3      3582            0.0000000000
     32999      3775  TIP3      OH2            32.4974683747      -21.5418198297       56.2105526143  TIP3      3583            0.0000000000
     33000      3775  TIP3      H1             32.1844604028      -22.4058054394       56.5283192227  TIP3      3583            0.0000000000
     33001      3775  TIP3      H2             33.2715727839      -21.3980443829       56.8167297621  TIP3      3583            0.0000000000
     33002      3776  TIP3      OH2            34.6338246429      -20.6214856404       39.1215342076  TIP3      3584            0.0000000000
     33003      3776  TIP3      H1             34.9408163834      -21.4222117228       39.5731650462  TIP3      3584            0.0000000000
     33004      3776  TIP3      H2             35.3814740636      -20.4403035230       38.5219992396  TIP3      3584            0.0000000000
     33005      3777  TIP3      OH2            21.1958033699      -25.0437756142       56.8720658461  TIP3      3585            0.0000000000
     33006      3777  TIP3      H1             21.3616322807      -25.9551510748       56.5692790464  TIP3      3585            0.0000000000
     33007      3777  TIP3      H2             20.4567482838      -24.7853552754       56.2967327086  TIP3      3585            0.0000000000
     33008      3778  TIP3      OH2            25.5434939257      -24.7014249082       38.8885670800  TIP3      3586            0.0000000000
     33009      3778  TIP3      H1             25.6885314090      -25.4593812815       39.4772566718  TIP3      3586            0.0000000000
     33010      3778  TIP3      H2             26.2949494303      -24.8171325908       38.2753976890  TIP3      3586            0.0000000000
     33011      3779  TIP3      OH2            27.9139242992      -25.0521136389       56.2566200946  TIP3      3587            0.0000000000
     33012      3779  TIP3      H1             27.5790241169      -24.7426987261       55.3925787124  TIP3      3587            0.0000000000
     33013      3779  TIP3      H2             27.9888937421      -26.0317321230       56.1486187519  TIP3      3587            0.0000000000
     33014      3780  TIP3      OH2            30.9709702111      -23.5907027429       38.6674301153  TIP3      3588            0.0000000000
     33015      3780  TIP3      H1             30.6989577429      -23.5082619604       39.5952738772  TIP3      3588            0.0000000000
     33016      3780  TIP3      H2             30.7790734286      -24.5479197905       38.5240706319  TIP3      3588            0.0000000000
     33017      3781  TIP3      OH2            33.5663276094      -25.1019252377       53.7748184660  TIP3      3589            0.0000000000
     33018      3781  TIP3      H1             34.3823613845      -24.5899787958       53.5904264109  TIP3      3589            0.0000000000
     33019      3781  TIP3      H2             32.8878832874      -24.4394252128       53.6899735593  TIP3      3589            0.0000000000
     33020      3782  TIP3      OH2            22.1152630903      -27.8251091057       56.2413171524  TIP3      3590            0.0000000000
     33021      3782  TIP3      H1             22.5281368450      -28.6906262699       56.1432718863  TIP3      3590            0.0000000000
     33022      3782  TIP3      H2             21.8871793312      -27.8171968262       57.1862242337  TIP3      3590            0.0000000000
     33023      3783  TIP3      OH2            26.7589287350      -26.6800789854       41.3261411064  TIP3      3591            0.0000000000
     33024      3783  TIP3      H1             26.2461582902      -27.2190974266       41.9460599266  TIP3      3591            0.0000000000
     33025      3783  TIP3      H2             27.0493489904      -27.3525247604       40.6655513974  TIP3      3591            0.0000000000
     33026      3784  TIP3      OH2            26.0702716326      -28.8463166070       53.6474183889  TIP3      3592            0.0000000000
     33027      3784  TIP3      H1             25.4123953563      -28.1641377039       53.8622941432  TIP3      3592            0.0000000000
     33028      3784  TIP3      H2             26.3952871239      -28.5172834258       52.7909554306  TIP3      3592            0.0000000000
     33029      3785  TIP3      OH2            27.8211023007      -28.4509420340       39.5068153260  TIP3      3593            0.0000000000
     33030      3785  TIP3      H1             27.6760114632      -28.5485136214       38.5461169424  TIP3      3593            0.0000000000
     33031      3785  TIP3      H2             28.7980964073      -28.4055069488       39.5820446784  TIP3      3593            0.0000000000
     33032      3786  TIP3      OH2            31.0895507023      -26.3001394751       56.9445248001  TIP3      3594            0.0000000000
     33033      3786  TIP3      H1             32.0451186320      -26.3073675317       56.8134975524  TIP3      3594            0.0000000000
     33034      3786  TIP3      H2             30.9397291247      -27.0804501268       57.5029485660  TIP3      3594            0.0000000000
     33035      3787  TIP3      OH2            26.4104196851      -31.4947666125       54.6572660763  TIP3      3595            0.0000000000
     33036      3787  TIP3      H1             26.5195873890      -32.2068765045       54.0056729632  TIP3      3595            0.0000000000
     33037      3787  TIP3      H2             26.3531745049      -30.6881430453       54.1008848884  TIP3      3595            0.0000000000
     33038      3788  TIP3      OH2            26.8303487212      -33.1111249575       52.1795099838  TIP3      3596            0.0000000000
     33039      3788  TIP3      H1             27.3236702179      -32.6095336032       51.4902749764  TIP3      3596            0.0000000000
     33040      3788  TIP3      H2             25.9200510993      -33.1859292600       51.7913539372  TIP3      3596            0.0000000000
     33041      3789  TIP3      OH2            28.3320804927      -27.6175540695       52.4573471618  TIP3      3597            0.0000000000
     33042      3789  TIP3      H1             29.1099241768      -27.8004281139       51.9074931739  TIP3      3597            0.0000000000
     33043      3789  TIP3      H2             27.9937948918      -26.7775841401       52.1127883662  TIP3      3597            0.0000000000
     33044      3790  TIP3      OH2            32.8253559664      -29.8515150741       57.4800460006  TIP3      3598            0.0000000000
     33045      3790  TIP3      H1             33.0367828787      -30.7812993798       57.2977844148  TIP3      3598            0.0000000000
     33046      3790  TIP3      H2             33.6892181315      -29.4265689830       57.3729640867  TIP3      3598            0.0000000000
     33047      3791  TIP3      OH2            34.1568509435      -26.9594191758       55.6735499123  TIP3      3599            0.0000000000
     33048      3791  TIP3      H1             33.8244588505      -26.3919812596       54.9300334814  TIP3      3599            0.0000000000
     33049      3791  TIP3      H2             35.0373622705      -27.1668850725       55.3517359119  TIP3      3599            0.0000000000
     33050      3792  TIP3      OH2            24.8729252106      -30.2497366647       56.5906719967  TIP3      3600            0.0000000000
     33051      3792  TIP3      H1             24.1049269649      -30.8219500963       56.3904313781  TIP3      3600            0.0000000000
     33052      3792  TIP3      H2             25.5342527506      -30.5983441453       55.9600680498  TIP3      3600            0.0000000000
     33053      3793  TIP3      OH2            27.4703363293      -35.4845830493       52.8872341524  TIP3      3601            0.0000000000
     33054      3793  TIP3      H1             27.4137454046      -34.5427397551       52.5860718520  TIP3      3601            0.0000000000
     33055      3793  TIP3      H2             26.8890039836      -35.8962345904       52.2319221076  TIP3      3601            0.0000000000
     33056      3794  TIP3      OH2            28.8514947374      -31.3068529888       56.2234037862  TIP3      3602            0.0000000000
     33057      3794  TIP3      H1             28.5918758069      -31.6290630303       57.1021031788  TIP3      3602            0.0000000000
     33058      3794  TIP3      H2             28.0778382167      -31.5536760548       55.6868124566  TIP3      3602            0.0000000000
     33059      3795  TIP3      OH2            31.4743461723      -32.1197790278       55.4681488098  TIP3      3603            0.0000000000
     33060      3795  TIP3      H1             30.5175941149      -32.2187812521       55.4897528176  TIP3      3603            0.0000000000
     33061      3795  TIP3      H2             31.8592018990      -32.8461688592       55.9971301311  TIP3      3603            0.0000000000
     33062      3796  TIP3      OH2            33.2933951294      -33.4974616181       57.3009344353  TIP3      3604            0.0000000000
     33063      3796  TIP3      H1             33.1073822871      -34.4670717940       57.2354113232  TIP3      3604            0.0000000000
     33064      3796  TIP3      H2             32.8959582188      -33.2832649381       58.1600770526  TIP3      3604            0.0000000000
     33065      3797  TIP3      OH2            22.9552389928      -32.3178259293       56.3697499610  TIP3      3605            0.0000000000
     33066      3797  TIP3      H1             23.2049914795      -33.0288131816       55.7412379941  TIP3      3605            0.0000000000
     33067      3797  TIP3      H2             22.8887210125      -32.7940643149       57.2184493012  TIP3      3605            0.0000000000
     33068      3798  TIP3      OH2            27.8157929326       36.7222103881       55.3420830137  TIP3      3606            0.0000000000
     33069      3798  TIP3      H1             28.5066942440       36.0585503388       55.3809992535  TIP3      3606            0.0000000000
     33070      3798  TIP3      H2             27.7090753316       36.9318663212       54.3900557741  TIP3      3606            0.0000000000
     33071      3799  TIP3      OH2            28.2161619141      -34.5938640972       57.3871440444  TIP3      3607            0.0000000000
     33072      3799  TIP3      H1             28.0416517205      -35.1680122225       56.6093965088  TIP3      3607            0.0000000000
     33073      3799  TIP3      H2             27.5800048929      -33.8695375661       57.3142710594  TIP3      3607            0.0000000000
     33074      3800  TIP3      OH2            27.6611643747      -17.7573497698       40.5942393410  TIP3      3608            0.0000000000
     33075      3800  TIP3      H1             28.6280902065      -17.6706665508       40.6625898217  TIP3      3608            0.0000000000
     33076      3800  TIP3      H2             27.5106602014      -17.1541806771       39.8565820557  TIP3      3608            0.0000000000
     33077      3801  TIP3      OH2            21.2102676072      -23.1842134051       40.0649736654  TIP3      3609            0.0000000000
     33078      3801  TIP3      H1             22.1773406964      -23.0890017181       40.2452559559  TIP3      3609            0.0000000000
     33079      3801  TIP3      H2             21.2609663335      -23.8273575658       39.3182560892  TIP3      3609            0.0000000000
     33080      3802  TIP3      OH2            19.9983538643      -17.8021783274       45.0252833761  TIP3      3610            0.0000000000
     33081      3802  TIP3      H1             19.2745661445      -18.2853248127       44.5693536626  TIP3      3610            0.0000000000
     33082      3802  TIP3      H2             20.2731999312      -18.4529556381       45.6963828057  TIP3      3610            0.0000000000
     33083      3803  TIP3      OH2            20.8159111779      -19.6608138530       46.9087762542  TIP3      3611            0.0000000000
     33084      3803  TIP3      H1             20.4627887637      -20.5391239589       47.1091809514  TIP3      3611            0.0000000000
     33085      3803  TIP3      H2             21.0577574743      -19.3358838544       47.7933123273  TIP3      3611            0.0000000000
     33086      3804  TIP3      OH2            36.2814779422      -21.6035504279       52.0814819636  TIP3      3612            0.0000000000
     33087      3804  TIP3      H1             35.6234016849      -21.1736259521       52.6472558764  TIP3      3612            0.0000000000
     33088      3804  TIP3      H2             35.7496461315      -21.9755639047       51.3547599707  TIP3      3612            0.0000000000
     33089      3805  TIP3      OH2            35.3708414491      -28.5946895858       45.4161353901  TIP3      3613            0.0000000000
     33090      3805  TIP3      H1             35.6189291981      -29.5225703110       45.4633587394  TIP3      3613            0.0000000000
     33091      3805  TIP3      H2             35.4717483307      -28.3482892514       46.3618027544  TIP3      3613            0.0000000000
     33092      3806  TIP3      OH2            20.8754849965      -26.5284132053       49.3981306116  TIP3      3614            0.0000000000
     33093      3806  TIP3      H1             21.0479346703      -26.6869602277       48.4442648875  TIP3      3614            0.0000000000
     33094      3806  TIP3      H2             21.7493094991      -26.7881771199       49.7596441721  TIP3      3614            0.0000000000
     33095      3807  TIP3      OH2            35.9294057364      -32.6358677931       38.8238976604  TIP3      3615            0.0000000000
     33096      3807  TIP3      H1             36.5306527810      -33.0438371083       39.4481049810  TIP3      3615            0.0000000000
     33097      3807  TIP3      H2             35.0745491516      -33.0688662022       39.0044075497  TIP3      3615            0.0000000000
     33098      3808  TIP3      OH2            35.5040706413      -31.1590703533       43.6359092542  TIP3      3616            0.0000000000
     33099      3808  TIP3      H1             35.7986831287      -31.9903808699       44.0457394394  TIP3      3616            0.0000000000
     33100      3808  TIP3      H2             36.3480061695      -30.7936325489       43.3415070410  TIP3      3616            0.0000000000
     33101      3809  TIP3      OH2           -37.0721373257      -31.3626491618       49.1879021662  TIP3      3617            0.0000000000
     33102      3809  TIP3      H1            -36.1696780766      -31.0297346590       49.1104789190  TIP3      3617            0.0000000000
     33103      3809  TIP3      H2            -37.2996143976      -30.7737448462       49.9348883369  TIP3      3617            0.0000000000
     33104      3810  TIP3      OH2            36.4742959855      -29.6775146428       52.3689968404  TIP3      3618            0.0000000000
     33105      3810  TIP3      H1             35.4832387074      -29.6532755787       52.2982393150  TIP3      3618            0.0000000000
     33106      3810  TIP3      H2             36.6670624386      -29.0166475859       51.6815128426  TIP3      3618            0.0000000000
     33107      3811  TIP3      OH2            20.4787914666      -31.2583271110       55.6073947875  TIP3      3619            0.0000000000
     33108      3811  TIP3      H1             21.4254835272      -31.4919710556       55.6946430573  TIP3      3619            0.0000000000
     33109      3811  TIP3      H2             20.0518988740      -32.1159640846       55.7982755407  TIP3      3619            0.0000000000
     33110      3812  TIP3      OH2            35.3015561728      -34.1294151152       44.5031551459  TIP3      3620            0.0000000000
     33111      3812  TIP3      H1             36.2346955846      -34.2621254839       44.7232251137  TIP3      3620            0.0000000000
     33112      3812  TIP3      H2             35.3206322807      -34.5352938651       43.6064839488  TIP3      3620            0.0000000000
     33113      3813  TIP3      OH2            21.7019128636      -32.9661699952       48.2525583095  TIP3      3621            0.0000000000
     33114      3813  TIP3      H1             22.0923599556      -33.7727947514       48.6556493096  TIP3      3621            0.0000000000
     33115      3813  TIP3      H2             22.1271781466      -32.2961031500       48.8354876519  TIP3      3621            0.0000000000
     33116      3814  TIP3      OH2            19.8162805401      -29.7904620317       49.2057569927  TIP3      3622            0.0000000000
     33117      3814  TIP3      H1             20.5210289738      -30.2809007160       48.7323345790  TIP3      3622            0.0000000000
     33118      3814  TIP3      H2             20.4315168957      -29.2622658638       49.7386802103  TIP3      3622            0.0000000000
     33119      3815  TIP3      OH2            20.3489516097      -33.7616839581       43.5419264058  TIP3      3623            0.0000000000
     33120      3815  TIP3      H1             19.4080423431      -33.5751628619       43.3656253720  TIP3      3623            0.0000000000
     33121      3815  TIP3      H2             20.7641962900      -33.2761672191       42.8037500264  TIP3      3623            0.0000000000
     33122      3816  TIP3      OH2            34.8891091690      -18.9654225047       45.5590550219  TIP3      3624            0.0000000000
     33123      3816  TIP3      H1             35.5636746130      -19.2914977769       44.9465588227  TIP3      3624            0.0000000000
     33124      3816  TIP3      H2             35.4124755996      -18.3826126425       46.1351868917  TIP3      3624            0.0000000000
     33125      3817  TIP3      OH2            20.2837427218      -35.0319688821       51.8130019529  TIP3      3625            0.0000000000
     33126      3817  TIP3      H1             19.6110505352      -35.2136468810       52.4814238895  TIP3      3625            0.0000000000
     33127      3817  TIP3      H2             19.8382192802      -34.3877362257       51.2297911983  TIP3      3625            0.0000000000
     33128      3818  TIP3      OH2            22.5287628559      -21.8881687001       55.9711535961  TIP3      3626            0.0000000000
     33129      3818  TIP3      H1             21.6915189832      -21.6613694704       55.5323119432  TIP3      3626            0.0000000000
     33130      3818  TIP3      H2             22.2591704785      -21.9560121276       56.8899541997  TIP3      3626            0.0000000000
     33131      3819  TIP3      OH2            25.4284161099      -20.8727660799       52.2501199048  TIP3      3627            0.0000000000
     33132      3819  TIP3      H1             25.0985421486      -20.0051758999       51.9772758681  TIP3      3627            0.0000000000
     33133      3819  TIP3      H2             26.3543705544      -20.7888403613       51.9445259450  TIP3      3627            0.0000000000
     33134      3820  TIP3      OH2            29.7490970534      -19.4481218110       55.1516877446  TIP3      3628            0.0000000000
     33135      3820  TIP3      H1             29.8869033558      -19.8047045935       56.0599146487  TIP3      3628            0.0000000000
     33136      3820  TIP3      H2             30.6525983192      -19.1453079862       54.9083716269  TIP3      3628            0.0000000000
     33137      3821  TIP3      OH2            32.0604537500      -18.1830877727       54.4710265822  TIP3      3629            0.0000000000
     33138      3821  TIP3      H1             32.8054214590      -18.7591220764       54.2396606982  TIP3      3629            0.0000000000
     33139      3821  TIP3      H2             32.4447988305      -17.7359477752       55.2555390061  TIP3      3629            0.0000000000
     33140      3822  TIP3      OH2            22.8516177231      -17.6422000044       52.2418000370  TIP3      3630            0.0000000000
     33141      3822  TIP3      H1             22.1221685847      -17.1388200921       51.8459296685  TIP3      3630            0.0000000000
     33142      3822  TIP3      H2             22.5368044649      -17.8211635298       53.1389611431  TIP3      3630            0.0000000000
     33143      3823  TIP3      OH2            25.3198394612      -18.0610417678       51.3175736219  TIP3      3631            0.0000000000
     33144      3823  TIP3      H1             24.4275302306      -17.9097179324       51.7100409282  TIP3      3631            0.0000000000
     33145      3823  TIP3      H2             25.2660970571      -17.4711338423       50.5426458686  TIP3      3631            0.0000000000
     33146      3824  TIP3      OH2            29.9873046302      -18.1640620374       50.4923706742  TIP3      3632            0.0000000000
     33147      3824  TIP3      H1             29.5576407434      -17.5907907820       49.8362283199  TIP3      3632            0.0000000000
     33148      3824  TIP3      H2             30.1553559391      -17.5242911940       51.2177497675  TIP3      3632            0.0000000000
     33149      3825  TIP3      OH2            32.3028312635      -19.3528689852       51.4898914194  TIP3      3633            0.0000000000
     33150      3825  TIP3      H1             31.4450530155      -19.0659882827       51.1418513073  TIP3      3633            0.0000000000
     33151      3825  TIP3      H2             32.7683046609      -18.4948729772       51.4446367956  TIP3      3633            0.0000000000
     33152      3826  TIP3      OH2            34.7597402514      -17.7702434292       51.7257923102  TIP3      3634            0.0000000000
     33153      3826  TIP3      H1             34.7575652718      -16.8198908486       51.5115422460  TIP3      3634            0.0000000000
     33154      3826  TIP3      H2             35.1033538229      -18.1420561641       50.8927833558  TIP3      3634            0.0000000000
     33155      3827  TIP3      OH2            22.3127934434      -18.9885549446       49.1856514420  TIP3      3635            0.0000000000
     33156      3827  TIP3      H1             22.2305819536      -19.4456528657       50.0492205817  TIP3      3635            0.0000000000
     33157      3827  TIP3      H2             23.1274896525      -19.3688096145       48.7988887440  TIP3      3635            0.0000000000
     33158      3828  TIP3      OH2            24.3851793197      -20.2779338456       47.8393988093  TIP3      3636            0.0000000000
     33159      3828  TIP3      H1             24.2230172146      -21.2113373457       48.0740029738  TIP3      3636            0.0000000000
     33160      3828  TIP3      H2             25.2421333900      -20.1214130731       48.2920837382  TIP3      3636            0.0000000000
     33161      3829  TIP3      OH2            26.9611369159      -19.7924825446       48.7139976886  TIP3      3637            0.0000000000
     33162      3829  TIP3      H1             27.1431330845      -20.7124361938       48.4537605959  TIP3      3637            0.0000000000
     33163      3829  TIP3      H2             27.0340123227      -19.8450788124       49.6795000221  TIP3      3637            0.0000000000
     33164      3830  TIP3      OH2            30.3073713328      -34.0745484090       47.8337907780  TIP3      3638            0.0000000000
     33165      3830  TIP3      H1             29.7311930634      -34.7992210933       48.1180912637  TIP3      3638            0.0000000000
     33166      3830  TIP3      H2             31.0035574793      -34.5650251641       47.3498193476  TIP3      3638            0.0000000000
     33167      3831  TIP3      OH2            35.5825860832      -36.0507301996       47.9951731636  TIP3      3639            0.0000000000
     33168      3831  TIP3      H1             36.1788525757      -35.5060995330       47.4864714378  TIP3      3639            0.0000000000
     33169      3831  TIP3      H2             34.7142966663      -35.7300071349       47.7519497000  TIP3      3639            0.0000000000
     33170      3832  TIP3      OH2            22.7792432050      -35.4783279300       45.7283889907  TIP3      3640            0.0000000000
     33171      3832  TIP3      H1             22.0143894356      -35.7220478794       45.1876919389  TIP3      3640            0.0000000000
     33172      3832  TIP3      H2             23.2665930945      -36.3205137133       45.7680667676  TIP3      3640            0.0000000000
     33173      3833  TIP3      OH2            21.6071827141      -35.7625944867       41.4371923044  TIP3      3641            0.0000000000
     33174      3833  TIP3      H1             22.0289991232      -35.1111423451       40.8605790251  TIP3      3641            0.0000000000
     33175      3833  TIP3      H2             20.9745702819      -35.2134350543       41.9145437918  TIP3      3641            0.0000000000
     33176      3834  TIP3      OH2            27.3481889331      -35.6607168790       45.4779263436  TIP3      3642            0.0000000000
     33177      3834  TIP3      H1             28.2003723609      -35.1958021549       45.4405373358  TIP3      3642            0.0000000000
     33178      3834  TIP3      H2             27.2465912256      -35.8151747170       46.4230108261  TIP3      3642            0.0000000000
     33179      3835  TIP3      OH2            32.6898111567      -35.2156943459       47.2648363515  TIP3      3643            0.0000000000
     33180      3835  TIP3      H1             32.8877857168      -35.2263603995       46.3258620238  TIP3      3643            0.0000000000
     33181      3835  TIP3      H2             32.6310153058      -36.1951473925       47.3894077315  TIP3      3643            0.0000000000
     33182      3836  TIP3      OH2            34.2353216493      -35.5946624414       42.6759608869  TIP3      3644            0.0000000000
     33183      3836  TIP3      H1             33.5025967089      -34.9615424835       42.6198942374  TIP3      3644            0.0000000000
     33184      3836  TIP3      H2             33.8221384082      -36.4150435531       42.9600339207  TIP3      3644            0.0000000000
     33185      3837  TIP3      OH2            21.4967604994      -19.8161253122       42.4548202834  TIP3      3645            0.0000000000
     33186      3837  TIP3      H1             20.8399537525      -19.8300069133       41.7345782620  TIP3      3645            0.0000000000
     33187      3837  TIP3      H2             21.4941009150      -18.8609638736       42.6261538832  TIP3      3645            0.0000000000
     33188      3838  TIP3      OH2            23.3797126924      -33.8883811033       39.9579315921  TIP3      3646            0.0000000000
     33189      3838  TIP3      H1             23.9528567812      -34.4371451483       39.3927004019  TIP3      3646            0.0000000000
     33190      3838  TIP3      H2             24.0359044294      -33.5068244582       40.5727707665  TIP3      3646            0.0000000000
     33191      3839  TIP3      OH2            28.3598499754      -33.5801587521       42.3877850905  TIP3      3647            0.0000000000
     33192      3839  TIP3      H1             28.7182308709      -34.1457580531       43.0951454741  TIP3      3647            0.0000000000
     33193      3839  TIP3      H2             28.5143916874      -32.7064797183       42.8150881405  TIP3      3647            0.0000000000
     33194      3840  TIP3      OH2            30.3623984951      -18.5082613416       40.7858848762  TIP3      3648            0.0000000000
     33195      3840  TIP3      H1             31.2818346947      -18.2753743350       40.5680210633  TIP3      3648            0.0000000000
     33196      3840  TIP3      H2             30.1496184287      -19.0251866673       39.9824513975  TIP3      3648            0.0000000000
     33197      3841  TIP3      OH2            22.5943563720      -35.0297853948       55.0615652665  TIP3      3649            0.0000000000
     33198      3841  TIP3      H1             22.2613227148      -35.7631460431       55.5830253122  TIP3      3649            0.0000000000
     33199      3841  TIP3      H2             23.4990393989      -34.9826547715       55.4602542167  TIP3      3649            0.0000000000
     33200      3842  TIP3      OH2            24.4430786319      -35.3751009354       56.6954300958  TIP3      3650            0.0000000000
     33201      3842  TIP3      H1             25.3828325455      -35.5732896958       56.5642834868  TIP3      3650            0.0000000000
     33202      3842  TIP3      H2             24.2732395914      -36.2319556909       57.1348900511  TIP3      3650            0.0000000000
     33203      3843  TIP3      OH2            23.2905680751      -18.8282502454       39.3950065472  TIP3      3651            0.0000000000
     33204      3843  TIP3      H1             23.0315362328      -18.5700648883       40.2914098097  TIP3      3651            0.0000000000
     33205      3843  TIP3      H2             24.0740222724      -19.3916374151       39.5501818721  TIP3      3651            0.0000000000
     33206      3844  TIP3      OH2            33.0792490742       37.0776606655       56.8488029225  TIP3      3652            0.0000000000
     33207      3844  TIP3      H1             33.0906912112       36.5194118637       57.6557047528  TIP3      3652            0.0000000000
     33208      3844  TIP3      H2             33.9609575894       36.8497974373       56.5330751052  TIP3      3652            0.0000000000
     33209      3845  TIP3      OH2            36.1489495275      -20.3914866059       55.6260102879  TIP3      3653            0.0000000000
     33210      3845  TIP3      H1             35.4123497498      -20.4131300190       54.9887830129  TIP3      3653            0.0000000000
     33211      3845  TIP3      H2             36.1268875526      -19.4368530444       55.8605224677  TIP3      3653            0.0000000000
     33212      3846  TIP3      OH2           -24.6605904730       -7.5204183946       45.5486026207  TIP3      3654            0.0000000000
     33213      3846  TIP3      H1            -24.6826243294       -6.5399550305       45.5325327066  TIP3      3654            0.0000000000
     33214      3846  TIP3      H2            -25.3953488167       -7.7545586506       44.9574351117  TIP3      3654            0.0000000000
     33215      3847  TIP3      OH2           -25.8144292166       -8.2699713005       49.0612112812  TIP3      3655            0.0000000000
     33216      3847  TIP3      H1            -25.8231438073       -8.9170411837       49.7786153185  TIP3      3655            0.0000000000
     33217      3847  TIP3      H2            -26.1605244432       -8.7773596541       48.3082889149  TIP3      3655            0.0000000000
     33218      3848  TIP3      OH2           -33.4035888220       -8.6038195263       50.5767401148  TIP3      3656            0.0000000000
     33219      3848  TIP3      H1            -33.3472355639       -9.2759984180       51.2897078808  TIP3      3656            0.0000000000
     33220      3848  TIP3      H2            -32.7038803170       -7.9964951797       50.8549368059  TIP3      3656            0.0000000000
     33221      3849  TIP3      OH2           -22.1258079764       -5.3173017734       47.3448986991  TIP3      3657            0.0000000000
     33222      3849  TIP3      H1            -22.5382579442       -6.0347634274       47.8361000207  TIP3      3657            0.0000000000
     33223      3849  TIP3      H2            -22.1000900473       -4.6098981724       48.0158713960  TIP3      3657            0.0000000000
     33224      3850  TIP3      OH2           -32.5360366936       -4.1598971474       49.1301136136  TIP3      3658            0.0000000000
     33225      3850  TIP3      H1            -32.8500486888       -5.0163179602       48.7846837806  TIP3      3658            0.0000000000
     33226      3850  TIP3      H2            -31.5766499319       -4.3263814808       49.1533966906  TIP3      3658            0.0000000000
     33227      3851  TIP3      OH2           -35.6217716911      -10.5906739786       44.1867452673  TIP3      3659            0.0000000000
     33228      3851  TIP3      H1            -36.0666160437       -9.7947690487       44.5636065380  TIP3      3659            0.0000000000
     33229      3851  TIP3      H2            -36.4133617739      -11.1239936068       44.1861879259  TIP3      3659            0.0000000000
     33230      3852  TIP3      OH2           -35.2191901916       -8.4297234580       46.7021198701  TIP3      3660            0.0000000000
     33231      3852  TIP3      H1            -34.9170378767       -9.1876385797       47.2279755526  TIP3      3660            0.0000000000
     33232      3852  TIP3      H2            -34.4803159606       -8.2550106560       46.1034234871  TIP3      3660            0.0000000000
     33233      3853  TIP3      OH2           -25.0067431786       -0.1593819359       47.5830010964  TIP3      3661            0.0000000000
     33234      3853  TIP3      H1            -24.3572135531       -0.8475422707       47.2956114391  TIP3      3661            0.0000000000
     33235      3853  TIP3      H2            -25.2216151529       -0.4963042872       48.4525376737  TIP3      3661            0.0000000000
     33236      3854  TIP3      OH2           -27.4370834025       -5.8671460322       49.5352401650  TIP3      3662            0.0000000000
     33237      3854  TIP3      H1            -27.0983032525       -6.4937790525       48.8752551459  TIP3      3662            0.0000000000
     33238      3854  TIP3      H2            -26.6251212355       -5.7094491811       50.0485715117  TIP3      3662            0.0000000000
     33239      3855  TIP3      OH2           -18.8424063969      -14.2026273337       50.2553708850  TIP3      3663            0.0000000000
     33240      3855  TIP3      H1            -18.6621435053      -13.6184882320       51.0232990342  TIP3      3663            0.0000000000
     33241      3855  TIP3      H2            -18.2710699201      -13.7843859401       49.5954581714  TIP3      3663            0.0000000000
     33242      3856  TIP3      OH2           -24.2681661611      -11.3979084011       49.8472520960  TIP3      3664            0.0000000000
     33243      3856  TIP3      H1            -24.1004900871      -12.3568443695       49.8522760146  TIP3      3664            0.0000000000
     33244      3856  TIP3      H2            -24.3709462182      -11.2579534609       48.8861149245  TIP3      3664            0.0000000000
     33245      3857  TIP3      OH2           -31.1522880340      -13.3073635410       47.0694866543  TIP3      3665            0.0000000000
     33246      3857  TIP3      H1            -31.0372400651      -12.4794639354       46.5681940029  TIP3      3665            0.0000000000
     33247      3857  TIP3      H2            -31.5345414713      -13.8845975304       46.3740062715  TIP3      3665            0.0000000000
     33248      3858  TIP3      OH2           -23.4175395291      -13.2327299255       45.4330242657  TIP3      3666            0.0000000000
     33249      3858  TIP3      H1            -22.7668907606      -13.5458955536       46.1033404838  TIP3      3666            0.0000000000
     33250      3858  TIP3      H2            -22.8528814521      -12.6518039852       44.9017302230  TIP3      3666            0.0000000000
     33251      3859  TIP3      OH2           -34.5633738917      -10.9835773338       47.7384743991  TIP3      3667            0.0000000000
     33252      3859  TIP3      H1            -33.8357050831      -11.4501537899       48.2015603259  TIP3      3667            0.0000000000
     33253      3859  TIP3      H2            -34.3820352306      -11.2600578878       46.8305444699  TIP3      3667            0.0000000000
     33254      3860  TIP3      OH2           -29.3779667825       -9.3444806798       47.1160451832  TIP3      3668            0.0000000000
     33255      3860  TIP3      H1            -28.7015020402       -9.9230701921       47.5103792797  TIP3      3668            0.0000000000
     33256      3860  TIP3      H2            -29.8897931071      -10.0038637017       46.6083478544  TIP3      3668            0.0000000000
     33257      3861  TIP3      OH2           -18.3988766181      -12.8016694360       52.5356531566  TIP3      3669            0.0000000000
     33258      3861  TIP3      H1            -19.0036966759      -12.0357282481       52.4220337011  TIP3      3669            0.0000000000
     33259      3861  TIP3      H2            -18.3659395019      -12.8807399235       53.4964645321  TIP3      3669            0.0000000000
     33260      3862  TIP3      OH2           -32.2028080248      -14.4076768389       51.0956513511  TIP3      3670            0.0000000000
     33261      3862  TIP3      H1            -32.5139541498      -13.8398318906       50.3598827430  TIP3      3670            0.0000000000
     33262      3862  TIP3      H2            -32.8864391636      -14.1843837140       51.7759275403  TIP3      3670            0.0000000000
     33263      3863  TIP3      OH2           -24.9578326477       -4.9315867397       44.6472799141  TIP3      3671            0.0000000000
     33264      3863  TIP3      H1            -25.2197214477       -5.2023880841       43.7580923768  TIP3      3671            0.0000000000
     33265      3863  TIP3      H2            -25.2639120209       -3.9967158396       44.6989394437  TIP3      3671            0.0000000000
     33266      3864  TIP3      OH2           -29.7076077785       -6.7660689791       51.3405612703  TIP3      3672            0.0000000000
     33267      3864  TIP3      H1            -30.4262777623       -6.1318812382       51.5592109740  TIP3      3672            0.0000000000
     33268      3864  TIP3      H2            -29.0136983083       -6.1600885790       51.0456998659  TIP3      3672            0.0000000000
     33269      3865  TIP3      OH2           -21.6040317149      -13.8813951140       47.4247637150  TIP3      3673            0.0000000000
     33270      3865  TIP3      H1            -21.8258448489      -14.6507474376       47.9570715049  TIP3      3673            0.0000000000
     33271      3865  TIP3      H2            -20.9342351593      -13.4464141755       47.9791978053  TIP3      3673            0.0000000000
     33272      3866  TIP3      OH2           -32.6997549598      -12.5724577517       49.1362335130  TIP3      3674            0.0000000000
     33273      3866  TIP3      H1            -32.0814203329      -11.8750735706       49.4600506975  TIP3      3674            0.0000000000
     33274      3866  TIP3      H2            -32.1529942276      -12.9593524881       48.4022696092  TIP3      3674            0.0000000000
     33275      3867  TIP3      OH2           -31.2961332671       -4.7767781429       52.1452479375  TIP3      3675            0.0000000000
     33276      3867  TIP3      H1            -31.3378617786       -3.8553931269       51.8245766915  TIP3      3675            0.0000000000
     33277      3867  TIP3      H2            -32.1744638662       -4.8546022796       52.5903286317  TIP3      3675            0.0000000000
     33278      3868  TIP3      OH2           -35.2382916015       -5.1170056592       42.9055496068  TIP3      3676            0.0000000000
     33279      3868  TIP3      H1            -35.4403599526       -4.7802991080       42.0187935268  TIP3      3676            0.0000000000
     33280      3868  TIP3      H2            -35.1276184460       -4.3083961458       43.4420881255  TIP3      3676            0.0000000000
     33281      3869  TIP3      OH2           -21.5970692193       -3.4791938853       49.7135087330  TIP3      3677            0.0000000000
     33282      3869  TIP3      H1            -22.5646718953       -3.3679481676       49.8321973193  TIP3      3677            0.0000000000
     33283      3869  TIP3      H2            -21.3269683924       -2.5639899868       49.5095333390  TIP3      3677            0.0000000000
     33284      3870  TIP3      OH2           -21.2728349739      -15.1978497675       51.1008619329  TIP3      3678            0.0000000000
     33285      3870  TIP3      H1            -21.9971120133      -14.5639946930       51.0086476742  TIP3      3678            0.0000000000
     33286      3870  TIP3      H2            -20.5592089936      -14.7790945008       50.5789886938  TIP3      3678            0.0000000000
     33287      3871  TIP3      OH2           -28.3049343188      -17.0699237266       48.5605811073  TIP3      3679            0.0000000000
     33288      3871  TIP3      H1            -28.4372411120      -18.0345348941       48.4912299803  TIP3      3679            0.0000000000
     33289      3871  TIP3      H2            -29.1843763929      -16.7710764119       48.8729153181  TIP3      3679            0.0000000000
     33290      3872  TIP3      OH2           -23.3349926955       -1.6949615649       46.2991473318  TIP3      3680            0.0000000000
     33291      3872  TIP3      H1            -22.9081474138       -2.4154879381       45.7914602844  TIP3      3680            0.0000000000
     33292      3872  TIP3      H2            -22.9006538710       -0.9068572372       45.9089497400  TIP3      3680            0.0000000000
     33293      3873  TIP3      OH2           -22.1209680395       -3.7695713506       44.8204384358  TIP3      3681            0.0000000000
     33294      3873  TIP3      H1            -22.4242460319       -4.4660210397       44.2164975914  TIP3      3681            0.0000000000
     33295      3873  TIP3      H2            -22.0889956149       -4.2602779902       45.6612317450  TIP3      3681            0.0000000000
     33296      3874  TIP3      OH2           -20.5098520290       -5.1714524072       53.3125428950  TIP3      3682            0.0000000000
     33297      3874  TIP3      H1            -20.3615993334       -5.8268972362       52.5949492912  TIP3      3682            0.0000000000
     33298      3874  TIP3      H2            -20.3019692721       -4.3299689871       52.8676063237  TIP3      3682            0.0000000000
     33299      3875  TIP3      OH2           -26.0096820325       -8.2887127627       43.0734064076  TIP3      3683            0.0000000000
     33300      3875  TIP3      H1            -26.7041260829       -7.7091608137       42.7128824052  TIP3      3683            0.0000000000
     33301      3875  TIP3      H2            -25.2993495321       -8.1907750001       42.4129313825  TIP3      3683            0.0000000000
     33302      3876  TIP3      OH2           -25.9283819771       -9.7160887859       40.0842596809  TIP3      3684            0.0000000000
     33303      3876  TIP3      H1            -25.2238869818       -9.7350574304       40.7495604014  TIP3      3684            0.0000000000
     33304      3876  TIP3      H2            -25.6227723462      -10.4344648397       39.5156318430  TIP3      3684            0.0000000000
     33305      3877  TIP3      OH2           -18.6203022593       -8.8611972706       51.3558168962  TIP3      3685            0.0000000000
     33306      3877  TIP3      H1            -19.2776965720       -8.1375651021       51.3947669280  TIP3      3685            0.0000000000
     33307      3877  TIP3      H2            -18.1247114495       -8.6282817159       50.5495550884  TIP3      3685            0.0000000000
     33308      3878  TIP3      OH2           -22.5525463903       -8.0780934392       43.9941034671  TIP3      3686            0.0000000000
     33309      3878  TIP3      H1            -23.2981889817       -7.8330607160       44.5930467692  TIP3      3686            0.0000000000
     33310      3878  TIP3      H2            -22.0856164784       -8.7520713306       44.5188012766  TIP3      3686            0.0000000000
     33311      3879  TIP3      OH2           -22.6324485346       -9.9076474274       53.1188723429  TIP3      3687            0.0000000000
     33312      3879  TIP3      H1            -22.6252750360       -9.0903037590       53.6444580804  TIP3      3687            0.0000000000
     33313      3879  TIP3      H2            -23.2639815054       -9.6149639036       52.4286801990  TIP3      3687            0.0000000000
     33314      3880  TIP3      OH2           -30.9295824379       -7.4058259056       45.9169856522  TIP3      3688            0.0000000000
     33315      3880  TIP3      H1            -31.2829747048       -7.8080926453       45.0864426913  TIP3      3688            0.0000000000
     33316      3880  TIP3      H2            -30.3278906021       -8.1080852824       46.2483408200  TIP3      3688            0.0000000000
     33317      3881  TIP3      OH2           -29.6307750180       -4.0336412286       48.5907179426  TIP3      3689            0.0000000000
     33318      3881  TIP3      H1            -29.6330583659       -4.5575536446       47.7809291198  TIP3      3689            0.0000000000
     33319      3881  TIP3      H2            -28.8476267815       -4.3873031603       49.0509983335  TIP3      3689            0.0000000000
     33320      3882  TIP3      OH2           -30.5904972349       -8.6747989569       49.5756165478  TIP3      3690            0.0000000000
     33321      3882  TIP3      H1            -30.0577102976       -8.5618985315       48.7671173031  TIP3      3690            0.0000000000
     33322      3882  TIP3      H2            -30.2314046229       -7.9925469316       50.1864537165  TIP3      3690            0.0000000000
     33323      3883  TIP3      OH2           -24.2101314613       -3.0945560804       50.2802102693  TIP3      3691            0.0000000000
     33324      3883  TIP3      H1            -24.4922631915       -2.4578193725       50.9438490247  TIP3      3691            0.0000000000
     33325      3883  TIP3      H2            -24.4637884793       -3.9483940718       50.7046990402  TIP3      3691            0.0000000000
     33326      3884  TIP3      OH2           -29.6682523840       -4.2400393126       54.2716542016  TIP3      3692            0.0000000000
     33327      3884  TIP3      H1            -30.0829909790       -3.4982581129       54.7595465875  TIP3      3692            0.0000000000
     33328      3884  TIP3      H2            -30.3378646887       -4.4354602561       53.5726976461  TIP3      3692            0.0000000000
     33329      3885  TIP3      OH2           -23.6834317871       -8.8697436110       41.6614252086  TIP3      3693            0.0000000000
     33330      3885  TIP3      H1            -23.1273005797       -8.6975381694       42.4617792337  TIP3      3693            0.0000000000
     33331      3885  TIP3      H2            -23.2320267826       -8.3761934415       40.9402356357  TIP3      3693            0.0000000000
     33332      3886  TIP3      OH2           -32.7306110212       -8.0667148832       53.4517264032  TIP3      3694            0.0000000000
     33333      3886  TIP3      H1            -32.6842111707       -7.3844574861       54.1438791803  TIP3      3694            0.0000000000
     33334      3886  TIP3      H2            -33.6699094904       -7.9795891489       53.2177705475  TIP3      3694            0.0000000000
     33335      3887  TIP3      OH2           -25.9724430944       -2.1496676502       45.1347244114  TIP3      3695            0.0000000000
     33336      3887  TIP3      H1            -25.5406890369       -1.8430340950       45.9409225533  TIP3      3695            0.0000000000
     33337      3887  TIP3      H2            -26.5293916109       -1.4006110150       44.8962804378  TIP3      3695            0.0000000000
     33338      3888  TIP3      OH2           -31.4204829958       -2.2164109100       55.0168614436  TIP3      3696            0.0000000000
     33339      3888  TIP3      H1            -31.4960937733       -2.2963729526       54.0487580658  TIP3      3696            0.0000000000
     33340      3888  TIP3      H2            -32.3538677333       -2.3408041087       55.2814841956  TIP3      3696            0.0000000000
     33341      3889  TIP3      OH2           -19.9593825416      -17.1416846919       41.5705611558  TIP3      3697            0.0000000000
     33342      3889  TIP3      H1            -20.9078900456      -17.0262683186       41.8069339672  TIP3      3697            0.0000000000
     33343      3889  TIP3      H2            -19.7579758258      -16.3019420224       41.1223865280  TIP3      3697            0.0000000000
     33344      3890  TIP3      OH2           -31.9676566486       -8.4010859949       43.5433320565  TIP3      3698            0.0000000000
     33345      3890  TIP3      H1            -32.2535386037       -7.6196369194       43.0270992486  TIP3      3698            0.0000000000
     33346      3890  TIP3      H2            -32.6219056516       -9.0621612040       43.3060002020  TIP3      3698            0.0000000000
     33347      3891  TIP3      OH2           -18.8465171868       -2.7882778663       39.9140127618  TIP3      3699            0.0000000000
     33348      3891  TIP3      H1            -18.6809156755       -1.8453873625       40.0849098515  TIP3      3699            0.0000000000
     33349      3891  TIP3      H2            -17.9232175924       -3.1015430452       39.9124385042  TIP3      3699            0.0000000000
     33350      3892  TIP3      OH2           -35.2945657889       -6.0935580694       52.1720490690  TIP3      3700            0.0000000000
     33351      3892  TIP3      H1            -36.0673526407       -5.9683151092       51.5806526976  TIP3      3700            0.0000000000
     33352      3892  TIP3      H2            -35.6665217935       -6.8796444533       52.6347449139  TIP3      3700            0.0000000000
     33353      3893  TIP3      OH2           -35.8270275299       -2.9863187205       48.9233560859  TIP3      3701            0.0000000000
     33354      3893  TIP3      H1            -35.0071318372       -3.3954789888       49.2126657978  TIP3      3701            0.0000000000
     33355      3893  TIP3      H2            -36.1158154764       -2.5267828496       49.7240609208  TIP3      3701            0.0000000000
     33356      3894  TIP3      OH2           -17.8893207957       -2.5216494691       54.8969298828  TIP3      3702            0.0000000000
     33357      3894  TIP3      H1            -18.0090972739       -3.4823119664       54.8666565009  TIP3      3702            0.0000000000
     33358      3894  TIP3      H2            -18.7644662822       -2.2747881610       55.2800890160  TIP3      3702            0.0000000000
     33359      3895  TIP3      OH2           -26.9347883630       -2.9845926357       53.7561354977  TIP3      3703            0.0000000000
     33360      3895  TIP3      H1            -26.8760918588       -2.1418071309       54.2644187168  TIP3      3703            0.0000000000
     33361      3895  TIP3      H2            -27.8079141744       -3.3429805458       54.0070853011  TIP3      3703            0.0000000000
     33362      3896  TIP3      OH2           -26.4897697232        0.7578479931       43.5451996042  TIP3      3704            0.0000000000
     33363      3896  TIP3      H1            -26.6017036286        0.6801580604       42.5802232160  TIP3      3704            0.0000000000
     33364      3896  TIP3      H2            -26.4891064178        1.7202428742       43.7018557497  TIP3      3704            0.0000000000
     33365      3897  TIP3      OH2           -32.8649477737       -0.3588036758       45.3581047668  TIP3      3705            0.0000000000
     33366      3897  TIP3      H1            -32.7189140856       -0.7662495725       46.2409480028  TIP3      3705            0.0000000000
     33367      3897  TIP3      H2            -33.6956616524       -0.7937522472       45.1200038956  TIP3      3705            0.0000000000
     33368      3898  TIP3      OH2           -23.4370567520       -0.0280927857       40.5297480661  TIP3      3706            0.0000000000
     33369      3898  TIP3      H1            -22.9820548631       -0.7866199561       40.0955094179  TIP3      3706            0.0000000000
     33370      3898  TIP3      H2            -23.3972731790       -0.2895225033       41.4731998613  TIP3      3706            0.0000000000
     33371      3899  TIP3      OH2           -23.7412047726       -0.0931513619       43.3042042694  TIP3      3707            0.0000000000
     33372      3899  TIP3      H1            -24.7035435562       -0.0176120837       43.4752691281  TIP3      3707            0.0000000000
     33373      3899  TIP3      H2            -23.5080394284       -0.8354625296       43.8823380528  TIP3      3707            0.0000000000
     33374      3900  TIP3      OH2           -20.7488448798      -11.0532341239       55.3473360310  TIP3      3708            0.0000000000
     33375      3900  TIP3      H1            -21.2282984902      -10.6049277209       54.6320869098  TIP3      3708            0.0000000000
     33376      3900  TIP3      H2            -20.7644126150      -11.9763772675       55.0538866082  TIP3      3708            0.0000000000
     33377      3901  TIP3      OH2           -33.5891159749       -4.5630483664       53.4357769173  TIP3      3709            0.0000000000
     33378      3901  TIP3      H1            -33.4057499612       -5.0120136267       54.2836086241  TIP3      3709            0.0000000000
     33379      3901  TIP3      H2            -34.4162601358       -5.0120927707       53.1495801246  TIP3      3709            0.0000000000
     33380      3902  TIP3      OH2           -30.9164932467      -16.1624058884       49.3171771899  TIP3      3710            0.0000000000
     33381      3902  TIP3      H1            -31.8181065664      -16.2865223266       48.9464860084  TIP3      3710            0.0000000000
     33382      3902  TIP3      H2            -31.0571227579      -15.3369135408       49.8089812024  TIP3      3710            0.0000000000
     33383      3903  TIP3      OH2           -26.2800509820      -16.5074774953       52.6779824367  TIP3      3711            0.0000000000
     33384      3903  TIP3      H1            -25.8873116300      -16.9285809977       53.4654852644  TIP3      3711            0.0000000000
     33385      3903  TIP3      H2            -27.2520290555      -16.6227844045       52.8254391188  TIP3      3711            0.0000000000
     33386      3904  TIP3      OH2           -22.9930398800      -12.6591740774       53.5807580615  TIP3      3712            0.0000000000
     33387      3904  TIP3      H1            -23.5578542954      -12.8736353113       54.3622143353  TIP3      3712            0.0000000000
     33388      3904  TIP3      H2            -23.1777597412      -11.7320416537       53.3521528339  TIP3      3712            0.0000000000
     33389      3905  TIP3      OH2           -22.2361850846       -7.8391906602       39.4759995199  TIP3      3713            0.0000000000
     33390      3905  TIP3      H1            -22.2567563460       -8.0328074671       38.5099755245  TIP3      3713            0.0000000000
     33391      3905  TIP3      H2            -21.3766029660       -7.3975896752       39.5286406810  TIP3      3713            0.0000000000
     33392      3906  TIP3      OH2           -26.6402773705      -13.9185658065       39.9871653834  TIP3      3714            0.0000000000
     33393      3906  TIP3      H1            -26.9584925342      -13.9802148705       40.9060705616  TIP3      3714            0.0000000000
     33394      3906  TIP3      H2            -26.9482618675      -14.7960995135       39.6815494869  TIP3      3714            0.0000000000
     33395      3907  TIP3      OH2           -30.8373476464      -11.1985274594       50.5675006069  TIP3      3715            0.0000000000
     33396      3907  TIP3      H1            -31.5638273946      -11.1994318126       51.2208795623  TIP3      3715            0.0000000000
     33397      3907  TIP3      H2            -30.8567707520      -10.2867536614       50.2017418557  TIP3      3715            0.0000000000
     33398      3908  TIP3      OH2           -30.8409119272      -11.0756099498       45.4345720310  TIP3      3716            0.0000000000
     33399      3908  TIP3      H1            -31.7805824621      -11.3231287053       45.2951687202  TIP3      3716            0.0000000000
     33400      3908  TIP3      H2            -30.4678876256      -11.3753191327       44.5839721190  TIP3      3716            0.0000000000
     33401      3909  TIP3      OH2           -25.3429162046      -10.5780115442       44.2145321014  TIP3      3717            0.0000000000
     33402      3909  TIP3      H1            -25.7366302579       -9.7549045708       43.8427659216  TIP3      3717            0.0000000000
     33403      3909  TIP3      H2            -24.6561638739      -10.7483223043       43.5480538317  TIP3      3717            0.0000000000
     33404      3910  TIP3      OH2           -26.2877873949      -10.3691518946       55.6422052002  TIP3      3718            0.0000000000
     33405      3910  TIP3      H1            -26.8128955248      -11.1452329523       55.9526809973  TIP3      3718            0.0000000000
     33406      3910  TIP3      H2            -25.4493089237      -10.4911443857       56.1188961672  TIP3      3718            0.0000000000
     33407      3911  TIP3      OH2           -24.3065222285      -11.0865924918       47.0504667749  TIP3      3719            0.0000000000
     33408      3911  TIP3      H1            -24.5926830059      -10.5252498827       46.3103134462  TIP3      3719            0.0000000000
     33409      3911  TIP3      H2            -24.2129875142      -11.9379063920       46.5824303449  TIP3      3719            0.0000000000
     33410      3912  TIP3      OH2           -33.1844813673      -10.9645770961       52.2533016559  TIP3      3720            0.0000000000
     33411      3912  TIP3      H1            -33.1672046943      -10.5421530480       53.1272234337  TIP3      3720            0.0000000000
     33412      3912  TIP3      H2            -33.6729916688      -11.7779745749       52.4469728055  TIP3      3720            0.0000000000
     33413      3913  TIP3      OH2           -29.8281545586      -13.5506369414       39.1025265355  TIP3      3721            0.0000000000
     33414      3913  TIP3      H1            -30.2769473491      -13.9731351621       39.8622123315  TIP3      3721            0.0000000000
     33415      3913  TIP3      H2            -30.5414641509      -13.1224520644       38.6135884270  TIP3      3721            0.0000000000
     33416      3914  TIP3      OH2           -36.1627935371      -13.5153901227       46.0476518315  TIP3      3722            0.0000000000
     33417      3914  TIP3      H1            -35.8334644377      -13.8645400285       46.9037500472  TIP3      3722            0.0000000000
     33418      3914  TIP3      H2            -36.0312084132      -14.2728616221       45.4785424844  TIP3      3722            0.0000000000
     33419      3915  TIP3      OH2           -35.2884632844      -12.9738300571       41.5597217818  TIP3      3723            0.0000000000
     33420      3915  TIP3      H1            -34.7313026091      -12.4157734356       40.9779216849  TIP3      3723            0.0000000000
     33421      3915  TIP3      H2            -36.0157253124      -12.4141666373       41.8048083417  TIP3      3723            0.0000000000
     33422      3916  TIP3      OH2           -25.1122405018       -9.5065366286       51.6039487831  TIP3      3724            0.0000000000
     33423      3916  TIP3      H1            -24.7300840970      -10.1927495111       51.0200253284  TIP3      3724            0.0000000000
     33424      3916  TIP3      H2            -25.5783121352      -10.0338911502       52.2771535579  TIP3      3724            0.0000000000
     33425      3917  TIP3      OH2           -28.3079537661      -13.5237695729       46.4409525673  TIP3      3725            0.0000000000
     33426      3917  TIP3      H1            -29.2415113233      -13.5241366004       46.7348072897  TIP3      3725            0.0000000000
     33427      3917  TIP3      H2            -27.8258533163      -13.6988678719       47.2635176308  TIP3      3725            0.0000000000
     33428      3918  TIP3      OH2           -33.4854070520      -11.9854525868       45.3042421194  TIP3      3726            0.0000000000
     33429      3918  TIP3      H1            -34.3564614273      -11.8087473151       44.9060019129  TIP3      3726            0.0000000000
     33430      3918  TIP3      H2            -33.2481206503      -12.8333404877       44.8889118848  TIP3      3726            0.0000000000
     33431      3919  TIP3      OH2           -29.8575611063      -11.9327074735       42.9366178626  TIP3      3727            0.0000000000
     33432      3919  TIP3      H1            -28.9010920537      -11.8169143445       43.0935591515  TIP3      3727            0.0000000000
     33433      3919  TIP3      H2            -30.1090591700      -11.2461638032       42.2893226224  TIP3      3727            0.0000000000
     33434      3920  TIP3      OH2           -23.9035295396      -14.2931068052       49.6790714301  TIP3      3728            0.0000000000
     33435      3920  TIP3      H1            -24.5851816546      -14.2441775825       50.3854867823  TIP3      3728            0.0000000000
     33436      3920  TIP3      H2            -24.4125943886      -14.5490597606       48.8972681110  TIP3      3728            0.0000000000
     33437      3921  TIP3      OH2           -31.1364573796      -10.7623998817       40.5128668020  TIP3      3729            0.0000000000
     33438      3921  TIP3      H1            -31.6763775165      -11.1245340316       39.7921881717  TIP3      3729            0.0000000000
     33439      3921  TIP3      H2            -30.3158446270      -10.5434964015       40.0455659837  TIP3      3729            0.0000000000
     33440      3922  TIP3      OH2           -20.7028300975        1.3477951448       56.0069565083  TIP3      3730            0.0000000000
     33441      3922  TIP3      H1            -20.4361971576        1.7317682477       55.1524683220  TIP3      3730            0.0000000000
     33442      3922  TIP3      H2            -19.9786549396        1.6681061319       56.5655285731  TIP3      3730            0.0000000000
     33443      3923  TIP3      OH2           -33.0467599400       -6.1916393693       55.5891575968  TIP3      3731            0.0000000000
     33444      3923  TIP3      H1            -32.3058178344       -5.9481636439       56.1751663018  TIP3      3731            0.0000000000
     33445      3923  TIP3      H2            -33.7956142148       -6.0815722692       56.1989376160  TIP3      3731            0.0000000000
     33446      3924  TIP3      OH2           -27.0329860771      -10.7744528385       48.3327391537  TIP3      3732            0.0000000000
     33447      3924  TIP3      H1            -26.4266810579      -11.3032507427       47.8006663099  TIP3      3732            0.0000000000
     33448      3924  TIP3      H2            -27.1711004881      -11.3220437730       49.1174169467  TIP3      3732            0.0000000000
     33449      3925  TIP3      OH2           -32.0263052874      -14.6170138116       44.7647322421  TIP3      3733            0.0000000000
     33450      3925  TIP3      H1            -32.3359764035      -15.5387255588       44.7646021585  TIP3      3733            0.0000000000
     33451      3925  TIP3      H2            -31.2281570087      -14.6985192978       44.2280494112  TIP3      3733            0.0000000000
     33452      3926  TIP3      OH2           -28.3877660529      -12.4450303150       50.7474722806  TIP3      3734            0.0000000000
     33453      3926  TIP3      H1            -29.2125327189      -11.9262390969       50.8365807063  TIP3      3734            0.0000000000
     33454      3926  TIP3      H2            -27.8325010521      -12.0925149231       51.4700593694  TIP3      3734            0.0000000000
     33455      3927  TIP3      OH2           -27.7976212465       -6.2210666650       42.4446068595  TIP3      3735            0.0000000000
     33456      3927  TIP3      H1            -28.5974508579       -6.6867069382       42.1097260482  TIP3      3735            0.0000000000
     33457      3927  TIP3      H2            -28.0242365216       -6.0981593190       43.3891315799  TIP3      3735            0.0000000000
     33458      3928  TIP3      OH2           -20.6101186573       -7.0184901394       51.2484362549  TIP3      3736            0.0000000000
     33459      3928  TIP3      H1            -20.0482698666       -6.5350184641       50.6157379216  TIP3      3736            0.0000000000
     33460      3928  TIP3      H2            -21.4709454017       -6.9741436717       50.7851761537  TIP3      3736            0.0000000000
     33461      3929  TIP3      OH2           -23.9703883384      -13.4086752719       40.6207305987  TIP3      3737            0.0000000000
     33462      3929  TIP3      H1            -24.9207695806      -13.2539094669       40.4854109250  TIP3      3737            0.0000000000
     33463      3929  TIP3      H2            -23.6289703172      -12.5575684426       40.9708111283  TIP3      3737            0.0000000000
     33464      3930  TIP3      OH2           -26.3056526145       -5.9504664353       53.6911438043  TIP3      3738            0.0000000000
     33465      3930  TIP3      H1            -26.6534309636       -6.3810520030       54.4790268248  TIP3      3738            0.0000000000
     33466      3930  TIP3      H2            -26.5630796260       -5.0294727527       53.7978821792  TIP3      3738            0.0000000000
     33467      3931  TIP3      OH2           -23.2327405465      -11.4859277017       42.2438207933  TIP3      3739            0.0000000000
     33468      3931  TIP3      H1            -22.3515112081      -11.6192566561       42.6535687394  TIP3      3739            0.0000000000
     33469      3931  TIP3      H2            -23.1269681583      -10.6654584987       41.7343760560  TIP3      3739            0.0000000000
     33470      3932  TIP3      OH2           -32.6942854866       -6.8252765998       48.2331639959  TIP3      3740            0.0000000000
     33471      3932  TIP3      H1            -32.0169519747       -6.9080341031       47.5415196480  TIP3      3740            0.0000000000
     33472      3932  TIP3      H2            -32.5987658226       -7.6656925866       48.7134785253  TIP3      3740            0.0000000000
     33473      3933  TIP3      OH2           -25.7060824960       -4.7542257859       41.4752814593  TIP3      3741            0.0000000000
     33474      3933  TIP3      H1            -26.0485590396       -3.9085549020       41.8328812761  TIP3      3741            0.0000000000
     33475      3933  TIP3      H2            -26.4394111052       -5.3696313765       41.6943644433  TIP3      3741            0.0000000000
     33476      3934  TIP3      OH2           -35.7299679199       -8.4445154817       53.5093743577  TIP3      3742            0.0000000000
     33477      3934  TIP3      H1            -35.4707323153       -8.8847404598       54.3419596467  TIP3      3742            0.0000000000
     33478      3934  TIP3      H2            -36.3177730695       -9.0851688053       53.0848947858  TIP3      3742            0.0000000000
     33479      3935  TIP3      OH2           -28.6855308587       -8.8611141083       55.6822008701  TIP3      3743            0.0000000000
     33480      3935  TIP3      H1            -29.0058012298       -9.1731689381       54.8234472154  TIP3      3743            0.0000000000
     33481      3935  TIP3      H2            -27.7635565631       -9.1882899467       55.6814585511  TIP3      3743            0.0000000000
     33482      3936  TIP3      OH2           -23.9991898786       -3.5280336933       53.6392408142  TIP3      3744            0.0000000000
     33483      3936  TIP3      H1            -24.9244516371       -3.3499916546       53.4048624593  TIP3      3744            0.0000000000
     33484      3936  TIP3      H2            -24.0328974198       -3.2348273783       54.5698076707  TIP3      3744            0.0000000000
     33485      3937  TIP3      OH2           -18.3316743584      -11.3499794291       42.0239633613  TIP3      3745            0.0000000000
     33486      3937  TIP3      H1            -18.8997992670      -11.6341260524       41.2843372490  TIP3      3745            0.0000000000
     33487      3937  TIP3      H2            -18.2562944888      -10.4000811615       41.7715585933  TIP3      3745            0.0000000000
     33488      3938  TIP3      OH2           -18.3439239930       -5.4845076771       54.8298786271  TIP3      3746            0.0000000000
     33489      3938  TIP3      H1            -19.2369426264       -5.2653156100       54.4651341541  TIP3      3746            0.0000000000
     33490      3938  TIP3      H2            -17.7968522977       -5.5359383693       54.0188034034  TIP3      3746            0.0000000000
     33491      3939  TIP3      OH2           -20.0782664073       -2.5198210353       42.4179519797  TIP3      3747            0.0000000000
     33492      3939  TIP3      H1            -20.4084209015       -3.3572452169       42.7677198897  TIP3      3747            0.0000000000
     33493      3939  TIP3      H2            -19.7226057764       -2.7392399265       41.5411626557  TIP3      3747            0.0000000000
     33494      3940  TIP3      OH2           -22.8337374788       -7.7048414251       49.5313340318  TIP3      3748            0.0000000000
     33495      3940  TIP3      H1            -23.7743502275       -7.9120100919       49.4189177613  TIP3      3748            0.0000000000
     33496      3940  TIP3      H2            -22.4031163933       -8.4629134310       49.0932674236  TIP3      3748            0.0000000000
     33497      3941  TIP3      OH2           -30.3269183933       -3.3664399852       45.6443186259  TIP3      3749            0.0000000000
     33498      3941  TIP3      H1            -29.8203717977       -2.5676662976       45.4255219653  TIP3      3749            0.0000000000
     33499      3941  TIP3      H2            -31.2057790797       -3.1384943160       45.3093775441  TIP3      3749            0.0000000000
     33500      3942  TIP3      OH2           -34.6009153969       -8.5320827637       40.2387098571  TIP3      3750            0.0000000000
     33501      3942  TIP3      H1            -33.9581161551       -7.8725631683       40.5923130087  TIP3      3750            0.0000000000
     33502      3942  TIP3      H2            -35.4537532589       -8.1736808811       40.5014590583  TIP3      3750            0.0000000000
     33503      3943  TIP3      OH2           -28.9050683484       -5.7041303692       45.1357625339  TIP3      3751            0.0000000000
     33504      3943  TIP3      H1            -29.2171534942       -4.7857374208       45.2411640018  TIP3      3751            0.0000000000
     33505      3943  TIP3      H2            -29.6153394372       -6.2013399368       45.5896597482  TIP3      3751            0.0000000000
     33506      3944  TIP3      OH2           -28.4393500670       -1.5273263141       51.5550809219  TIP3      3752            0.0000000000
     33507      3944  TIP3      H1            -27.9920793817       -0.7156628487       51.2720360019  TIP3      3752            0.0000000000
     33508      3944  TIP3      H2            -27.8295886949       -1.8636267861       52.2356626361  TIP3      3752            0.0000000000
     33509      3945  TIP3      OH2           -30.2263604865       -0.7170756392       44.6718378119  TIP3      3753            0.0000000000
     33510      3945  TIP3      H1            -31.1894447821       -0.5727534515       44.8072369434  TIP3      3753            0.0000000000
     33511      3945  TIP3      H2            -29.8598633345        0.1192996500       45.0159723972  TIP3      3753            0.0000000000
     33512      3946  TIP3      OH2           -24.9320584197       -5.5295497958       51.1749745172  TIP3      3754            0.0000000000
     33513      3946  TIP3      H1            -25.2510947009       -5.7183788055       52.0821215377  TIP3      3754            0.0000000000
     33514      3946  TIP3      H2            -24.2873997057       -6.2360743194       51.0093243645  TIP3      3754            0.0000000000
     33515      3947  TIP3      OH2           -22.5858386253       -4.4468454582       40.2657232045  TIP3      3755            0.0000000000
     33516      3947  TIP3      H1            -22.2919470320       -4.9221341442       41.0692202745  TIP3      3755            0.0000000000
     33517      3947  TIP3      H2            -23.5394756350       -4.6324853810       40.3462545481  TIP3      3755            0.0000000000
     33518      3948  TIP3      OH2           -22.1069931247       -0.9436818600       53.6636870757  TIP3      3756            0.0000000000
     33519      3948  TIP3      H1            -22.8001993207       -1.4369342211       53.1855710053  TIP3      3756            0.0000000000
     33520      3948  TIP3      H2            -21.9253934779       -0.2429759083       53.0024973195  TIP3      3756            0.0000000000
     33521      3949  TIP3      OH2           -18.1270060014       -0.0957475293       40.5210008341  TIP3      3757            0.0000000000
     33522      3949  TIP3      H1            -17.4377486158        0.5673544953       40.3164288240  TIP3      3757            0.0000000000
     33523      3949  TIP3      H2            -18.8407488669        0.5160125551       40.8094726476  TIP3      3757            0.0000000000
     33524      3950  TIP3      OH2           -34.0491620320      -13.6852082148       53.0110641075  TIP3      3758            0.0000000000
     33525      3950  TIP3      H1            -34.9356466310      -13.3129232841       53.1052030201  TIP3      3758            0.0000000000
     33526      3950  TIP3      H2            -34.1606756054      -14.5215727316       53.4986371930  TIP3      3758            0.0000000000
     33527      3951  TIP3      OH2           -21.8128433265       -5.8148434019       42.5081532166  TIP3      3759            0.0000000000
     33528      3951  TIP3      H1            -22.0503830646       -6.6021922749       43.0452183246  TIP3      3759            0.0000000000
     33529      3951  TIP3      H2            -20.8600925111       -5.7719966031       42.6858819972  TIP3      3759            0.0000000000
     33530      3952  TIP3      OH2           -34.2662925640       -1.8534631566       51.4362491864  TIP3      3760            0.0000000000
     33531      3952  TIP3      H1            -34.1488889570       -2.8122977395       51.4944674877  TIP3      3760            0.0000000000
     33532      3952  TIP3      H2            -34.1825651539       -1.6212170980       52.3668508622  TIP3      3760            0.0000000000
     33533      3953  TIP3      OH2           -28.4589088475       -3.3780517594       38.7621301815  TIP3      3761            0.0000000000
     33534      3953  TIP3      H1            -28.3605377276       -4.1419671410       38.1712280060  TIP3      3761            0.0000000000
     33535      3953  TIP3      H2            -28.9019049994       -3.8084440039       39.5259475538  TIP3      3761            0.0000000000
     33536      3954  TIP3      OH2           -29.6888252272       -3.8511227120       41.2142150483  TIP3      3762            0.0000000000
     33537      3954  TIP3      H1            -29.4171901284       -4.3655109366       41.9838303435  TIP3      3762            0.0000000000
     33538      3954  TIP3      H2            -29.5964347912       -2.9248061473       41.5367439747  TIP3      3762            0.0000000000
     33539      3955  TIP3      OH2           -33.1948380714       -6.6076173748       41.6895243725  TIP3      3763            0.0000000000
     33540      3955  TIP3      H1            -33.9043775030       -6.2148178637       42.2419892745  TIP3      3763            0.0000000000
     33541      3955  TIP3      H2            -32.6719371848       -5.8274261658       41.4187544130  TIP3      3763            0.0000000000
     33542      3956  TIP3      OH2           -25.3129653031      -13.9133057468       52.0166855428  TIP3      3764            0.0000000000
     33543      3956  TIP3      H1            -24.6022457543      -13.8547313341       52.6630408228  TIP3      3764            0.0000000000
     33544      3956  TIP3      H2            -25.6987653998      -14.7894281603       52.2223407418  TIP3      3764            0.0000000000
     33545      3957  TIP3      OH2           -24.5742722742      -14.3493448499       43.1046487055  TIP3      3765            0.0000000000
     33546      3957  TIP3      H1            -24.3417706880      -13.8853163163       42.2756877477  TIP3      3765            0.0000000000
     33547      3957  TIP3      H2            -23.9959256387      -13.9057455477       43.7380514585  TIP3      3765            0.0000000000
     33548      3958  TIP3      OH2           -26.8826025232       -2.1882839413       41.9091426733  TIP3      3766            0.0000000000
     33549      3958  TIP3      H1            -27.7006358195       -1.6557943846       41.9815680237  TIP3      3766            0.0000000000
     33550      3958  TIP3      H2            -26.3437731986       -1.6376578454       41.3228530339  TIP3      3766            0.0000000000
     33551      3959  TIP3      OH2           -27.3406442105      -12.5965749640       43.9244284797  TIP3      3767            0.0000000000
     33552      3959  TIP3      H1            -26.5601982495      -12.0110706307       43.9726312119  TIP3      3767            0.0000000000
     33553      3959  TIP3      H2            -27.6097571033      -12.7222553137       44.8543032633  TIP3      3767            0.0000000000
     33554      3960  TIP3      OH2           -26.7906112569      -11.5710207922       53.1176755292  TIP3      3768            0.0000000000
     33555      3960  TIP3      H1            -26.7141461906      -11.0128565475       53.9148487215  TIP3      3768            0.0000000000
     33556      3960  TIP3      H2            -26.1258798540      -12.2646613142       53.2117696805  TIP3      3768            0.0000000000
     33557      3961  TIP3      OH2           -26.4967774655      -15.5389391841       44.8034243112  TIP3      3769            0.0000000000
     33558      3961  TIP3      H1            -26.8163435936      -14.8924991205       45.4551511040  TIP3      3769            0.0000000000
     33559      3961  TIP3      H2            -25.7996181940      -14.9931218141       44.3640474449  TIP3      3769            0.0000000000
     33560      3962  TIP3      OH2           -29.4810699078       -1.1597875460       41.9377800512  TIP3      3770            0.0000000000
     33561      3962  TIP3      H1            -29.3844954734       -0.3436959442       41.3851539454  TIP3      3770            0.0000000000
     33562      3962  TIP3      H2            -29.7533752565       -0.7892981061       42.8078869825  TIP3      3770            0.0000000000
     33563      3963  TIP3      OH2           -30.8237203929      -14.4329381088       41.5139249729  TIP3      3771            0.0000000000
     33564      3963  TIP3      H1            -30.8837246152      -13.5368853643       41.9027957794  TIP3      3771            0.0000000000
     33565      3963  TIP3      H2            -29.9184962782      -14.6757723113       41.7810676427  TIP3      3771            0.0000000000
     33566      3964  TIP3      OH2           -20.6115993087      -13.7017363482       53.9607390572  TIP3      3772            0.0000000000
     33567      3964  TIP3      H1            -21.5386862500      -13.3850914067       53.8320157082  TIP3      3772            0.0000000000
     33568      3964  TIP3      H2            -20.3103385899      -13.7148922747       53.0368640954  TIP3      3772            0.0000000000
     33569      3965  TIP3      OH2           -21.9931118587       -9.9137257117       47.9641123076  TIP3      3773            0.0000000000
     33570      3965  TIP3      H1            -22.8195743720      -10.3582018808       47.6927241901  TIP3      3773            0.0000000000
     33571      3965  TIP3      H2            -21.5156211430      -10.6002361156       48.4828913657  TIP3      3773            0.0000000000
     33572      3966  TIP3      OH2           -32.6205800013       -3.9790128652       40.5556953477  TIP3      3774            0.0000000000
     33573      3966  TIP3      H1            -31.9505043373       -3.3502143138       40.8675615529  TIP3      3774            0.0000000000
     33574      3966  TIP3      H2            -32.0886089276       -4.4590696657       39.8873007925  TIP3      3774            0.0000000000
     33575      3967  TIP3      OH2           -34.3031992686      -11.3293467129       39.6906209828  TIP3      3775            0.0000000000
     33576      3967  TIP3      H1            -34.2329411336      -10.3749335374       39.8922255977  TIP3      3775            0.0000000000
     33577      3967  TIP3      H2            -35.1871743370      -11.4993896404       39.3491157866  TIP3      3775            0.0000000000
     33578      3968  TIP3      OH2           -20.9335324705       -0.6516454487       49.6401580620  TIP3      3776            0.0000000000
     33579      3968  TIP3      H1            -21.0217756270        0.0284689177       48.9438294049  TIP3      3776            0.0000000000
     33580      3968  TIP3      H2            -19.9693807130       -0.6005255241       49.8133532387  TIP3      3776            0.0000000000
     33581      3969  TIP3      OH2           -33.4151499573      -16.5477882184       48.4260175342  TIP3      3777            0.0000000000
     33582      3969  TIP3      H1            -33.6339159118      -16.5135590665       47.4675422013  TIP3      3777            0.0000000000
     33583      3969  TIP3      H2            -33.8617160025      -17.3765933200       48.6923685582  TIP3      3777            0.0000000000
     33584      3970  TIP3      OH2           -34.4679187176       -2.6041041779       44.6128090877  TIP3      3778            0.0000000000
     33585      3970  TIP3      H1            -35.3272340549       -2.1799659927       44.5523064868  TIP3      3778            0.0000000000
     33586      3970  TIP3      H2            -33.9963929685       -2.1468101572       43.9006710323  TIP3      3778            0.0000000000
     33587      3971  TIP3      OH2           -34.9735001964        0.0654449807       55.8633267247  TIP3      3779            0.0000000000
     33588      3971  TIP3      H1            -34.5642200363       -0.1646127033       56.7117943339  TIP3      3779            0.0000000000
     33589      3971  TIP3      H2            -35.5020020479       -0.7432034448       55.7068455363  TIP3      3779            0.0000000000
     33590      3972  TIP3      OH2           -30.5957110379       -1.0547758449       57.4772635675  TIP3      3780            0.0000000000
     33591      3972  TIP3      H1            -29.8366292966       -1.5476002498       57.8109041320  TIP3      3780            0.0000000000
     33592      3972  TIP3      H2            -30.6238058254       -1.3262771062       56.5395077579  TIP3      3780            0.0000000000
     33593      3973  TIP3      OH2           -26.4656938902       -1.5270983234       38.8852003956  TIP3      3781            0.0000000000
     33594      3973  TIP3      H1            -27.1582919573       -2.1865063332       39.1129733125  TIP3      3781            0.0000000000
     33595      3973  TIP3      H2            -25.7474960839       -2.1257455783       38.6374286456  TIP3      3781            0.0000000000
     33596      3974  TIP3      OH2           -24.0973955577       -2.6567716477       56.2329318717  TIP3      3782            0.0000000000
     33597      3974  TIP3      H1            -24.4123954971       -3.5441107106       56.5074770504  TIP3      3782            0.0000000000
     33598      3974  TIP3      H2            -23.3285187929       -2.5380249538       56.8252673723  TIP3      3782            0.0000000000
     33599      3975  TIP3      OH2           -21.9083407585       -1.7813914288       39.0738151961  TIP3      3783            0.0000000000
     33600      3975  TIP3      H1            -21.6125977257       -2.5587069341       39.5750082093  TIP3      3783            0.0000000000
     33601      3975  TIP3      H2            -21.1464405208       -1.5577990167       38.5205274611  TIP3      3783            0.0000000000
     33602      3976  TIP3      OH2           -35.4055591823       -6.1828976454       56.8609845736  TIP3      3784            0.0000000000
     33603      3976  TIP3      H1            -35.1915468030       -7.0787448243       56.5385722299  TIP3      3784            0.0000000000
     33604      3976  TIP3      H2            -36.1225368128       -5.9090495038       56.2796615069  TIP3      3784            0.0000000000
     33605      3977  TIP3      OH2           -31.0205906083       -5.8400484285       38.8879343575  TIP3      3785            0.0000000000
     33606      3977  TIP3      H1            -30.8843918316       -6.6031489857       39.4691675376  TIP3      3785            0.0000000000
     33607      3977  TIP3      H2            -30.2707423901       -5.9597774211       38.2723062453  TIP3      3785            0.0000000000
     33608      3978  TIP3      OH2           -28.6533756772       -6.1979769258       56.2564670589  TIP3      3786            0.0000000000
     33609      3978  TIP3      H1            -28.9879351175       -5.8859760748       55.3930219968  TIP3      3786            0.0000000000
     33610      3978  TIP3      H2            -28.5797774680       -7.1764990773       56.1480511169  TIP3      3786            0.0000000000
     33611      3979  TIP3      OH2           -25.5898339893       -4.7334195905       38.6678553589  TIP3      3787            0.0000000000
     33612      3979  TIP3      H1            -25.8602307992       -4.6523498447       39.5961296725  TIP3      3787            0.0000000000
     33613      3979  TIP3      H2            -25.7793476179       -5.6910070209       38.5233238402  TIP3      3787            0.0000000000
     33614      3980  TIP3      OH2           -22.9576271539       -6.3395809962       53.6489869752  TIP3      3788            0.0000000000
     33615      3980  TIP3      H1            -22.1696899844       -5.7569115798       53.5868644434  TIP3      3788            0.0000000000
     33616      3980  TIP3      H2            -23.6572446908       -5.6716425761       53.6846612166  TIP3      3788            0.0000000000
     33617      3981  TIP3      OH2           -34.5141923418       -8.9731712749       56.2429441343  TIP3      3789            0.0000000000
     33618      3981  TIP3      H1            -34.0297491880       -9.8133548587       56.1603665025  TIP3      3789            0.0000000000
     33619      3981  TIP3      H2            -34.6886862913       -8.9636926386       57.1957333457  TIP3      3789            0.0000000000
     33620      3982  TIP3      OH2           -29.8187840543       -7.8243695029       41.3199032725  TIP3      3790            0.0000000000
     33621      3982  TIP3      H1            -30.3213079098       -8.3641829208       41.9479854496  TIP3      3790            0.0000000000
     33622      3982  TIP3      H2            -29.5182925987       -8.4974719126       40.6659512118  TIP3      3790            0.0000000000
     33623      3983  TIP3      OH2           -30.5528866953      -10.0189647461       53.6071887201  TIP3      3791            0.0000000000
     33624      3983  TIP3      H1            -31.1584032496       -9.3063761081       53.8688692714  TIP3      3791            0.0000000000
     33625      3983  TIP3      H2            -30.1556696857       -9.6485335085       52.7998659789  TIP3      3791            0.0000000000
     33626      3984  TIP3      OH2           -28.7438434118       -9.6008781528       39.5191153673  TIP3      3792            0.0000000000
     33627      3984  TIP3      H1            -28.8949285334       -9.6905431838       38.5573840860  TIP3      3792            0.0000000000
     33628      3984  TIP3      H2            -27.7655182624       -9.5495352128       39.5839202319  TIP3      3792            0.0000000000
     33629      3985  TIP3      OH2           -25.4755317274       -7.4484512130       56.9437491277  TIP3      3793            0.0000000000
     33630      3985  TIP3      H1            -24.5182604810       -7.4668276185       56.8255187587  TIP3      3793            0.0000000000
     33631      3985  TIP3      H2            -25.6494674461       -8.2154117311       57.5121225226  TIP3      3793            0.0000000000
     33632      3986  TIP3      OH2           -19.4120343085       -7.2820955521       38.9282978714  TIP3      3794            0.0000000000
     33633      3986  TIP3      H1            -19.6040515748       -7.6632802233       38.0582842168  TIP3      3794            0.0000000000
     33634      3986  TIP3      H2            -19.3206258348       -6.3196719349       38.7399368573  TIP3      3794            0.0000000000
     33635      3987  TIP3      OH2           -30.1152260216      -12.6351415812       54.6626541094  TIP3      3795            0.0000000000
     33636      3987  TIP3      H1            -30.0277759726      -13.3473480921       54.0031924546  TIP3      3795            0.0000000000
     33637      3987  TIP3      H2            -30.2119366508      -11.8286314001       54.1154200274  TIP3      3795            0.0000000000
     33638      3988  TIP3      OH2           -29.7371121566      -14.2573645933       52.2196543229  TIP3      3796            0.0000000000
     33639      3988  TIP3      H1            -29.2283256707      -13.7920689077       51.5141942926  TIP3      3796            0.0000000000
     33640      3988  TIP3      H2            -30.6314191009      -14.3360395047       51.8117335716  TIP3      3796            0.0000000000
     33641      3989  TIP3      OH2           -28.2044907797       -8.7682411497       52.4608270014  TIP3      3797            0.0000000000
     33642      3989  TIP3      H1            -27.4497086943       -8.9329393783       51.8886040428  TIP3      3797            0.0000000000
     33643      3989  TIP3      H2            -28.5680261228       -7.9341906516       52.1223321002  TIP3      3797            0.0000000000
     33644      3990  TIP3      OH2           -23.8145338535      -11.0124426650       57.3906067193  TIP3      3798            0.0000000000
     33645      3990  TIP3      H1            -23.5745921235      -11.9494182711       57.3326258494  TIP3      3798            0.0000000000
     33646      3990  TIP3      H2            -22.9482812977      -10.5730828308       57.4527215373  TIP3      3798            0.0000000000
     33647      3991  TIP3      OH2           -22.4649604401       -8.2223643765       55.5876256918  TIP3      3799            0.0000000000
     33648      3991  TIP3      H1            -22.7173791484       -7.5014296709       54.9703364671  TIP3      3799            0.0000000000
     33649      3991  TIP3      H2            -21.5073826324       -8.2541110644       55.3984754184  TIP3      3799            0.0000000000
     33650      3992  TIP3      OH2           -31.7124353009      -11.3748898984       56.5709985554  TIP3      3800            0.0000000000
     33651      3992  TIP3      H1            -32.4711486605      -11.9784492064       56.4202019962  TIP3      3800            0.0000000000
     33652      3992  TIP3      H2            -31.0466596496      -11.7581430610       55.9694997972  TIP3      3800            0.0000000000
     33653      3993  TIP3      OH2           -28.9537827783      -16.8201655244       52.6055855014  TIP3      3801            0.0000000000
     33654      3993  TIP3      H1            -29.1364888187      -15.8581985985       52.5086526327  TIP3      3801            0.0000000000
     33655      3993  TIP3      H2            -29.7014847087      -17.1882792689       52.1030096183  TIP3      3801            0.0000000000
     33656      3994  TIP3      OH2           -27.6741791398      -12.4902012165       56.2344803251  TIP3      3802            0.0000000000
     33657      3994  TIP3      H1            -27.9957920747      -12.7235869581       57.1279676544  TIP3      3802            0.0000000000
     33658      3994  TIP3      H2            -28.4597920394      -12.6925141852       55.6929509846  TIP3      3802            0.0000000000
     33659      3995  TIP3      OH2           -24.9610360361      -13.3472735881       55.3236589263  TIP3      3803            0.0000000000
     33660      3995  TIP3      H1            -25.9261233277      -13.2936328402       55.4325606570  TIP3      3803            0.0000000000
     33661      3995  TIP3      H2            -24.6969948215      -13.9880792703       56.0114981105  TIP3      3803            0.0000000000
     33662      3996  TIP3      OH2           -23.3785184500      -14.7288399578       57.2227723386  TIP3      3804            0.0000000000
     33663      3996  TIP3      H1            -23.4276041215      -15.7067264059       57.2535984621  TIP3      3804            0.0000000000
     33664      3996  TIP3      H2            -23.6266355616      -14.4355734556       58.1223265850  TIP3      3804            0.0000000000
     33665      3997  TIP3      OH2           -33.4614336296      -13.4842642450       56.3772782601  TIP3      3805            0.0000000000
     33666      3997  TIP3      H1            -33.3493037580      -14.2097112152       55.7376344080  TIP3      3805            0.0000000000
     33667      3997  TIP3      H2            -33.6801890319      -13.9529781046       57.2062385813  TIP3      3805            0.0000000000
     33668      3998  TIP3      OH2           -28.7402365789      -17.4261001149       55.3068820928  TIP3      3806            0.0000000000
     33669      3998  TIP3      H1            -28.0737685286      -18.1421295072       55.2991377738  TIP3      3806            0.0000000000
     33670      3998  TIP3      H2            -28.8524379830      -17.2857698191       54.3462955756  TIP3      3806            0.0000000000
     33671      3999  TIP3      OH2           -28.3753339499      -15.8142301505       57.4224186212  TIP3      3807            0.0000000000
     33672      3999  TIP3      H1            -28.5503923262      -16.3196518645       56.5898166203  TIP3      3807            0.0000000000
     33673      3999  TIP3      H2            -28.9762632782      -15.0504380931       57.3218408493  TIP3      3807            0.0000000000
     33674      4000  TIP3      OH2           -28.9105105456        1.1000217024       40.5969298484  TIP3      3808            0.0000000000
     33675      4000  TIP3      H1            -27.9437147240        1.1845280487       40.6640789086  TIP3      3808            0.0000000000
     33676      4000  TIP3      H2            -29.0559926801        1.7008555403       39.8573572866  TIP3      3808            0.0000000000
     33677      4001  TIP3      OH2           -35.3164113287       -4.3264721238       40.0789445995  TIP3      3809            0.0000000000
     33678      4001  TIP3      H1            -34.3550252839       -4.2136155280       40.2521542258  TIP3      3809            0.0000000000
     33679      4001  TIP3      H2            -35.2798025579       -4.9689597849       39.3445726245  TIP3      3809            0.0000000000
     33680      4002  TIP3      OH2            36.8612505637        1.2204596031       44.8640416576  TIP3      3810            0.0000000000
     33681      4002  TIP3      H1             35.9516167148        1.0117183359       44.5582418756  TIP3      3810            0.0000000000
     33682      4002  TIP3      H2             36.9509732933        0.5857974525       45.6152896828  TIP3      3810            0.0000000000
     33683      4003  TIP3      OH2           -35.7241902991       -0.7666881143       46.8594122621  TIP3      3811            0.0000000000
     33684      4003  TIP3      H1            -36.0815379325       -1.6543882047       47.0905810655  TIP3      3811            0.0000000000
     33685      4003  TIP3      H2            -35.4795390661       -0.4865503107       47.7604740155  TIP3      3811            0.0000000000
     33686      4004  TIP3      OH2           -18.2137102253       -0.0090950380       49.8356806540  TIP3      3812            0.0000000000
     33687      4004  TIP3      H1            -18.1816978640        0.1501226073       50.7948998457  TIP3      3812            0.0000000000
     33688      4004  TIP3      H2            -17.5091130005        0.5727111789       49.5326221030  TIP3      3812            0.0000000000
     33689      4005  TIP3      OH2           -18.6415441173       -0.4144879751       52.7829694632  TIP3      3813            0.0000000000
     33690      4005  TIP3      H1            -19.1109644369       -1.1841384516       52.4002495755  TIP3      3813            0.0000000000
     33691      4005  TIP3      H2            -18.1531139543       -0.8612962206       53.4942378385  TIP3      3813            0.0000000000
     33692      4006  TIP3      OH2           -20.1948733988       -4.6946663564       57.4548265201  TIP3      3814            0.0000000000
     33693      4006  TIP3      H1            -21.1012557191       -4.7203703351       57.8189641543  TIP3      3814            0.0000000000
     33694      4006  TIP3      H2            -19.8231783230       -3.8885223733       57.8652614547  TIP3      3814            0.0000000000
     33695      4007  TIP3      OH2           -18.8808672244       -6.3625601241       42.8822748495  TIP3      3815            0.0000000000
     33696      4007  TIP3      H1            -18.0134980906       -5.9730888231       43.0689428701  TIP3      3815            0.0000000000
     33697      4007  TIP3      H2            -18.8967649109       -7.0817794435       43.5513829684  TIP3      3815            0.0000000000
     33698      4008  TIP3      OH2           -18.5212514766       -8.2874459799       44.7720062745  TIP3      3816            0.0000000000
     33699      4008  TIP3      H1            -19.2725378102       -8.7865429400       45.1642439013  TIP3      3816            0.0000000000
     33700      4008  TIP3      H2            -17.9236868059       -8.1581827639       45.5344491577  TIP3      3816            0.0000000000
     33701      4009  TIP3      OH2           -18.7629928176       -5.5914048443       49.7575071448  TIP3      3817            0.0000000000
     33702      4009  TIP3      H1            -17.9500570314       -5.9700278766       49.3760014673  TIP3      3817            0.0000000000
     33703      4009  TIP3      H2            -18.6169438721       -4.6389662619       49.5850937864  TIP3      3817            0.0000000000
     33704      4010  TIP3      OH2           -20.2036016964       -2.6857515663       52.0241043801  TIP3      3818            0.0000000000
     33705      4010  TIP3      H1            -20.8941740711       -2.3451635256       52.6130261081  TIP3      3818            0.0000000000
     33706      4010  TIP3      H2            -20.7509697545       -3.0885172971       51.3159192311  TIP3      3818            0.0000000000
     33707      4011  TIP3      OH2           -18.2196443160       -8.4639071456       41.1628146560  TIP3      3819            0.0000000000
     33708      4011  TIP3      H1            -18.7864285442       -8.1226774955       40.4390915009  TIP3      3819            0.0000000000
     33709      4011  TIP3      H2            -18.3193318601       -7.7509831899       41.8211248683  TIP3      3819            0.0000000000
     33710      4012  TIP3      OH2           -19.8433334116      -11.2383594760       39.6735357142  TIP3      3820            0.0000000000
     33711      4012  TIP3      H1            -19.7685673487      -10.5720215461       38.9803714562  TIP3      3820            0.0000000000
     33712      4012  TIP3      H2            -20.0313464705      -12.0600279599       39.1794502871  TIP3      3820            0.0000000000
     33713      4013  TIP3      OH2           -20.6984529946       -9.8156924719       45.3405039353  TIP3      3821            0.0000000000
     33714      4013  TIP3      H1            -20.8457227176      -10.7697605665       45.3011386432  TIP3      3821            0.0000000000
     33715      4013  TIP3      H2            -21.0303586456       -9.5996092370       46.2305113164  TIP3      3821            0.0000000000
     33716      4014  TIP3      OH2           -35.6774506172       -7.7441568677       49.3209178436  TIP3      3822            0.0000000000
     33717      4014  TIP3      H1            -35.4739853219       -7.7845448412       48.3626954214  TIP3      3822            0.0000000000
     33718      4014  TIP3      H2            -34.7975383041       -7.8539800835       49.7404535231  TIP3      3822            0.0000000000
     33719      4015  TIP3      OH2           -19.8384354817       -7.8467612568       55.0310188931  TIP3      3823            0.0000000000
     33720      4015  TIP3      H1            -19.2289645058       -8.6038541437       55.1631372520  TIP3      3823            0.0000000000
     33721      4015  TIP3      H2            -19.2343183721       -7.0739097848       55.0335597007  TIP3      3823            0.0000000000
     33722      4016  TIP3      OH2           -18.3383355805       -9.9687950239       55.6819571489  TIP3      3824            0.0000000000
     33723      4016  TIP3      H1            -19.2209220159      -10.3672540462       55.5253015317  TIP3      3824            0.0000000000
     33724      4016  TIP3      H2            -17.7669403491      -10.7508994189       55.6052516243  TIP3      3824            0.0000000000
     33725      4017  TIP3      OH2           -20.5940020894      -13.7644410445       38.8111686018  TIP3      3825            0.0000000000
     33726      4017  TIP3      H1            -20.0080122563      -14.2025060503       39.4560080396  TIP3      3825            0.0000000000
     33727      4017  TIP3      H2            -21.4617541281      -14.1778050341       38.9634967894  TIP3      3825            0.0000000000
     33728      4018  TIP3      OH2           -21.0542702076      -12.2351975786       43.7542218806  TIP3      3826            0.0000000000
     33729      4018  TIP3      H1            -20.7369286548      -13.1551506348       43.9169845856  TIP3      3826            0.0000000000
     33730      4018  TIP3      H2            -20.2310783750      -11.8256893906       43.4527988955  TIP3      3826            0.0000000000
     33731      4019  TIP3      OH2           -20.3925724849      -11.6877059335       49.2430118065  TIP3      3827            0.0000000000
     33732      4019  TIP3      H1            -19.4316481632      -11.4574178008       49.2267125247  TIP3      3827            0.0000000000
     33733      4019  TIP3      H2            -20.5798030477      -11.5475586382       50.1829604338  TIP3      3827            0.0000000000
     33734      4020  TIP3      OH2           -20.3244376517      -10.9680072715       52.0310257311  TIP3      3828            0.0000000000
     33735      4020  TIP3      H1            -21.2092797794      -10.6789738040       52.3433832236  TIP3      3828            0.0000000000
     33736      4020  TIP3      H2            -19.8930633349      -10.1091170897       51.8022837580  TIP3      3828            0.0000000000
     33737      4021  TIP3      OH2           -35.8040803024      -12.5620659570       55.5341417046  TIP3      3829            0.0000000000
     33738      4021  TIP3      H1            -34.9172978284      -12.7434201338       55.8728446755  TIP3      3829            0.0000000000
     33739      4021  TIP3      H2            -36.3794699318      -13.2469028515       55.9541135391  TIP3      3829            0.0000000000
     33740      4022  TIP3      OH2           -18.0565776172      -16.9014013834       57.3597220474  TIP3      3830            0.0000000000
     33741      4022  TIP3      H1            -17.7016911931      -17.5634682586       56.7417987001  TIP3      3830            0.0000000000
     33742      4022  TIP3      H2            -17.9505836919      -16.0865830572       56.8305702590  TIP3      3830            0.0000000000
     33743      4023  TIP3      OH2           -20.3574930684      -14.9435426839       43.8454815307  TIP3      3831            0.0000000000
     33744      4023  TIP3      H1            -20.1455175411      -15.3802720542       44.6986409787  TIP3      3831            0.0000000000
     33745      4023  TIP3      H2            -20.9581234624      -15.5831753582       43.4078198989  TIP3      3831            0.0000000000
     33746      4024  TIP3      OH2           -34.8332427061      -14.1809044957       48.3615901756  TIP3      3832            0.0000000000
     33747      4024  TIP3      H1            -34.3758000748      -14.9760062663       48.6884047075  TIP3      3832            0.0000000000
     33748      4024  TIP3      H2            -34.3328496652      -13.4744756504       48.8073666768  TIP3      3832            0.0000000000
     33749      4025  TIP3      OH2           -36.0166053803      -10.3816149508       49.7999861344  TIP3      3833            0.0000000000
     33750      4025  TIP3      H1            -35.9823324795      -10.8112197764       48.9195094761  TIP3      3833            0.0000000000
     33751      4025  TIP3      H2            -35.9396466900       -9.4666304076       49.5197722348  TIP3      3833            0.0000000000
     33752      4026  TIP3      OH2           -18.5339720620      -14.8026050560       55.7174124427  TIP3      3834            0.0000000000
     33753      4026  TIP3      H1            -19.4727036173      -14.5318303599       55.6664325489  TIP3      3834            0.0000000000
     33754      4026  TIP3      H2            -18.5007787870      -15.3550485645       54.9214626155  TIP3      3834            0.0000000000
     33755      4027  TIP3      OH2           -18.5449253632      -14.9092312259       40.3990456064  TIP3      3835            0.0000000000
     33756      4027  TIP3      H1            -18.1304331176      -15.6212241375       39.8621570593  TIP3      3835            0.0000000000
     33757      4027  TIP3      H2            -17.8414909565      -14.2456517035       40.4520929869  TIP3      3835            0.0000000000
     33758      4028  TIP3      OH2           -35.7598859283      -14.9231755115       43.0796599122  TIP3      3836            0.0000000000
     33759      4028  TIP3      H1            -36.7050637997      -14.7376775484       43.2049740054  TIP3      3836            0.0000000000
     33760      4028  TIP3      H2            -35.5362984515      -14.1632628870       42.5045605135  TIP3      3836            0.0000000000
     33761      4029  TIP3      OH2           -21.4927129294        0.0743439900       45.4670538970  TIP3      3837            0.0000000000
     33762      4029  TIP3      H1            -20.8084583507       -0.2285940739       44.8431059313  TIP3      3837            0.0000000000
     33763      4029  TIP3      H2            -20.9759103761        0.5719488529       46.1174015260  TIP3      3837            0.0000000000
     33764      4030  TIP3      OH2            37.0291379969      -16.2554577792       52.0241881596  TIP3      3838            0.0000000000
     33765      4030  TIP3      H1             36.2407408905      -16.4669845684       52.5487900465  TIP3      3838            0.0000000000
     33766      4030  TIP3      H2             36.5476849455      -15.7432244463       51.3515981301  TIP3      3838            0.0000000000
     33767      4031  TIP3      OH2           -34.0741559356       -2.9957064619       55.9821528930  TIP3      3839            0.0000000000
     33768      4031  TIP3      H1            -34.9202948201       -2.8208573508       55.5531906676  TIP3      3839            0.0000000000
     33769      4031  TIP3      H2            -34.3295729344       -3.0982912278       56.8996898308  TIP3      3839            0.0000000000
     33770      4032  TIP3      OH2           -31.1075957754       -1.9955288193       52.2804549404  TIP3      3840            0.0000000000
     33771      4032  TIP3      H1            -31.5054775281       -1.1604755428       51.9784645250  TIP3      3840            0.0000000000
     33772      4032  TIP3      H2            -30.1993176396       -1.9082463858       51.9342111379  TIP3      3840            0.0000000000
     33773      4033  TIP3      OH2           -26.8216703342       -0.5948056401       55.1507563438  TIP3      3841            0.0000000000
     33774      4033  TIP3      H1            -26.6852994215       -0.9493766065       56.0591610738  TIP3      3841            0.0000000000
     33775      4033  TIP3      H2            -25.9175241559       -0.2917179293       54.9113070795  TIP3      3841            0.0000000000
     33776      4034  TIP3      OH2           -24.5334312528        0.6728249868       54.4646518988  TIP3      3842            0.0000000000
     33777      4034  TIP3      H1            -23.8013744543        0.0881430595       54.2264743706  TIP3      3842            0.0000000000
     33778      4034  TIP3      H2            -24.1575369398        1.1116731538       55.2583716045  TIP3      3842            0.0000000000
     33779      4035  TIP3      OH2           -19.5128362927      -16.7138023431       53.5715024260  TIP3      3843            0.0000000000
     33780      4035  TIP3      H1            -20.3414926608      -16.4148279004       53.1596789270  TIP3      3843            0.0000000000
     33781      4035  TIP3      H2            -19.3454059825      -17.5365882520       53.0537263382  TIP3      3843            0.0000000000
     33782      4036  TIP3      OH2           -33.6846209804        1.2241976303       52.2660402951  TIP3      3844            0.0000000000
     33783      4036  TIP3      H1            -34.4344093701        1.7126429634       51.8714991630  TIP3      3844            0.0000000000
     33784      4036  TIP3      H2            -34.0324621072        1.0313288735       53.1505961929  TIP3      3844            0.0000000000
     33785      4037  TIP3      OH2           -31.2351935211        0.8030915241       51.3041733008  TIP3      3845            0.0000000000
     33786      4037  TIP3      H1            -32.1317674737        0.9332476252       51.6991896426  TIP3      3845            0.0000000000
     33787      4037  TIP3      H2            -31.2905670237        1.3987906490       50.5369080169  TIP3      3845            0.0000000000
     33788      4038  TIP3      OH2           -26.5399776790        0.7108889020       50.4829919436  TIP3      3846            0.0000000000
     33789      4038  TIP3      H1            -27.0038707473        1.2669414980       49.8397271740  TIP3      3846            0.0000000000
     33790      4038  TIP3      H2            -26.4090075170        1.3399849655       51.2237668298  TIP3      3846            0.0000000000
     33791      4039  TIP3      OH2           -24.2544629578       -0.4842686846       51.5191656716  TIP3      3847            0.0000000000
     33792      4039  TIP3      H1            -25.1066820183       -0.2057320037       51.1461984053  TIP3      3847            0.0000000000
     33793      4039  TIP3      H2            -23.7668852344        0.3523686103       51.4244112937  TIP3      3847            0.0000000000
     33794      4040  TIP3      OH2           -21.6706910358        1.0872883331       51.7359707701  TIP3      3848            0.0000000000
     33795      4040  TIP3      H1            -21.7234787869        2.0467365872       51.5085670578  TIP3      3848            0.0000000000
     33796      4040  TIP3      H2            -21.4536377775        0.7129951676       50.8587128176  TIP3      3848            0.0000000000
     33797      4041  TIP3      OH2           -34.3101297677       -0.1297591599       49.1776072201  TIP3      3849            0.0000000000
     33798      4041  TIP3      H1            -34.3134491872       -0.5798649610       50.0477796225  TIP3      3849            0.0000000000
     33799      4041  TIP3      H2            -33.4934502459       -0.5052471753       48.7895976537  TIP3      3849            0.0000000000
     33800      4042  TIP3      OH2           -32.2102838252       -1.4153675563       47.8481118585  TIP3      3850            0.0000000000
     33801      4042  TIP3      H1            -32.3648325331       -2.3529843935       48.0804894140  TIP3      3850            0.0000000000
     33802      4042  TIP3      H2            -31.3430288108       -1.2641497055       48.2851214274  TIP3      3850            0.0000000000
     33803      4043  TIP3      OH2           -29.5938161770       -0.9430058583       48.7224629592  TIP3      3851            0.0000000000
     33804      4043  TIP3      H1            -29.4213794172       -1.8645489037       48.4579087728  TIP3      3851            0.0000000000
     33805      4043  TIP3      H2            -29.5270676743       -0.9925305718       49.6870531894  TIP3      3851            0.0000000000
     33806      4044  TIP3      OH2           -26.1236224945      -15.2879297821       47.8568652233  TIP3      3852            0.0000000000
     33807      4044  TIP3      H1            -26.8004041372      -15.9280053171       48.1364011915  TIP3      3852            0.0000000000
     33808      4044  TIP3      H2            -25.5716635810      -15.8207712353       47.2721343018  TIP3      3852            0.0000000000
     33809      4045  TIP3      OH2           -20.9870773996      -17.2397277699       47.9174166088  TIP3      3853            0.0000000000
     33810      4045  TIP3      H1            -20.3753642976      -16.6462122427       47.4113734302  TIP3      3853            0.0000000000
     33811      4045  TIP3      H2            -21.8694580330      -16.8779142233       47.6887757055  TIP3      3853            0.0000000000
     33812      4046  TIP3      OH2           -19.3200121266      -15.9889161389       46.1949596103  TIP3      3854            0.0000000000
     33813      4046  TIP3      H1            -18.6325658887      -16.5647435564       45.7813551191  TIP3      3854            0.0000000000
     33814      4046  TIP3      H2            -18.8119429557      -15.1529202533       46.3030038517  TIP3      3854            0.0000000000
     33815      4047  TIP3      OH2           -33.7443679262      -16.6705884073       45.7323679620  TIP3      3855            0.0000000000
     33816      4047  TIP3      H1            -34.5231807364      -16.8695423590       45.1668466400  TIP3      3855            0.0000000000
     33817      4047  TIP3      H2            -33.2538460609      -17.5087971040       45.6308290527  TIP3      3855            0.0000000000
     33818      4048  TIP3      OH2           -34.9683716848      -16.9302164999       41.3795636517  TIP3      3856            0.0000000000
     33819      4048  TIP3      H1            -34.4553245523      -16.2593312855       40.8970722200  TIP3      3856            0.0000000000
     33820      4048  TIP3      H2            -35.5285141316      -16.3607449739       41.9424516350  TIP3      3856            0.0000000000
     33821      4049  TIP3      OH2           -29.2829249205      -16.7349644039       45.4891483499  TIP3      3857            0.0000000000
     33822      4049  TIP3      H1            -28.3816418747      -16.3778747475       45.4118125080  TIP3      3857            0.0000000000
     33823      4049  TIP3      H2            -29.3154272828      -16.9543645114       46.4196376778  TIP3      3857            0.0000000000
     33824      4050  TIP3      OH2           -23.5663296853      -16.7174184345       47.1128402701  TIP3      3858            0.0000000000
     33825      4050  TIP3      H1            -23.6187744278      -16.6033896537       46.1551025935  TIP3      3858            0.0000000000
     33826      4050  TIP3      H2            -23.9456939491      -17.6213503834       47.2408756657  TIP3      3858            0.0000000000
     33827      4051  TIP3      OH2           -22.3007575203      -16.6873108473       42.7982600949  TIP3      3859            0.0000000000
     33828      4051  TIP3      H1            -23.0497886093      -16.0936497689       42.6395029865  TIP3      3859            0.0000000000
     33829      4051  TIP3      H2            -22.7401511748      -17.5399133020       43.0307238682  TIP3      3859            0.0000000000
     33830      4052  TIP3      OH2           -35.0657182011       -0.9223908140       42.4798163587  TIP3      3860            0.0000000000
     33831      4052  TIP3      H1            -35.6726438305       -0.9511312066       41.7255280119  TIP3      3860            0.0000000000
     33832      4052  TIP3      H2            -35.0457872916        0.0333311344       42.6198255180  TIP3      3860            0.0000000000
     33833      4053  TIP3      OH2           -33.1650864815      -14.9607602472       39.9677985755  TIP3      3861            0.0000000000
     33834      4053  TIP3      H1            -32.6395986508      -15.5644123306       39.4115522940  TIP3      3861            0.0000000000
     33835      4053  TIP3      H2            -32.4634276954      -14.6507730925       40.5695641652  TIP3      3861            0.0000000000
     33836      4054  TIP3      OH2           -28.1297618485      -14.7219487247       42.3390705707  TIP3      3862            0.0000000000
     33837      4054  TIP3      H1            -27.8771440517      -15.3014471003       43.0770012350  TIP3      3862            0.0000000000
     33838      4054  TIP3      H2            -28.0595108725      -13.8555560887       42.7976651464  TIP3      3862            0.0000000000
     33839      4055  TIP3      OH2           -26.1964161991        0.3526194416       40.7872502998  TIP3      3863            0.0000000000
     33840      4055  TIP3      H1            -25.2786166343        0.5783016448       40.5653622072  TIP3      3863            0.0000000000
     33841      4055  TIP3      H2            -26.4170225726       -0.1678911479       39.9863760091  TIP3      3863            0.0000000000
     33842      4056  TIP3      OH2           -19.5042770151       -0.1476320875       43.5080746380  TIP3      3864            0.0000000000
     33843      4056  TIP3      H1            -19.6927124352       -0.9299996263       42.9357292149  TIP3      3864            0.0000000000
     33844      4056  TIP3      H2            -19.5691495741        0.5873180432       42.8640940960  TIP3      3864            0.0000000000
     33845      4057  TIP3      OH2           -33.9096550400      -16.1015084690       55.1758476778  TIP3      3865            0.0000000000
     33846      4057  TIP3      H1            -34.2731219000      -16.9363053269       55.5452148518  TIP3      3865            0.0000000000
     33847      4057  TIP3      H2            -32.9956487813      -16.1745114429       55.5420189321  TIP3      3865            0.0000000000
     33848      4058  TIP3      OH2           -31.8489624003      -16.7373544769       56.7828703893  TIP3      3866            0.0000000000
     33849      4058  TIP3      H1            -30.9634722499      -17.0951898145       56.5822346706  TIP3      3866            0.0000000000
     33850      4058  TIP3      H2            -32.2692046551      -17.5337605639       57.1846469040  TIP3      3866            0.0000000000
     33851      4059  TIP3      OH2           -33.2758689570       -0.0029935891       39.3795013049  TIP3      3867            0.0000000000
     33852      4059  TIP3      H1            -33.5243978933        0.2725754202       40.2706324331  TIP3      3867            0.0000000000
     33853      4059  TIP3      H2            -32.4677905499       -0.5236092791       39.5478683509  TIP3      3867            0.0000000000
     33854      4060  TIP3      OH2           -23.4653148101      -17.4465883181       56.9516504524  TIP3      3868            0.0000000000
     33855      4060  TIP3      H1            -23.3712859886      -17.9233089959       57.7985818987  TIP3      3868            0.0000000000
     33856      4060  TIP3      H2            -22.5485117815      -17.4840876503       56.6054961759  TIP3      3868            0.0000000000
     33857      4061  TIP3      OH2           -20.2543615014       -1.3987536967       55.5792920077  TIP3      3869            0.0000000000
     33858      4061  TIP3      H1            -21.0586010341       -1.5350143124       55.0326452124  TIP3      3869            0.0000000000
     33859      4061  TIP3      H2            -20.3709384320       -0.4518075985       55.7965268243  TIP3      3869            0.0000000000
     33860      4062  TIP3      OH2            -5.8046870305       -7.5118609588       45.5520629954  TIP3      3870            0.0000000000
     33861      4062  TIP3      H1             -5.8365329122       -6.5302656701       45.5472648909  TIP3      3870            0.0000000000
     33862      4062  TIP3      H2             -6.5355064070       -7.7533278275       44.9581751184  TIP3      3870            0.0000000000
     33863      4063  TIP3      OH2            -6.9126097398       -8.3013228368       49.0528073461  TIP3      3871            0.0000000000
     33864      4063  TIP3      H1             -6.9764393446       -8.9265730051       49.7841223944  TIP3      3871            0.0000000000
     33865      4063  TIP3      H2             -7.3170594824       -8.7726534723       48.3099201413  TIP3      3871            0.0000000000
     33866      4064  TIP3      OH2           -14.6018321773       -8.5891770873       50.6127480631  TIP3      3872            0.0000000000
     33867      4064  TIP3      H1            -14.5183839142       -9.2772990532       51.3059592756  TIP3      3872            0.0000000000
     33868      4064  TIP3      H2            -13.8516176224       -8.0192510626       50.8365732431  TIP3      3872            0.0000000000
     33869      4065  TIP3      OH2            -3.2395115936       -5.3290581988       47.3507978288  TIP3      3873            0.0000000000
     33870      4065  TIP3      H1             -3.7072965664       -6.0192232305       47.8309455109  TIP3      3873            0.0000000000
     33871      4065  TIP3      H2             -3.2597031107       -4.6073876254       48.0106624805  TIP3      3873            0.0000000000
     33872      4066  TIP3      OH2           -13.6929950134       -4.1479660613       49.1188210393  TIP3      3874            0.0000000000
     33873      4066  TIP3      H1            -13.9853415236       -5.0205148227       48.7954429732  TIP3      3874            0.0000000000
     33874      4066  TIP3      H2            -12.7233317190       -4.3080561765       49.1538859060  TIP3      3874            0.0000000000
     33875      4067  TIP3      OH2           -17.0385317787      -10.5871249979       44.6062404735  TIP3      3875            0.0000000000
     33876      4067  TIP3      H1            -17.4742028845       -9.7163032686       44.5399364619  TIP3      3875            0.0000000000
     33877      4067  TIP3      H2            -17.5992644267      -11.1273066359       44.0342567595  TIP3      3875            0.0000000000
     33878      4068  TIP3      OH2           -16.3251987319       -8.3602032436       46.7532263601  TIP3      3876            0.0000000000
     33879      4068  TIP3      H1            -16.0504837031       -9.1822009960       47.2015837014  TIP3      3876            0.0000000000
     33880      4068  TIP3      H2            -15.6314717314       -8.2531940601       46.0848994842  TIP3      3876            0.0000000000
     33881      4069  TIP3      OH2            -6.1255323474       -0.1314900772       47.5819485243  TIP3      3877            0.0000000000
     33882      4069  TIP3      H1             -5.5098465086       -0.8514057153       47.2951661267  TIP3      3877            0.0000000000
     33883      4069  TIP3      H2             -6.4007144142       -0.5139363711       48.4269249954  TIP3      3877            0.0000000000
     33884      4070  TIP3      OH2            -8.6338268514       -6.0809897970       49.6243861381  TIP3      3878            0.0000000000
     33885      4070  TIP3      H1             -8.2211432402       -6.4806560903       48.8487729668  TIP3      3878            0.0000000000
     33886      4070  TIP3      H2             -7.8459550737       -5.6385954023       50.0050816083  TIP3      3878            0.0000000000
     33887      4071  TIP3      OH2             0.0274591856      -14.2094693371       50.2373677935  TIP3      3879            0.0000000000
     33888      4071  TIP3      H1              0.1947260389      -13.6316834484       51.0139426312  TIP3      3879            0.0000000000
     33889      4071  TIP3      H2              0.5905851861      -13.7678862060       49.5940440738  TIP3      3879            0.0000000000
     33890      4072  TIP3      OH2            -5.4121956723      -11.3987681330       49.8477987996  TIP3      3880            0.0000000000
     33891      4072  TIP3      H1             -5.2447254319      -12.3572634279       49.8519217594  TIP3      3880            0.0000000000
     33892      4072  TIP3      H2             -5.5153420395      -11.2563532559       48.8868971683  TIP3      3880            0.0000000000
     33893      4073  TIP3      OH2           -12.2994426180      -13.3083399706       47.0611398070  TIP3      3881            0.0000000000
     33894      4073  TIP3      H1            -12.1907381650      -12.4743825049       46.5678355717  TIP3      3881            0.0000000000
     33895      4073  TIP3      H2            -12.6967749999      -13.8825180432       46.3713539000  TIP3      3881            0.0000000000
     33896      4074  TIP3      OH2            -4.5614868086      -13.2344439004       45.4351764442  TIP3      3882            0.0000000000
     33897      4074  TIP3      H1             -3.9080681438      -13.5472451779       46.1020043173  TIP3      3882            0.0000000000
     33898      4074  TIP3      H2             -3.9991437260      -12.6520356228       44.9036719079  TIP3      3882            0.0000000000
     33899      4075  TIP3      OH2           -15.6738830162      -10.8984653771       47.7956057740  TIP3      3883            0.0000000000
     33900      4075  TIP3      H1            -15.0046635704      -11.4423951021       48.2507221321  TIP3      3883            0.0000000000
     33901      4075  TIP3      H2            -15.5684576464      -11.2129041169       46.8844046554  TIP3      3883            0.0000000000
     33902      4076  TIP3      OH2           -10.5166936176       -9.3422980130       47.1152809897  TIP3      3884            0.0000000000
     33903      4076  TIP3      H1             -9.8442941010       -9.9231433293       47.5110300195  TIP3      3884            0.0000000000
     33904      4076  TIP3      H2            -11.0330206222      -10.0016164706       46.6106247109  TIP3      3884            0.0000000000
     33905      4077  TIP3      OH2             0.4540789797      -12.8044952418       52.5344994737  TIP3      3885            0.0000000000
     33906      4077  TIP3      H1             -0.1480282373      -12.0337488459       52.4252011014  TIP3      3885            0.0000000000
     33907      4077  TIP3      H2              0.4926926840      -12.8818623000       53.4952493120  TIP3      3885            0.0000000000
     33908      4078  TIP3      OH2           -13.3882144782      -14.4092645936       51.1011887177  TIP3      3886            0.0000000000
     33909      4078  TIP3      H1            -13.6711132071      -13.8378785769       50.3558563058  TIP3      3886            0.0000000000
     33910      4078  TIP3      H2            -14.0659959245      -14.1814479129       51.7835196537  TIP3      3886            0.0000000000
     33911      4079  TIP3      OH2            -6.0823957254       -4.9298532255       44.6368898127  TIP3      3887            0.0000000000
     33912      4079  TIP3      H1             -6.3623788735       -5.1998851995       43.7529321926  TIP3      3887            0.0000000000
     33913      4079  TIP3      H2             -6.4112343315       -4.0032311244       44.7166223561  TIP3      3887            0.0000000000
     33914      4080  TIP3      OH2           -10.8846451524       -6.7709623622       51.3574846196  TIP3      3888            0.0000000000
     33915      4080  TIP3      H1            -11.5746299195       -6.1065225736       51.5551912506  TIP3      3888            0.0000000000
     33916      4080  TIP3      H2            -10.1703205099       -6.1826796238       51.0353906044  TIP3      3888            0.0000000000
     33917      4081  TIP3      OH2            -2.7203672684      -13.8899935692       47.4171980797  TIP3      3889            0.0000000000
     33918      4081  TIP3      H1             -2.9920893150      -14.6386595390       47.9594635154  TIP3      3889            0.0000000000
     33919      4081  TIP3      H2             -2.1163051609      -13.4240130919       48.0201930331  TIP3      3889            0.0000000000
     33920      4082  TIP3      OH2           -13.8203941970      -12.5540902841       49.1381022649  TIP3      3890            0.0000000000
     33921      4082  TIP3      H1            -13.1927912202      -11.8643687913       49.4479877308  TIP3      3890            0.0000000000
     33922      4082  TIP3      H2            -13.3047402479      -12.9637008464       48.3986955629  TIP3      3890            0.0000000000
     33923      4083  TIP3      OH2           -12.4401475885       -4.7667380844       52.1728664834  TIP3      3891            0.0000000000
     33924      4083  TIP3      H1            -12.4646335776       -3.8567413415       51.8164271822  TIP3      3891            0.0000000000
     33925      4083  TIP3      H2            -13.3252575615       -4.8347877637       52.6096312126  TIP3      3891            0.0000000000
     33926      4084  TIP3      OH2           -16.3482816591       -5.1532084071       42.9526281914  TIP3      3892            0.0000000000
     33927      4084  TIP3      H1            -16.5987801637       -4.8134493065       42.0757877082  TIP3      3892            0.0000000000
     33928      4084  TIP3      H2            -16.2684225393       -4.3257370735       43.4681701386  TIP3      3892            0.0000000000
     33929      4085  TIP3      OH2            -2.7027589974       -3.4840235289       49.6962323081  TIP3      3893            0.0000000000
     33930      4085  TIP3      H1             -3.6839198677       -3.3827553194       49.8381868739  TIP3      3893            0.0000000000
     33931      4085  TIP3      H2             -2.4812404514       -2.5561016612       49.5091556655  TIP3      3893            0.0000000000
     33932      4086  TIP3      OH2            -2.4126268876      -15.1957559651       51.1067843296  TIP3      3894            0.0000000000
     33933      4086  TIP3      H1             -3.1400727262      -14.5651015724       51.0098327086  TIP3      3894            0.0000000000
     33934      4086  TIP3      H2             -1.7033437695      -14.7800138070       50.5772033934  TIP3      3894            0.0000000000
     33935      4087  TIP3      OH2            -9.4539749939      -17.0757474366       48.5650278558  TIP3      3895            0.0000000000
     33936      4087  TIP3      H1             -9.5969966501      -18.0395276770       48.4910105423  TIP3      3895            0.0000000000
     33937      4087  TIP3      H2            -10.3313922425      -16.7703526758       48.8736855548  TIP3      3895            0.0000000000
     33938      4088  TIP3      OH2            -4.4670182399       -1.6911060574       46.2985142493  TIP3      3896            0.0000000000
     33939      4088  TIP3      H1             -4.0588545374       -2.4202932133       45.7934939204  TIP3      3896            0.0000000000
     33940      4088  TIP3      H2             -4.0462124177       -0.9021745426       45.9058897153  TIP3      3896            0.0000000000
     33941      4089  TIP3      OH2            -3.2661542820       -3.7703219173       44.8207956999  TIP3      3897            0.0000000000
     33942      4089  TIP3      H1             -3.5693315998       -4.4661597301       44.2160360294  TIP3      3897            0.0000000000
     33943      4089  TIP3      H2             -3.2287946002       -4.2619209886       45.6601571589  TIP3      3897            0.0000000000
     33944      4090  TIP3      OH2            -1.6519029744       -5.1730219579       53.3128380316  TIP3      3898            0.0000000000
     33945      4090  TIP3      H1             -1.5060439756       -5.8265879746       52.5939989663  TIP3      3898            0.0000000000
     33946      4090  TIP3      H2             -1.4470360410       -4.3311167747       52.8678100734  TIP3      3898            0.0000000000
     33947      4091  TIP3      OH2            -7.1543233246       -8.2884376052       43.0748865066  TIP3      3899            0.0000000000
     33948      4091  TIP3      H1             -7.8455851517       -7.7085276056       42.7128401797  TIP3      3899            0.0000000000
     33949      4091  TIP3      H2             -6.4428550568       -8.1908765402       42.4132297605  TIP3      3899            0.0000000000
     33950      4092  TIP3      OH2            -7.0722169550       -9.7155816756       40.0840876635  TIP3      3900            0.0000000000
     33951      4092  TIP3      H1             -6.3677998462       -9.7346466555       40.7495349819  TIP3      3900            0.0000000000
     33952      4092  TIP3      H2             -6.7665967225      -10.4344123237       39.5160157560  TIP3      3900            0.0000000000
     33953      4093  TIP3      OH2             0.2407246729       -8.8625898441       51.3605113514  TIP3      3901            0.0000000000
     33954      4093  TIP3      H1             -0.4199361549       -8.1399081868       51.3983495372  TIP3      3901            0.0000000000
     33955      4093  TIP3      H2              0.7271512813       -8.6257444673       50.5500539443  TIP3      3901            0.0000000000
     33956      4094  TIP3      OH2            -3.6942315567       -8.0779673202       43.9917185376  TIP3      3902            0.0000000000
     33957      4094  TIP3      H1             -4.4393060201       -7.8319008944       44.5919033591  TIP3      3902            0.0000000000
     33958      4094  TIP3      H2             -3.2283123799       -8.7515715290       44.5172417428  TIP3      3902            0.0000000000
     33959      4095  TIP3      OH2            -3.7768658601       -9.9088379183       53.1235064158  TIP3      3903            0.0000000000
     33960      4095  TIP3      H1             -3.7688273269       -9.0891387014       53.6453763761  TIP3      3903            0.0000000000
     33961      4095  TIP3      H2             -4.4054658258       -9.6159175198       52.4307716981  TIP3      3903            0.0000000000
     33962      4096  TIP3      OH2           -12.0959498519       -7.4181500662       45.9159598496  TIP3      3904            0.0000000000
     33963      4096  TIP3      H1            -12.4141339212       -7.8052288529       45.0648223422  TIP3      3904            0.0000000000
     33964      4096  TIP3      H2            -11.4800863095       -8.1079135382       46.2488307430  TIP3      3904            0.0000000000
     33965      4097  TIP3      OH2           -10.8671194298       -4.0926716203       48.6259370475  TIP3      3905            0.0000000000
     33966      4097  TIP3      H1            -10.7524774224       -4.5502081369       47.7871474183  TIP3      3905            0.0000000000
     33967      4097  TIP3      H2             -9.9826374070       -4.2606265978       49.0308242776  TIP3      3905            0.0000000000
     33968      4098  TIP3      OH2           -11.7677242027       -8.6682207009       49.5765923413  TIP3      3906            0.0000000000
     33969      4098  TIP3      H1            -11.2161537467       -8.5687563671       48.7761239510  TIP3      3906            0.0000000000
     33970      4098  TIP3      H2            -11.3758082121       -8.0035393937       50.1860696892  TIP3      3906            0.0000000000
     33971      4099  TIP3      OH2            -5.1607417864       -3.1030844325       50.4005218655  TIP3      3907            0.0000000000
     33972      4099  TIP3      H1             -5.7154655493       -2.4657171329       50.8608186007  TIP3      3907            0.0000000000
     33973      4099  TIP3      H2             -5.6233831137       -3.9309750782       50.6636264712  TIP3      3907            0.0000000000
     33974      4100  TIP3      OH2           -10.8375099702       -4.2560868022       54.3006669051  TIP3      3908            0.0000000000
     33975      4100  TIP3      H1            -11.2356663784       -3.4935096567       54.7659404210  TIP3      3908            0.0000000000
     33976      4100  TIP3      H2            -11.4720357100       -4.4291299613       53.5628586173  TIP3      3908            0.0000000000
     33977      4101  TIP3      OH2            -4.8278448386       -8.8697955951       41.6615628389  TIP3      3909            0.0000000000
     33978      4101  TIP3      H1             -4.2714288201       -8.6973468829       42.4616771021  TIP3      3909            0.0000000000
     33979      4101  TIP3      H2             -4.3755983856       -8.3769170019       40.9402859293  TIP3      3909            0.0000000000
     33980      4102  TIP3      OH2           -13.8700701579       -8.0790236365       53.4248821529  TIP3      3910            0.0000000000
     33981      4102  TIP3      H1            -13.8161747592       -7.4099047906       54.1332191334  TIP3      3910            0.0000000000
     33982      4102  TIP3      H2            -14.8122938040       -7.9896555622       53.2136112009  TIP3      3910            0.0000000000
     33983      4103  TIP3      OH2            -7.0769975101       -2.1355953914       45.1005976766  TIP3      3911            0.0000000000
     33984      4103  TIP3      H1             -6.7147975192       -1.8770914416       45.9609273200  TIP3      3911            0.0000000000
     33985      4103  TIP3      H2             -7.6845914793       -1.4109402861       44.9217335424  TIP3      3911            0.0000000000
     33986      4104  TIP3      OH2           -12.5649438514       -2.2026324292       55.0152290911  TIP3      3912            0.0000000000
     33987      4104  TIP3      H1            -12.6247868704       -2.3043551734       54.0486676318  TIP3      3912            0.0000000000
     33988      4104  TIP3      H2            -13.4941633143       -2.3375967750       55.2846864294  TIP3      3912            0.0000000000
     33989      4105  TIP3      OH2            -1.0864550658      -17.1279639055       41.5932353450  TIP3      3913            0.0000000000
     33990      4105  TIP3      H1             -2.0476577112      -17.0359622756       41.7947113497  TIP3      3913            0.0000000000
     33991      4105  TIP3      H2             -0.9107999588      -16.3073542003       41.1027623255  TIP3      3913            0.0000000000
     33992      4106  TIP3      OH2           -13.1336475194       -8.3970601735       43.5455649530  TIP3      3914            0.0000000000
     33993      4106  TIP3      H1            -13.4110813555       -7.6120692279       43.0259728933  TIP3      3914            0.0000000000
     33994      4106  TIP3      H2            -13.7801183500       -9.0614422642       43.2966883173  TIP3      3914            0.0000000000
     33995      4107  TIP3      OH2             0.0091015858       -2.7884832900       39.9150043741  TIP3      3915            0.0000000000
     33996      4107  TIP3      H1              0.1752442590       -1.8454920603       40.0845219223  TIP3      3915            0.0000000000
     33997      4107  TIP3      H2              0.9325045303       -3.1014944027       39.9117559407  TIP3      3915            0.0000000000
     33998      4108  TIP3      OH2           -17.0399476397       -5.9637822596       52.4316776253  TIP3      3916            0.0000000000
     33999      4108  TIP3      H1            -17.4801837931       -6.0461963586       51.5654098173  TIP3      3916            0.0000000000
     34000      4108  TIP3      H2            -16.9540692216       -6.9116892959       52.6451299983  TIP3      3916            0.0000000000
     34001      4109  TIP3      OH2           -17.2707877170       -3.2276982314       49.2034416628  TIP3      3917            0.0000000000
     34002      4109  TIP3      H1            -16.3109800792       -3.3406496421       49.1833746318  TIP3      3917            0.0000000000
     34003      4109  TIP3      H2            -17.3563646913       -2.4100764346       49.7088375439  TIP3      3917            0.0000000000
     34004      4110  TIP3      OH2             0.9667122418       -2.5213365702       54.8966285432  TIP3      3918            0.0000000000
     34005      4110  TIP3      H1              0.8471396220       -3.4820045786       54.8667600776  TIP3      3918            0.0000000000
     34006      4110  TIP3      H2              0.0916074612       -2.2747638544       55.2800827321  TIP3      3918            0.0000000000
     34007      4111  TIP3      OH2            -8.0591553318       -3.0098479821       53.8091966462  TIP3      3919            0.0000000000
     34008      4111  TIP3      H1             -8.0250576141       -2.1302927251       54.2505483065  TIP3      3919            0.0000000000
     34009      4111  TIP3      H2             -8.9642825588       -3.3277182050       53.9769812612  TIP3      3919            0.0000000000
     34010      4112  TIP3      OH2            -7.6356786077        0.7588597655       43.5459445735  TIP3      3920            0.0000000000
     34011      4112  TIP3      H1             -7.7462668805        0.6843755156       42.5813955874  TIP3      3920            0.0000000000
     34012      4112  TIP3      H2             -7.6324953286        1.7208307770       43.7027311261  TIP3      3920            0.0000000000
     34013      4113  TIP3      OH2           -13.9984107343       -0.3622534155       45.3660156944  TIP3      3921            0.0000000000
     34014      4113  TIP3      H1            -13.8545332149       -0.7752070892       46.2464107091  TIP3      3921            0.0000000000
     34015      4113  TIP3      H2            -14.8469262776       -0.7718089329       45.1299170589  TIP3      3921            0.0000000000
     34016      4114  TIP3      OH2            -4.5754979825       -0.0237179237       40.5361749920  TIP3      3922            0.0000000000
     34017      4114  TIP3      H1             -4.1350813265       -0.7928254458       40.1079707917  TIP3      3922            0.0000000000
     34018      4114  TIP3      H2             -4.5428154641       -0.2870840657       41.4782138272  TIP3      3922            0.0000000000
     34019      4115  TIP3      OH2            -4.8834076545       -0.0921407583       43.3051043579  TIP3      3923            0.0000000000
     34020      4115  TIP3      H1             -5.8459860493       -0.0187924101       43.4756571516  TIP3      3923            0.0000000000
     34021      4115  TIP3      H2             -4.6523831005       -0.8357271303       43.8827306416  TIP3      3923            0.0000000000
     34022      4116  TIP3      OH2            -1.8909804350      -11.0563454987       55.3620055235  TIP3      3924            0.0000000000
     34023      4116  TIP3      H1             -2.3656872031      -10.6048613824       54.6444207583  TIP3      3924            0.0000000000
     34024      4116  TIP3      H2             -1.9043987701      -11.9808833074       55.0645686758  TIP3      3924            0.0000000000
     34025      4117  TIP3      OH2           -14.7534890043       -4.6425621638       53.3706530002  TIP3      3925            0.0000000000
     34026      4117  TIP3      H1            -14.5269952479       -5.0114457164       54.2495558691  TIP3      3925            0.0000000000
     34027      4117  TIP3      H2            -15.6196437628       -5.0457443629       53.1563043846  TIP3      3925            0.0000000000
     34028      4118  TIP3      OH2           -12.0678951968      -16.1726989216       49.3177433984  TIP3      3926            0.0000000000
     34029      4118  TIP3      H1            -12.9709447548      -16.2994549049       48.9507739309  TIP3      3926            0.0000000000
     34030      4118  TIP3      H2            -12.2022614879      -15.3423363052       49.8036293018  TIP3      3926            0.0000000000
     34031      4119  TIP3      OH2            -7.4202941489      -16.5061766855       52.6857207348  TIP3      3927            0.0000000000
     34032      4119  TIP3      H1             -7.0303201176      -16.9369414518       53.4677133656  TIP3      3927            0.0000000000
     34033      4119  TIP3      H2             -8.3937658544      -16.6228261854       52.8257346668  TIP3      3927            0.0000000000
     34034      4120  TIP3      OH2            -4.1380999878      -12.6553310762       53.5675072603  TIP3      3928            0.0000000000
     34035      4120  TIP3      H1             -4.7061928634      -12.8606712958       54.3464783167  TIP3      3928            0.0000000000
     34036      4120  TIP3      H2             -4.3177607703      -11.7266237045       53.3448253523  TIP3      3928            0.0000000000
     34037      4121  TIP3      OH2            -3.3738494655       -7.8485402148       39.4813417050  TIP3      3929            0.0000000000
     34038      4121  TIP3      H1             -3.4008929346       -8.0340646475       38.5143325098  TIP3      3929            0.0000000000
     34039      4121  TIP3      H2             -2.5203798342       -7.3944811046       39.5277914984  TIP3      3929            0.0000000000
     34040      4122  TIP3      OH2            -7.7841937197      -13.9198576680       39.9879908644  TIP3      3930            0.0000000000
     34041      4122  TIP3      H1             -8.0995967085      -13.9825258358       40.9083194825  TIP3      3930            0.0000000000
     34042      4122  TIP3      H2             -8.0946669365      -14.7982675607       39.6813956094  TIP3      3930            0.0000000000
     34043      4123  TIP3      OH2           -11.9579214865      -11.1923249925       50.5809862676  TIP3      3931            0.0000000000
     34044      4123  TIP3      H1            -12.7040171489      -11.2079872968       51.2094095068  TIP3      3931            0.0000000000
     34045      4123  TIP3      H2            -12.0130004245      -10.2887039330       50.1994780312  TIP3      3931            0.0000000000
     34046      4124  TIP3      OH2           -12.0048512758      -11.0856133839       45.4366186948  TIP3      3932            0.0000000000
     34047      4124  TIP3      H1            -12.9433259826      -11.3334876668       45.3048350710  TIP3      3932            0.0000000000
     34048      4124  TIP3      H2            -11.6295082681      -11.3734811467       44.5802866746  TIP3      3932            0.0000000000
     34049      4125  TIP3      OH2            -6.4863560704      -10.5783347576       44.2143655595  TIP3      3933            0.0000000000
     34050      4125  TIP3      H1             -6.8792088600       -9.7560949085       43.8412032572  TIP3      3933            0.0000000000
     34051      4125  TIP3      H2             -5.7997363937      -10.7487232147       43.5480037240  TIP3      3933            0.0000000000
     34052      4126  TIP3      OH2            -7.4316837058      -10.3717031547       55.6416530897  TIP3      3934            0.0000000000
     34053      4126  TIP3      H1             -7.9580054239      -11.1455373053       55.9539719848  TIP3      3934            0.0000000000
     34054      4126  TIP3      H2             -6.5941755893      -10.4905305864       56.1195522382  TIP3      3934            0.0000000000
     34055      4127  TIP3      OH2            -5.4497660275      -11.0876349273       47.0499760112  TIP3      3935            0.0000000000
     34056      4127  TIP3      H1             -5.7366516730      -10.5250394955       46.3110589323  TIP3      3935            0.0000000000
     34057      4127  TIP3      H2             -5.3574372732      -11.9382744772       46.5813870265  TIP3      3935            0.0000000000
     34058      4128  TIP3      OH2           -14.3454791659      -10.9499774339       52.2499258887  TIP3      3936            0.0000000000
     34059      4128  TIP3      H1            -14.2615930357      -10.5416708358       53.1293022227  TIP3      3936            0.0000000000
     34060      4128  TIP3      H2            -14.7854867425      -11.7884905612       52.4613047874  TIP3      3936            0.0000000000
     34061      4129  TIP3      OH2           -10.9669936962      -13.5377922489       39.1117278588  TIP3      3937            0.0000000000
     34062      4129  TIP3      H1            -11.4236341265      -13.9900825632       39.8530021124  TIP3      3937            0.0000000000
     34063      4129  TIP3      H2            -11.6864757208      -13.1271152943       38.6163267196  TIP3      3937            0.0000000000
     34064      4130  TIP3      OH2           -17.6863364893      -13.8404670183       46.2403419902  TIP3      3938            0.0000000000
     34065      4130  TIP3      H1            -17.0018213004      -13.8797662467       46.9406880296  TIP3      3938            0.0000000000
     34066      4130  TIP3      H2            -17.2388001058      -14.2140342299       45.4591439575  TIP3      3938            0.0000000000
     34067      4131  TIP3      OH2           -16.4246681737      -13.1211043258       41.5843678138  TIP3      3939            0.0000000000
     34068      4131  TIP3      H1            -15.9101287215      -12.5072918280       41.0296090101  TIP3      3939            0.0000000000
     34069      4131  TIP3      H2            -17.1095652801      -12.4976519421       41.9070478592  TIP3      3939            0.0000000000
     34070      4132  TIP3      OH2            -6.2548382486       -9.5070172622       51.6062711646  TIP3      3940            0.0000000000
     34071      4132  TIP3      H1             -5.8750499614      -10.1914562252       51.0187734519  TIP3      3940            0.0000000000
     34072      4132  TIP3      H2             -6.7230353583      -10.0343659657       52.2771339460  TIP3      3940            0.0000000000
     34073      4133  TIP3      OH2            -9.4520918279      -13.5236515068       46.4407477963  TIP3      3941            0.0000000000
     34074      4133  TIP3      H1            -10.3860017544      -13.5237859040       46.7339437023  TIP3      3941            0.0000000000
     34075      4133  TIP3      H2             -8.9699940785      -13.6987550416       47.2633421401  TIP3      3941            0.0000000000
     34076      4134  TIP3      OH2           -14.6438245050      -11.9789265760       45.3094073769  TIP3      3942            0.0000000000
     34077      4134  TIP3      H1            -15.5267938665      -11.8251100391       44.9153275363  TIP3      3942            0.0000000000
     34078      4134  TIP3      H2            -14.3583771326      -12.8125231378       44.9004270611  TIP3      3942            0.0000000000
     34079      4135  TIP3      OH2           -10.9990775665      -11.9306502080       42.9360396559  TIP3      3943            0.0000000000
     34080      4135  TIP3      H1            -10.0431175911      -11.8194968792       43.0964121229  TIP3      3943            0.0000000000
     34081      4135  TIP3      H2            -11.2362569075      -11.2480227044       42.2803398744  TIP3      3943            0.0000000000
     34082      4136  TIP3      OH2            -5.0449292470      -14.2910661698       49.6771451314  TIP3      3944            0.0000000000
     34083      4136  TIP3      H1             -5.7267556119      -14.2449687159       50.3824766710  TIP3      3944            0.0000000000
     34084      4136  TIP3      H2             -5.5552450684      -14.5497183705       48.8954765931  TIP3      3944            0.0000000000
     34085      4137  TIP3      OH2           -12.2934429257      -10.7534793651       40.5243124358  TIP3      3945            0.0000000000
     34086      4137  TIP3      H1            -12.8260493778      -11.1335216630       39.8046953596  TIP3      3945            0.0000000000
     34087      4137  TIP3      H2            -11.4726278358      -10.5470074669       40.0507303806  TIP3      3945            0.0000000000
     34088      4138  TIP3      OH2            -1.8410068675        1.3531763627       56.0161582293  TIP3      3946            0.0000000000
     34089      4138  TIP3      H1             -1.5801019284        1.7313523924       55.1566824416  TIP3      3946            0.0000000000
     34090      4138  TIP3      H2             -1.1158197974        1.6716177069       56.5697958123  TIP3      3946            0.0000000000
     34091      4139  TIP3      OH2           -14.1697822400       -6.1813783536       55.5790832332  TIP3      3947            0.0000000000
     34092      4139  TIP3      H1            -13.4488428960       -5.9361047078       56.1821611628  TIP3      3947            0.0000000000
     34093      4139  TIP3      H2            -14.9424584011       -6.1014494838       56.1803014101  TIP3      3947            0.0000000000
     34094      4140  TIP3      OH2            -8.1738777733      -10.7733515169       48.3318523778  TIP3      3948            0.0000000000
     34095      4140  TIP3      H1             -7.5697586358      -11.3044412964       47.8002192071  TIP3      3948            0.0000000000
     34096      4140  TIP3      H2             -8.3147928739      -11.3203781268       49.1162339214  TIP3      3948            0.0000000000
     34097      4141  TIP3      OH2           -13.1592606190      -14.6267913694       44.7705505709  TIP3      3949            0.0000000000
     34098      4141  TIP3      H1            -13.4695046715      -15.5499588111       44.7638985679  TIP3      3949            0.0000000000
     34099      4141  TIP3      H2            -12.3685610683      -14.6945993454       44.2216646956  TIP3      3949            0.0000000000
     34100      4142  TIP3      OH2            -9.5307884712      -12.4453539733       50.7475981727  TIP3      3950            0.0000000000
     34101      4142  TIP3      H1            -10.3559862431      -11.9257637939       50.8365505609  TIP3      3950            0.0000000000
     34102      4142  TIP3      H2             -8.9760508372      -12.0926371313       51.4702027631  TIP3      3950            0.0000000000
     34103      4143  TIP3      OH2            -8.9395975965       -6.2218964847       42.4453809268  TIP3      3951            0.0000000000
     34104      4143  TIP3      H1             -9.7422453818       -6.6862021939       42.1099551249  TIP3      3951            0.0000000000
     34105      4143  TIP3      H2             -9.1712932580       -6.0960818184       43.3890333798  TIP3      3951            0.0000000000
     34106      4144  TIP3      OH2            -1.7475822868       -7.0301944249       51.2458495425  TIP3      3952            0.0000000000
     34107      4144  TIP3      H1             -1.1909485025       -6.5358758334       50.6169386581  TIP3      3952            0.0000000000
     34108      4144  TIP3      H2             -2.6118612350       -6.9742300549       50.7885832491  TIP3      3952            0.0000000000
     34109      4145  TIP3      OH2            -5.1189278474      -13.4095255725       40.6256566953  TIP3      3953            0.0000000000
     34110      4145  TIP3      H1             -6.0703186773      -13.2589407559       40.4855505906  TIP3      3953            0.0000000000
     34111      4145  TIP3      H2             -4.7752033911      -12.5567541444       40.9703635916  TIP3      3953            0.0000000000
     34112      4146  TIP3      OH2            -7.4370199238       -5.9663467837       53.7156469307  TIP3      3954            0.0000000000
     34113      4146  TIP3      H1             -7.8055501566       -6.3783922454       54.5018210138  TIP3      3954            0.0000000000
     34114      4146  TIP3      H2             -7.7063926901       -5.0390321460       53.7747658413  TIP3      3954            0.0000000000
     34115      4147  TIP3      OH2            -4.3761820912      -11.4850738898       42.2453687184  TIP3      3955            0.0000000000
     34116      4147  TIP3      H1             -3.4926882506      -11.6201301176       42.6524005646  TIP3      3955            0.0000000000
     34117      4147  TIP3      H2             -4.2755643521      -10.6651182700       41.7325924908  TIP3      3955            0.0000000000
     34118      4148  TIP3      OH2           -13.8395491787       -6.8332662565       48.2426770694  TIP3      3956            0.0000000000
     34119      4148  TIP3      H1            -13.1592591492       -6.9114086777       47.5448920224  TIP3      3956            0.0000000000
     34120      4148  TIP3      H2            -13.7709590827       -7.6878857941       48.7038142757  TIP3      3956            0.0000000000
     34121      4149  TIP3      OH2            -6.8486687235       -4.7532662845       41.4764340210  TIP3      3957            0.0000000000
     34122      4149  TIP3      H1             -7.1915309955       -3.9079819413       41.8343613790  TIP3      3957            0.0000000000
     34123      4149  TIP3      H2             -7.5801143219       -5.3702425179       41.6956220617  TIP3      3957            0.0000000000
     34124      4150  TIP3      OH2           -16.8435200403       -8.4241983380       53.5056306622  TIP3      3958            0.0000000000
     34125      4150  TIP3      H1            -16.6728751987       -8.8682509311       54.3590720413  TIP3      3958            0.0000000000
     34126      4150  TIP3      H2            -17.4639310261       -9.0343148603       53.0672324895  TIP3      3958            0.0000000000
     34127      4151  TIP3      OH2            -9.8294342481       -8.8677336945       55.6856783028  TIP3      3959            0.0000000000
     34128      4151  TIP3      H1            -10.1490278463       -9.1701996688       54.8235745720  TIP3      3959            0.0000000000
     34129      4151  TIP3      H2             -8.9056040428       -9.1891394838       55.6811987449  TIP3      3959            0.0000000000
     34130      4152  TIP3      OH2            -5.1334127307       -3.5410066867       53.6588585124  TIP3      3960            0.0000000000
     34131      4152  TIP3      H1             -6.0492665930       -3.3543519056       53.3794718774  TIP3      3960            0.0000000000
     34132      4152  TIP3      H2             -5.1951513714       -3.2251430825       54.5757909598  TIP3      3960            0.0000000000
     34133      4153  TIP3      OH2             0.5243750779      -11.3661015814       42.0312091309  TIP3      3961            0.0000000000
     34134      4153  TIP3      H1             -0.0463436800      -11.6299489682       41.2832267668  TIP3      3961            0.0000000000
     34135      4153  TIP3      H2              0.6071319533      -10.4147898145       41.7843638838  TIP3      3961            0.0000000000
     34136      4154  TIP3      OH2             0.5119172286       -5.4862734517       54.8313733650  TIP3      3962            0.0000000000
     34137      4154  TIP3      H1             -0.3805829147       -5.2661302396       54.4684221851  TIP3      3962            0.0000000000
     34138      4154  TIP3      H2              1.0569409853       -5.5378830771       54.0190773354  TIP3      3962            0.0000000000
     34139      4155  TIP3      OH2            -1.2178312742       -2.5176131041       42.4204029363  TIP3      3963            0.0000000000
     34140      4155  TIP3      H1             -1.5532490028       -3.3531998510       42.7696189646  TIP3      3963            0.0000000000
     34141      4155  TIP3      H2             -0.8657697738       -2.7367134152       41.5419813724  TIP3      3963            0.0000000000
     34142      4156  TIP3      OH2            -3.9789335559       -7.7000171007       49.5311003361  TIP3      3964            0.0000000000
     34143      4156  TIP3      H1             -4.9266058267       -7.8954521056       49.4148948825  TIP3      3964            0.0000000000
     34144      4156  TIP3      H2             -3.5536597652       -8.4618874374       49.0946294903  TIP3      3964            0.0000000000
     34145      4157  TIP3      OH2           -11.4612910735       -3.3828758753       45.5986918692  TIP3      3965            0.0000000000
     34146      4157  TIP3      H1            -10.9537975521       -2.5700537339       45.4491720351  TIP3      3965            0.0000000000
     34147      4157  TIP3      H2            -12.3419235827       -3.1255737546       45.3059975788  TIP3      3965            0.0000000000
     34148      4158  TIP3      OH2           -15.6924544514       -8.5337425561       40.2012033528  TIP3      3966            0.0000000000
     34149      4158  TIP3      H1            -15.1133184823       -7.8685120147       40.6107539139  TIP3      3966            0.0000000000
     34150      4158  TIP3      H2            -16.5826124949       -8.2200847276       40.4496653675  TIP3      3966            0.0000000000
     34151      4159  TIP3      OH2           -10.0673314055       -5.7000532836       45.1117470065  TIP3      3967            0.0000000000
     34152      4159  TIP3      H1            -10.3494111587       -4.7765169293       45.2599273409  TIP3      3967            0.0000000000
     34153      4159  TIP3      H2            -10.7537326698       -6.1885220932       45.6069225747  TIP3      3967            0.0000000000
     34154      4160  TIP3      OH2            -9.6690756584       -1.4150852549       51.7216927681  TIP3      3968            0.0000000000
     34155      4160  TIP3      H1             -9.1261559965       -0.7756879516       51.2283836926  TIP3      3968            0.0000000000
     34156      4160  TIP3      H2             -8.9566281751       -1.9031802024       52.1661181113  TIP3      3968            0.0000000000
     34157      4161  TIP3      OH2           -11.3563316153       -0.7186118762       44.6852605535  TIP3      3969            0.0000000000
     34158      4161  TIP3      H1            -12.3231666551       -0.5769489561       44.8069663456  TIP3      3969            0.0000000000
     34159      4161  TIP3      H2            -11.0000269734        0.1249318912       45.0184780693  TIP3      3969            0.0000000000
     34160      4162  TIP3      OH2            -6.0409857022       -5.5277086107       51.1896345426  TIP3      3970            0.0000000000
     34161      4162  TIP3      H1             -6.4073612190       -5.7137483446       52.0743972200  TIP3      3970            0.0000000000
     34162      4162  TIP3      H2             -5.4316312955       -6.2518726991       51.0073006312  TIP3      3970            0.0000000000
     34163      4163  TIP3      OH2            -3.7295669370       -4.4471795646       40.2647345860  TIP3      3971            0.0000000000
     34164      4163  TIP3      H1             -3.4357232191       -4.9216504814       41.0687281780  TIP3      3971            0.0000000000
     34165      4163  TIP3      H2             -4.6832322986       -4.6319172611       40.3462007298  TIP3      3971            0.0000000000
     34166      4164  TIP3      OH2            -3.2593976692       -0.9489190440       53.6584285666  TIP3      3972            0.0000000000
     34167      4164  TIP3      H1             -3.9540854947       -1.4382015575       53.1715747837  TIP3      3972            0.0000000000
     34168      4164  TIP3      H2             -3.0719924111       -0.2459630915       53.0013502149  TIP3      3972            0.0000000000
     34169      4165  TIP3      OH2             0.7310612774       -0.0970353540       40.5211846504  TIP3      3973            0.0000000000
     34170      4165  TIP3      H1              1.4190583532        0.5675253785       40.3152728894  TIP3      3973            0.0000000000
     34171      4165  TIP3      H2              0.0162629969        0.5143123586       40.8066076341  TIP3      3973            0.0000000000
     34172      4166  TIP3      OH2           -15.1912046836      -13.6907086950       53.0528779535  TIP3      3974            0.0000000000
     34173      4166  TIP3      H1            -16.0973672170      -13.3378611726       53.0351739497  TIP3      3974            0.0000000000
     34174      4166  TIP3      H2            -15.3036362045      -14.5349568924       53.5177417763  TIP3      3974            0.0000000000
     34175      4167  TIP3      OH2            -2.9575651989       -5.8148323862       42.5075651191  TIP3      3975            0.0000000000
     34176      4167  TIP3      H1             -3.1947996006       -6.6015033064       43.0448887564  TIP3      3975            0.0000000000
     34177      4167  TIP3      H2             -2.0027759330       -5.7730219186       42.6866666719  TIP3      3975            0.0000000000
     34178      4168  TIP3      OH2           -15.5900949470       -1.9096468210       51.4892899536  TIP3      3976            0.0000000000
     34179      4168  TIP3      H1            -15.2755703553       -2.8258442905       51.4899207132  TIP3      3976            0.0000000000
     34180      4168  TIP3      H2            -15.3168563382       -1.6140621669       52.3645761106  TIP3      3976            0.0000000000
     34181      4169  TIP3      OH2            -9.6036309302       -3.3775920772       38.7629034152  TIP3      3977            0.0000000000
     34182      4169  TIP3      H1             -9.5009795297       -4.1430471615       38.1752819519  TIP3      3977            0.0000000000
     34183      4169  TIP3      H2            -10.0461535077       -3.8081338237       39.5267161547  TIP3      3977            0.0000000000
     34184      4170  TIP3      OH2           -10.8325181722       -3.8506450207       41.2141573257  TIP3      3978            0.0000000000
     34185      4170  TIP3      H1            -10.5622182318       -4.3655569225       41.9843017931  TIP3      3978            0.0000000000
     34186      4170  TIP3      H2            -10.7399267779       -2.9248979297       41.5375092327  TIP3      3978            0.0000000000
     34187      4171  TIP3      OH2           -14.2883735377       -6.6053202390       41.6998729645  TIP3      3979            0.0000000000
     34188      4171  TIP3      H1            -15.0031861602       -6.2092817036       42.2375503171  TIP3      3979            0.0000000000
     34189      4171  TIP3      H2            -13.7834268632       -5.8252324224       41.4060382346  TIP3      3979            0.0000000000
     34190      4172  TIP3      OH2            -6.4588550776      -13.9145194945       52.0213266649  TIP3      3980            0.0000000000
     34191      4172  TIP3      H1             -5.7411465743      -13.8591447109       52.6620246297  TIP3      3980            0.0000000000
     34192      4172  TIP3      H2             -6.8467881076      -14.7902845253       52.2185058776  TIP3      3980            0.0000000000
     34193      4173  TIP3      OH2            -5.7196322539      -14.3475544288       43.1068084103  TIP3      3981            0.0000000000
     34194      4173  TIP3      H1             -5.4864890962      -13.8855578904       42.2765509957  TIP3      3981            0.0000000000
     34195      4173  TIP3      H2             -5.1396649361      -13.9047588402       43.7391324809  TIP3      3981            0.0000000000
     34196      4174  TIP3      OH2            -8.0278284780       -2.1893489813       41.9074169199  TIP3      3982            0.0000000000
     34197      4174  TIP3      H1             -8.8444877369       -1.6553115703       41.9817752116  TIP3      3982            0.0000000000
     34198      4174  TIP3      H2             -7.4873938206       -1.6375076977       41.3237221286  TIP3      3982            0.0000000000
     34199      4175  TIP3      OH2            -8.4845426596      -12.5964467639       43.9240676214  TIP3      3983            0.0000000000
     34200      4175  TIP3      H1             -7.7047996158      -12.0099260003       43.9743882452  TIP3      3983            0.0000000000
     34201      4175  TIP3      H2             -8.7550475137      -12.7256669196       44.8532218086  TIP3      3983            0.0000000000
     34202      4176  TIP3      OH2            -7.9335500734      -11.5720150022       53.1168230588  TIP3      3984            0.0000000000
     34203      4176  TIP3      H1             -7.8592716340      -11.0116191173       53.9134967228  TIP3      3984            0.0000000000
     34204      4176  TIP3      H2             -7.2690569436      -12.2646432816       53.2097328958  TIP3      3984            0.0000000000
     34205      4177  TIP3      OH2            -7.6398508704      -15.5405116637       44.8026398836  TIP3      3985            0.0000000000
     34206      4177  TIP3      H1             -7.9640060392      -14.8936242602       45.4510447497  TIP3      3985            0.0000000000
     34207      4177  TIP3      H2             -6.9442349352      -14.9930466850       44.3640468200  TIP3      3985            0.0000000000
     34208      4178  TIP3      OH2           -10.6253407742       -1.1534104030       41.9399828505  TIP3      3986            0.0000000000
     34209      4178  TIP3      H1            -10.5327971355       -0.3389459827       41.3887624493  TIP3      3986            0.0000000000
     34210      4178  TIP3      H2            -10.8987468562       -0.7893766725       42.8098503795  TIP3      3986            0.0000000000
     34211      4179  TIP3      OH2           -11.9801576967      -14.4366283942       41.5171741259  TIP3      3987            0.0000000000
     34212      4179  TIP3      H1            -12.0333401334      -13.5391109814       41.8983388412  TIP3      3987            0.0000000000
     34213      4179  TIP3      H2            -11.0702131834      -14.6772165955       41.7796547624  TIP3      3987            0.0000000000
     34214      4180  TIP3      OH2            -1.7687628899      -13.7132991983       53.9768914766  TIP3      3988            0.0000000000
     34215      4180  TIP3      H1             -2.6835366659      -13.3738493218       53.8242189154  TIP3      3988            0.0000000000
     34216      4180  TIP3      H2             -1.4524967628      -13.7203518489       53.0563015212  TIP3      3988            0.0000000000
     34217      4181  TIP3      OH2            -3.1475868189       -9.9053992058       47.9723269800  TIP3      3989            0.0000000000
     34218      4181  TIP3      H1             -3.9670723524      -10.3563088898       47.6924187239  TIP3      3989            0.0000000000
     34219      4181  TIP3      H2             -2.6608381515      -10.5948680997       48.4809366469  TIP3      3989            0.0000000000
     34220      4182  TIP3      OH2           -13.7476638234       -3.9903295369       40.5581010034  TIP3      3990            0.0000000000
     34221      4182  TIP3      H1            -13.0792248242       -3.3650054604       40.8761618171  TIP3      3990            0.0000000000
     34222      4182  TIP3      H2            -13.2236773167       -4.4557288915       39.8750589211  TIP3      3990            0.0000000000
     34223      4183  TIP3      OH2           -15.4025124453      -11.3170005363       39.6997595470  TIP3      3991            0.0000000000
     34224      4183  TIP3      H1            -15.3847590687      -10.3611721835       39.9121149269  TIP3      3991            0.0000000000
     34225      4183  TIP3      H2            -16.2945803671      -11.4920456444       39.3959497065  TIP3      3991            0.0000000000
     34226      4184  TIP3      OH2            -2.0780583979       -0.6508915515       49.6384903238  TIP3      3992            0.0000000000
     34227      4184  TIP3      H1             -2.1650741448        0.0300124582       48.9439562943  TIP3      3992            0.0000000000
     34228      4184  TIP3      H2             -1.1141586711       -0.6014304237       49.8136055433  TIP3      3992            0.0000000000
     34229      4185  TIP3      OH2           -14.5860162902      -16.5327518001       48.4487152318  TIP3      3993            0.0000000000
     34230      4185  TIP3      H1            -14.7790432129      -16.5147085435       47.4851896106  TIP3      3993            0.0000000000
     34231      4185  TIP3      H2            -14.9992971793      -17.3862837086       48.6977419262  TIP3      3993            0.0000000000
     34232      4186  TIP3      OH2           -15.6297527938       -2.6103628468       44.5949916330  TIP3      3994            0.0000000000
     34233      4186  TIP3      H1            -16.4826003837       -2.1619817452       44.5473266913  TIP3      3994            0.0000000000
     34234      4186  TIP3      H2            -15.1538838145       -2.1462815427       43.8930059436  TIP3      3994            0.0000000000
     34235      4187  TIP3      OH2           -16.4281453953        0.0407285436       55.8743474552  TIP3      3995            0.0000000000
     34236      4187  TIP3      H1            -15.8217549060       -0.1595321822       56.6135885009  TIP3      3995            0.0000000000
     34237      4187  TIP3      H2            -16.8258453592       -0.8288480157       55.6932772885  TIP3      3995            0.0000000000
     34238      4188  TIP3      OH2           -11.7463454806       -1.0398677449       57.4863191020  TIP3      3996            0.0000000000
     34239      4188  TIP3      H1            -10.9866562392       -1.5401240731       57.8140430160  TIP3      3996            0.0000000000
     34240      4188  TIP3      H2            -11.7713026407       -1.3179899905       56.5491023978  TIP3      3996            0.0000000000
     34241      4189  TIP3      OH2            -7.6091786324       -1.5270290803       38.8857431087  TIP3      3997            0.0000000000
     34242      4189  TIP3      H1             -8.3022968270       -2.1862013128       39.1130156229  TIP3      3997            0.0000000000
     34243      4189  TIP3      H2             -6.8915293787       -2.1254192464       38.6361444514  TIP3      3997            0.0000000000
     34244      4190  TIP3      OH2            -5.2448193688       -2.6534730140       56.2371003454  TIP3      3998            0.0000000000
     34245      4190  TIP3      H1             -5.5564147687       -3.5439054376       56.5062091518  TIP3      3998            0.0000000000
     34246      4190  TIP3      H2             -4.4720700186       -2.5384868940       56.8231592149  TIP3      3998            0.0000000000
     34247      4191  TIP3      OH2            -3.0520874613       -1.7831834237       39.0723822739  TIP3      3999            0.0000000000
     34248      4191  TIP3      H1             -2.7555397787       -2.5592982510       39.5748533453  TIP3      3999            0.0000000000
     34249      4191  TIP3      H2             -2.2896877189       -1.5579567752       38.5198707159  TIP3      3999            0.0000000000
     34250      4192  TIP3      OH2           -16.5153507651       -6.1867001918       56.8710009013  TIP3      4000            0.0000000000
     34251      4192  TIP3      H1            -16.3495364794       -7.0989326103       56.5712999711  TIP3      4000            0.0000000000
     34252      4192  TIP3      H2            -17.2557324204       -5.9296760193       56.2972179645  TIP3      4000            0.0000000000
     34253      4193  TIP3      OH2           -12.1635413389       -5.8432358355       38.8908602229  TIP3      4001            0.0000000000
     34254      4193  TIP3      H1            -12.0226027432       -6.6040736642       39.4773012849  TIP3      4001            0.0000000000
     34255      4193  TIP3      H2            -11.4156428285       -5.9616607374       38.2724736742  TIP3      4001            0.0000000000
     34256      4194  TIP3      OH2            -9.7970398536       -6.1981465551       56.2542906293  TIP3      4002            0.0000000000
     34257      4194  TIP3      H1            -10.1315193644       -5.8851725384       55.3889297823  TIP3      4002            0.0000000000
     34258      4194  TIP3      H2             -9.7239774953       -7.1764150566       56.1477447470  TIP3      4002            0.0000000000
     34259      4195  TIP3      OH2            -6.7337251816       -4.7334813548       38.6680519421  TIP3      4003            0.0000000000
     34260      4195  TIP3      H1             -7.0042022014       -4.6522648418       39.5962397163  TIP3      4003            0.0000000000
     34261      4195  TIP3      H2             -6.9234629843       -5.6910044543       38.5233009887  TIP3      4003            0.0000000000
     34262      4196  TIP3      OH2            -4.1043264352       -6.3379886123       53.6508497633  TIP3      4004            0.0000000000
     34263      4196  TIP3      H1             -3.3169841904       -5.7550816070       53.5865561957  TIP3      4004            0.0000000000
     34264      4196  TIP3      H2             -4.8041253011       -5.6680154446       53.6709663516  TIP3      4004            0.0000000000
     34265      4197  TIP3      OH2           -15.5925453557       -8.9623844968       56.2506470902  TIP3      4005            0.0000000000
     34266      4197  TIP3      H1            -15.1759742681       -9.8257532453       56.1614024461  TIP3      4005            0.0000000000
     34267      4197  TIP3      H2            -15.8272276022       -8.9559729433       57.1931063820  TIP3      4005            0.0000000000
     34268      4198  TIP3      OH2           -10.9624223832       -7.8253185489       41.3200728495  TIP3      4006            0.0000000000
     34269      4198  TIP3      H1            -11.4657210076       -8.3669523622       41.9464164620  TIP3      4006            0.0000000000
     34270      4198  TIP3      H2            -10.6630394111       -8.4973701176       40.6647096118  TIP3      4006            0.0000000000
     34271      4199  TIP3      OH2           -11.6952728340      -10.0182117122       53.6039478881  TIP3      4007            0.0000000000
     34272      4199  TIP3      H1            -12.2912356606       -9.2966103087       53.8616455570  TIP3      4007            0.0000000000
     34273      4199  TIP3      H2            -11.2969172985       -9.6487469320       52.7972422011  TIP3      4007            0.0000000000
     34274      4200  TIP3      OH2            -9.8854013781       -9.6011600680       39.5166134946  TIP3      4008            0.0000000000
     34275      4200  TIP3      H1            -10.0373617954       -9.6922825821       38.5540651515  TIP3      4008            0.0000000000
     34276      4200  TIP3      H2             -8.9093111129       -9.5496779628       39.5836868863  TIP3      4008            0.0000000000
     34277      4201  TIP3      OH2            -6.6217149155       -7.4478177027       56.9418196737  TIP3      4009            0.0000000000
     34278      4201  TIP3      H1             -5.6653393355       -7.4582240438       56.8171418513  TIP3      4009            0.0000000000
     34279      4201  TIP3      H2             -6.7920968855       -8.2150783177       57.5108423358  TIP3      4009            0.0000000000
     34280      4202  TIP3      OH2            -0.5563219454       -7.2825859028       38.9281024454  TIP3      4010            0.0000000000
     34281      4202  TIP3      H1             -0.7474494780       -7.6628698861       38.0575541466  TIP3      4010            0.0000000000
     34282      4202  TIP3      H2             -0.4676167769       -6.3198403525       38.7421444590  TIP3      4010            0.0000000000
     34283      4203  TIP3      OH2           -11.2892310845      -12.6398326457       54.6626861509  TIP3      4011            0.0000000000
     34284      4203  TIP3      H1            -11.1724825605      -13.3486505292       54.0033200789  TIP3      4011            0.0000000000
     34285      4203  TIP3      H2            -11.3335369589      -11.8288019542       54.1136630132  TIP3      4011            0.0000000000
     34286      4204  TIP3      OH2           -10.8852877295      -14.2565598858       52.2174393594  TIP3      4012            0.0000000000
     34287      4204  TIP3      H1            -10.3769070985      -13.7923277824       51.5101497747  TIP3      4012            0.0000000000
     34288      4204  TIP3      H2            -11.7787046538      -14.3353422573       51.8112795842  TIP3      4012            0.0000000000
     34289      4205  TIP3      OH2            -9.3491475977       -8.7573719699       52.4573733883  TIP3      4013            0.0000000000
     34290      4205  TIP3      H1             -8.5941946632       -8.9317774867       51.8882900697  TIP3      4013            0.0000000000
     34291      4205  TIP3      H2             -9.7016289176       -7.9192640132       52.1116945165  TIP3      4013            0.0000000000
     34292      4206  TIP3      OH2            -4.9508138306      -11.0309401088       57.4289315536  TIP3      4014            0.0000000000
     34293      4206  TIP3      H1             -4.6971280028      -11.9497722338       57.3059696910  TIP3      4014            0.0000000000
     34294      4206  TIP3      H2             -4.0913013963      -10.5745400278       57.4549519490  TIP3      4014            0.0000000000
     34295      4207  TIP3      OH2            -3.6097140140       -8.2243325105       55.5863279990  TIP3      4015            0.0000000000
     34296      4207  TIP3      H1             -3.8620883596       -7.5013394115       54.9708858010  TIP3      4015            0.0000000000
     34297      4207  TIP3      H2             -2.6523643323       -8.2541403866       55.3991452591  TIP3      4015            0.0000000000
     34298      4208  TIP3      OH2           -12.8293690547      -11.3865399906       56.5813556852  TIP3      4016            0.0000000000
     34299      4208  TIP3      H1            -13.5968938779      -11.9660522569       56.4154301535  TIP3      4016            0.0000000000
     34300      4208  TIP3      H2            -12.1756903197      -11.7561520539       55.9580983799  TIP3      4016            0.0000000000
     34301      4209  TIP3      OH2           -10.0914063441      -16.8176492451       52.5933677039  TIP3      4017            0.0000000000
     34302      4209  TIP3      H1            -10.2813196119      -15.8551772062       52.5067003045  TIP3      4017            0.0000000000
     34303      4209  TIP3      H2            -10.8460908574      -17.1861063832       52.1019028241  TIP3      4017            0.0000000000
     34304      4210  TIP3      OH2            -8.8281404650      -12.4926238278       56.2327889279  TIP3      4018            0.0000000000
     34305      4210  TIP3      H1             -9.1438074249      -12.7236758027       57.1278359530  TIP3      4018            0.0000000000
     34306      4210  TIP3      H2             -9.6126708142      -12.6895975411       55.6914227376  TIP3      4018            0.0000000000
     34307      4211  TIP3      OH2            -6.1019120217      -13.3432181848       55.3387449133  TIP3      4019            0.0000000000
     34308      4211  TIP3      H1             -7.0735121674      -13.2809539232       55.4139895812  TIP3      4019            0.0000000000
     34309      4211  TIP3      H2             -5.8679218603      -13.9883737016       56.0134421893  TIP3      4019            0.0000000000
     34310      4212  TIP3      OH2            -4.3871350662      -14.7656692031       57.2965531282  TIP3      4020            0.0000000000
     34311      4212  TIP3      H1             -4.7147014303      -15.6592063598       57.1073751163  TIP3      4020            0.0000000000
     34312      4212  TIP3      H2             -4.8349751512      -14.3742648670       58.0841125464  TIP3      4020            0.0000000000
     34313      4213  TIP3      OH2           -14.7548851008      -13.4493533193       56.3404160564  TIP3      4021            0.0000000000
     34314      4213  TIP3      H1            -14.5042009137      -14.1848102828       55.7556602326  TIP3      4021            0.0000000000
     34315      4213  TIP3      H2            -14.8413456233      -13.8975051903       57.2054442845  TIP3      4021            0.0000000000
     34316      4214  TIP3      OH2            -9.8831919312      -17.4262754414       55.3049391089  TIP3      4022            0.0000000000
     34317      4214  TIP3      H1             -9.2022527527      -18.1302665995       55.2897152831  TIP3      4022            0.0000000000
     34318      4214  TIP3      H2             -9.9965458439      -17.2860543112       54.3446525892  TIP3      4022            0.0000000000
     34319      4215  TIP3      OH2            -9.4824909689      -15.8071455570       57.4182902920  TIP3      4023            0.0000000000
     34320      4215  TIP3      H1             -9.6844981315      -16.3225014113       56.5966872359  TIP3      4023            0.0000000000
     34321      4215  TIP3      H2            -10.1064370219      -15.0585441773       57.3289710567  TIP3      4023            0.0000000000
     34322      4216  TIP3      OH2           -10.0535568051        1.1004659743       40.5959523576  TIP3      4024            0.0000000000
     34323      4216  TIP3      H1             -9.0865987507        1.1848446037       40.6637079583  TIP3      4024            0.0000000000
     34324      4216  TIP3      H2            -10.2017070816        1.7017956295       39.8563572140  TIP3      4024            0.0000000000
     34325      4217  TIP3      OH2           -16.5021503517       -4.3277979057       40.0647710161  TIP3      4025            0.0000000000
     34326      4217  TIP3      H1            -15.5353227169       -4.2332966989       40.2481588875  TIP3      4025            0.0000000000
     34327      4217  TIP3      H2            -16.4510285269       -4.9716495299       39.3185506184  TIP3      4025            0.0000000000
     34328      4218  TIP3      OH2           -17.7186324024        1.0566093599       45.0289804405  TIP3      4026            0.0000000000
     34329      4218  TIP3      H1            -18.4396736072        0.5716715256       44.5707858585  TIP3      4026            0.0000000000
     34330      4218  TIP3      H2            -17.4393206052        0.4038717437       45.6963304044  TIP3      4026            0.0000000000
     34331      4219  TIP3      OH2           -16.8957691507       -0.8045134188       46.9082126523  TIP3      4027            0.0000000000
     34332      4219  TIP3      H1            -17.2484847385       -1.6833987756       47.1074611882  TIP3      4027            0.0000000000
     34333      4219  TIP3      H2            -16.6543455925       -0.4803381813       47.7932620763  TIP3      4027            0.0000000000
     34334      4220  TIP3      OH2             0.6426832000       -0.0092173282       49.8359247924  TIP3      4028            0.0000000000
     34335      4220  TIP3      H1              0.6736334376        0.1500899327       50.7949948715  TIP3      4028            0.0000000000
     34336      4220  TIP3      H2              1.3468558197        0.5731626682       49.5327406397  TIP3      4028            0.0000000000
     34337      4221  TIP3      OH2             0.2206726388       -0.4199761824       52.7883722486  TIP3      4029            0.0000000000
     34338      4221  TIP3      H1             -0.2552063535       -1.1852807904       52.4012542834  TIP3      4029            0.0000000000
     34339      4221  TIP3      H2              0.7094028099       -0.8754030397       53.4967651350  TIP3      4029            0.0000000000
     34340      4222  TIP3      OH2            -1.3390771217       -4.6950915505       57.4551637937  TIP3      4030            0.0000000000
     34341      4222  TIP3      H1             -2.2458426280       -4.7206596175       57.8186694385  TIP3      4030            0.0000000000
     34342      4222  TIP3      H2             -0.9685912378       -3.8874915609       57.8636077935  TIP3      4030            0.0000000000
     34343      4223  TIP3      OH2            -0.0245600885       -6.3633767164       42.8835483009  TIP3      4031            0.0000000000
     34344      4223  TIP3      H1              0.8425156255       -5.9716163101       43.0695573530  TIP3      4031            0.0000000000
     34345      4223  TIP3      H2             -0.0404067948       -7.0828007259       43.5516945893  TIP3      4031            0.0000000000
     34346      4224  TIP3      OH2             0.3445198932       -8.3038710429       44.7708438611  TIP3      4032            0.0000000000
     34347      4224  TIP3      H1             -0.4149510475       -8.7881973515       45.1666323647  TIP3      4032            0.0000000000
     34348      4224  TIP3      H2              0.9303983600       -8.1494992626       45.5380270014  TIP3      4032            0.0000000000
     34349      4225  TIP3      OH2             0.1127388056       -5.6010510013       49.7640747428  TIP3      4033            0.0000000000
     34350      4225  TIP3      H1              0.9205211772       -5.9704200622       49.3702136523  TIP3      4033            0.0000000000
     34351      4225  TIP3      H2              0.2342678638       -4.6441419315       49.5853000628  TIP3      4033            0.0000000000
     34352      4226  TIP3      OH2            -1.3448686778       -2.6830097202       52.0236125166  TIP3      4034            0.0000000000
     34353      4226  TIP3      H1             -2.0400510798       -2.3457202412       52.6122225640  TIP3      4034            0.0000000000
     34354      4226  TIP3      H2             -1.8949371159       -3.0848476358       51.3170520983  TIP3      4034            0.0000000000
     34355      4227  TIP3      OH2             0.6361697538       -8.4645123553       41.1631038790  TIP3      4035            0.0000000000
     34356      4227  TIP3      H1              0.0696608307       -8.1228753079       40.4392536183  TIP3      4035            0.0000000000
     34357      4227  TIP3      H2              0.5368505150       -7.7513732397       41.8212616695  TIP3      4035            0.0000000000
     34358      4228  TIP3      OH2            -0.9843557187      -11.2384211053       39.6720545255  TIP3      4036            0.0000000000
     34359      4228  TIP3      H1             -0.9181936361      -10.5701183998       38.9783390744  TIP3      4036            0.0000000000
     34360      4228  TIP3      H2             -1.1761623537      -12.0601486288       39.1775551173  TIP3      4036            0.0000000000
     34361      4229  TIP3      OH2            -1.8457908780       -9.8122667937       45.3414360739  TIP3      4037            0.0000000000
     34362      4229  TIP3      H1             -1.9903925110      -10.7675481840       45.3042150587  TIP3      4037            0.0000000000
     34363      4229  TIP3      H2             -2.1857388522       -9.5897026177       46.2274272573  TIP3      4037            0.0000000000
     34364      4230  TIP3      OH2           -16.8387555867       -7.7300198947       49.4005650129  TIP3      4038            0.0000000000
     34365      4230  TIP3      H1            -16.6598468701       -7.8104194437       48.4373602552  TIP3      4038            0.0000000000
     34366      4230  TIP3      H2            -15.9450210396       -7.9060716009       49.7536386086  TIP3      4038            0.0000000000
     34367      4231  TIP3      OH2            -0.9884021403       -7.8546229566       55.0373963639  TIP3      4039            0.0000000000
     34368      4231  TIP3      H1             -0.3730585236       -8.6077864212       55.1639987090  TIP3      4039            0.0000000000
     34369      4231  TIP3      H2             -0.3852143160       -7.0798954795       55.0338247600  TIP3      4039            0.0000000000
     34370      4232  TIP3      OH2             0.5202090192       -9.9707381960       55.6822257182  TIP3      4040            0.0000000000
     34371      4232  TIP3      H1             -0.3640806362      -10.3664317323       55.5263974949  TIP3      4040            0.0000000000
     34372      4232  TIP3      H2              1.0910357462      -10.7556187740       55.6041513141  TIP3      4040            0.0000000000
     34373      4233  TIP3      OH2            -1.7354479826      -13.7637431373       38.8149085146  TIP3      4041            0.0000000000
     34374      4233  TIP3      H1             -1.1494947760      -14.2004647428       39.4588279802  TIP3      4041            0.0000000000
     34375      4233  TIP3      H2             -2.6011998257      -14.1805474422       38.9726038997  TIP3      4041            0.0000000000
     34376      4234  TIP3      OH2            -2.1942280367      -12.2344376177       43.7621647095  TIP3      4042            0.0000000000
     34377      4234  TIP3      H1             -1.8868919709      -13.1560188371       43.9047297548  TIP3      4042            0.0000000000
     34378      4234  TIP3      H2             -1.3891495235      -11.8112412709       43.4345743815  TIP3      4042            0.0000000000
     34379      4235  TIP3      OH2            -1.5407748479      -11.6817882831       49.2412047593  TIP3      4043            0.0000000000
     34380      4235  TIP3      H1             -0.5782594763      -11.4584943924       49.2283669872  TIP3      4043            0.0000000000
     34381      4235  TIP3      H2             -1.7249420432      -11.5467960031       50.1823100873  TIP3      4043            0.0000000000
     34382      4236  TIP3      OH2            -1.4708310468      -10.9620297144       52.0299890482  TIP3      4044            0.0000000000
     34383      4236  TIP3      H1             -2.3542034657      -10.6783883301       52.3427658082  TIP3      4044            0.0000000000
     34384      4236  TIP3      H2             -1.0378586343      -10.1068529291       51.8021686278  TIP3      4044            0.0000000000
     34385      4237  TIP3      OH2           -17.2182585573      -12.4257781310       55.5600953013  TIP3      4045            0.0000000000
     34386      4237  TIP3      H1            -16.2813463900      -12.6408192192       55.7475900878  TIP3      4045            0.0000000000
     34387      4237  TIP3      H2            -17.6762647202      -13.2518182713       55.8285389253  TIP3      4045            0.0000000000
     34388      4238  TIP3      OH2             0.7020677925      -16.8301553292       57.3831696937  TIP3      4046            0.0000000000
     34389      4238  TIP3      H1              1.1445744261      -17.5530297861       56.8581627091  TIP3      4046            0.0000000000
     34390      4238  TIP3      H2              0.9518975444      -16.0779381520       56.8176063071  TIP3      4046            0.0000000000
     34391      4239  TIP3      OH2            -1.4795981914      -14.9545218431       43.8395376092  TIP3      4047            0.0000000000
     34392      4239  TIP3      H1             -1.3360577277      -15.3895604168       44.7038863724  TIP3      4047            0.0000000000
     34393      4239  TIP3      H2             -2.1122073795      -15.5618067595       43.3965161597  TIP3      4047            0.0000000000
     34394      4240  TIP3      OH2           -16.0209860278      -14.1381422831       48.4043993919  TIP3      4048            0.0000000000
     34395      4240  TIP3      H1            -15.5599871792      -14.9646933228       48.6598068132  TIP3      4048            0.0000000000
     34396      4240  TIP3      H2            -15.4686745810      -13.4455643874       48.7917536305  TIP3      4048            0.0000000000
     34397      4241  TIP3      OH2           -17.7378886473      -11.1352149821       49.4397579485  TIP3      4049            0.0000000000
     34398      4241  TIP3      H1            -17.1741477823      -11.3867871120       48.6799233507  TIP3      4049            0.0000000000
     34399      4241  TIP3      H2            -17.2694565277      -10.3320987645       49.7093323852  TIP3      4049            0.0000000000
     34400      4242  TIP3      OH2             0.3494112285      -14.8152041500       55.7170003550  TIP3      4050            0.0000000000
     34401      4242  TIP3      H1             -0.5822514034      -14.5280793934       55.6497180933  TIP3      4050            0.0000000000
     34402      4242  TIP3      H2              0.3822556185      -15.3636269787       54.9179320517  TIP3      4050            0.0000000000
     34403      4243  TIP3      OH2             0.3233024347      -14.9274639263       40.4444395722  TIP3      4051            0.0000000000
     34404      4243  TIP3      H1              0.7071228504      -15.6181146657       39.8565688877  TIP3      4051            0.0000000000
     34405      4243  TIP3      H2              1.0076843663      -14.2424300395       40.4200482779  TIP3      4051            0.0000000000
     34406      4244  TIP3      OH2           -17.3657474006      -14.8597148873       43.5235733984  TIP3      4052            0.0000000000
     34407      4244  TIP3      H1            -18.3096544927      -14.7016921658       43.3580695079  TIP3      4052            0.0000000000
     34408      4244  TIP3      H2            -16.9456703011      -14.4008074819       42.7769871974  TIP3      4052            0.0000000000
     34409      4245  TIP3      OH2            -2.6321983428        0.0785063578       45.4641633481  TIP3      4053            0.0000000000
     34410      4245  TIP3      H1             -1.9512354605       -0.2300716797       44.8418317185  TIP3      4053            0.0000000000
     34411      4245  TIP3      H2             -2.1150341603        0.5727147929       46.1141629190  TIP3      4053            0.0000000000
     34412      4246  TIP3      OH2           -17.4244770655      -16.2267039729       51.8068666687  TIP3      4054            0.0000000000
     34413      4246  TIP3      H1            -18.0916483742      -16.4165387110       52.4896030592  TIP3      4054            0.0000000000
     34414      4246  TIP3      H2            -17.8813592580      -15.5501112596       51.2674951559  TIP3      4054            0.0000000000
     34415      4247  TIP3      OH2           -15.1824355735       -3.0316268843       55.9692826494  TIP3      4055            0.0000000000
     34416      4247  TIP3      H1            -16.0204204231       -2.8056746650       55.5316098167  TIP3      4055            0.0000000000
     34417      4247  TIP3      H2            -15.4510472112       -3.0989561198       56.8882319641  TIP3      4055            0.0000000000
     34418      4248  TIP3      OH2           -12.2847644482       -2.0312652801       52.2471961462  TIP3      4056            0.0000000000
     34419      4248  TIP3      H1            -12.5959033305       -1.1589268271       51.9704159323  TIP3      4056            0.0000000000
     34420      4248  TIP3      H2            -11.3502311088       -1.9442379487       51.9431713632  TIP3      4056            0.0000000000
     34421      4249  TIP3      OH2            -7.9645129402       -0.5937490209       55.1523633158  TIP3      4057            0.0000000000
     34422      4249  TIP3      H1             -7.8265378058       -0.9492392036       56.0601937097  TIP3      4057            0.0000000000
     34423      4249  TIP3      H2             -7.0608233830       -0.2914342245       54.9117081974  TIP3      4057            0.0000000000
     34424      4250  TIP3      OH2            -5.6793000254        0.6745826277       54.4658964318  TIP3      4058            0.0000000000
     34425      4250  TIP3      H1             -4.9457580158        0.0891662222       54.2239489879  TIP3      4058            0.0000000000
     34426      4250  TIP3      H2             -5.3027970909        1.1099100172       55.2599664456  TIP3      4058            0.0000000000
     34427      4251  TIP3      OH2            -0.6814325092      -16.7090478101       53.5789238253  TIP3      4059            0.0000000000
     34428      4251  TIP3      H1             -1.5021545938      -16.4155422175       53.1486893331  TIP3      4059            0.0000000000
     34429      4251  TIP3      H2             -0.4822608941      -17.5317876068       53.0737756485  TIP3      4059            0.0000000000
     34430      4252  TIP3      OH2           -14.8625205743        1.2178619862       52.2420869944  TIP3      4060            0.0000000000
     34431      4252  TIP3      H1            -15.5945603109        1.7188296636       51.8470502464  TIP3      4060            0.0000000000
     34432      4252  TIP3      H2            -15.1732172681        1.0287895191       53.1393449009  TIP3      4060            0.0000000000
     34433      4253  TIP3      OH2           -12.3899129760        0.7904773680       51.3192178417  TIP3      4061            0.0000000000
     34434      4253  TIP3      H1            -13.2820303756        0.9415453598       51.7125903480  TIP3      4061            0.0000000000
     34435      4253  TIP3      H2            -12.4464347640        1.3886984728       50.5496248664  TIP3      4061            0.0000000000
     34436      4254  TIP3      OH2            -7.6782017704        0.7154324007       50.4806974456  TIP3      4062            0.0000000000
     34437      4254  TIP3      H1             -8.1509975469        1.2541758969       49.8342590944  TIP3      4062            0.0000000000
     34438      4254  TIP3      H2             -7.5586031643        1.3350172440       51.2274900754  TIP3      4062            0.0000000000
     34439      4255  TIP3      OH2            -5.3996171484       -0.4673860236       51.5438821601  TIP3      4063            0.0000000000
     34440      4255  TIP3      H1             -6.2505003183       -0.2451511071       51.1286789874  TIP3      4063            0.0000000000
     34441      4255  TIP3      H2             -4.9263832888        0.3660619892       51.4108055758  TIP3      4063            0.0000000000
     34442      4256  TIP3      OH2            -2.8165044395        1.0847941912       51.7345398717  TIP3      4064            0.0000000000
     34443      4256  TIP3      H1             -2.8688502779        2.0444397692       51.5076104787  TIP3      4064            0.0000000000
     34444      4256  TIP3      H2             -2.5976867267        0.7102772986       50.8579774932  TIP3      4064            0.0000000000
     34445      4257  TIP3      OH2           -15.3985539078       -0.1343888066       49.1874959577  TIP3      4065            0.0000000000
     34446      4257  TIP3      H1            -15.4648318300       -0.6042259910       50.0444342086  TIP3      4065            0.0000000000
     34447      4257  TIP3      H2            -14.5857435703       -0.5084806277       48.7931940040  TIP3      4065            0.0000000000
     34448      4258  TIP3      OH2           -13.3381600655       -1.4181648196       47.8454313013  TIP3      4066            0.0000000000
     34449      4258  TIP3      H1            -13.4738672314       -2.3567332651       48.0759739867  TIP3      4066            0.0000000000
     34450      4258  TIP3      H2            -12.4643946435       -1.2696232598       48.2830676781  TIP3      4066            0.0000000000
     34451      4259  TIP3      OH2           -10.7819800174       -0.9550583327       48.7150615076  TIP3      4067            0.0000000000
     34452      4259  TIP3      H1            -10.4946487733       -1.8519586015       48.4677114056  TIP3      4067            0.0000000000
     34453      4259  TIP3      H2            -10.6381863085       -1.0020822131       49.6693998848  TIP3      4067            0.0000000000
     34454      4260  TIP3      OH2            -7.2682977942      -15.2876898517       47.8582298262  TIP3      4068            0.0000000000
     34455      4260  TIP3      H1             -7.9449207751      -15.9277448054       48.1368274842  TIP3      4068            0.0000000000
     34456      4260  TIP3      H2             -6.7194362688      -15.8217459627       47.2729995857  TIP3      4068            0.0000000000
     34457      4261  TIP3      OH2            -2.1320923866      -17.2423735236       47.9113361140  TIP3      4069            0.0000000000
     34458      4261  TIP3      H1             -1.5374069346      -16.6358947088       47.4137831757  TIP3      4069            0.0000000000
     34459      4261  TIP3      H2             -3.0231542224      -16.8873899747       47.7023511896  TIP3      4069            0.0000000000
     34460      4262  TIP3      OH2            -0.4619242830      -15.9912141101       46.1950865798  TIP3      4070            0.0000000000
     34461      4262  TIP3      H1              0.1692577729      -16.6150692157       45.7755753204  TIP3      4070            0.0000000000
     34462      4262  TIP3      H2             -0.0041137061      -15.1333789954       46.3383518554  TIP3      4070            0.0000000000
     34463      4263  TIP3      OH2           -14.8935049626      -16.6627495205       45.7028400958  TIP3      4071            0.0000000000
     34464      4263  TIP3      H1            -15.6919508433      -16.8560267901       45.1750706694  TIP3      4071            0.0000000000
     34465      4263  TIP3      H2            -14.4363173251      -17.5239718858       45.6428035163  TIP3      4071            0.0000000000
     34466      4264  TIP3      OH2           -16.1418797678      -16.9024432715       41.4442480275  TIP3      4072            0.0000000000
     34467      4264  TIP3      H1            -15.6288629581      -16.2834310205       40.8882474789  TIP3      4072            0.0000000000
     34468      4264  TIP3      H2            -16.7011473223      -16.3112116271       41.9659156895  TIP3      4072            0.0000000000
     34469      4265  TIP3      OH2           -10.4280065239      -16.7348153373       45.4900348740  TIP3      4073            0.0000000000
     34470      4265  TIP3      H1             -9.5270281271      -16.3784837635       45.4151422402  TIP3      4073            0.0000000000
     34471      4265  TIP3      H2            -10.4600512185      -16.9554284419       46.4197191528  TIP3      4073            0.0000000000
     34472      4266  TIP3      OH2            -4.7115437820      -16.7167907040       47.1150038852  TIP3      4074            0.0000000000
     34473      4266  TIP3      H1             -4.7625848442      -16.6046728504       46.1565413882  TIP3      4074            0.0000000000
     34474      4266  TIP3      H2             -5.0985092003      -17.6178886369       47.2475800623  TIP3      4074            0.0000000000
     34475      4267  TIP3      OH2            -3.4417531819      -16.6792444903       42.7967400520  TIP3      4075            0.0000000000
     34476      4267  TIP3      H1             -4.1963693175      -16.0935538450       42.6388669776  TIP3      4075            0.0000000000
     34477      4267  TIP3      H2             -3.8711655299      -17.5340787811       43.0344298251  TIP3      4075            0.0000000000
     34478      4268  TIP3      OH2           -16.2125453053       -0.9588333876       42.4586147255  TIP3      4076            0.0000000000
     34479      4268  TIP3      H1            -16.8767939993       -0.9715978766       41.7473948250  TIP3      4076            0.0000000000
     34480      4268  TIP3      H2            -16.2163378987       -0.0036431397       42.6274920254  TIP3      4076            0.0000000000
     34481      4269  TIP3      OH2           -14.2985994705      -14.9649954871       39.9300746264  TIP3      4077            0.0000000000
     34482      4269  TIP3      H1            -13.7798465886      -15.6111414308       39.4179550652  TIP3      4077            0.0000000000
     34483      4269  TIP3      H2            -13.6321457705      -14.6475599104       40.5671603502  TIP3      4077            0.0000000000
     34484      4270  TIP3      OH2            -9.2747266772      -14.7205745702       42.3393365115  TIP3      4078            0.0000000000
     34485      4270  TIP3      H1             -9.0239908570      -15.2994532732       43.0781056021  TIP3      4078            0.0000000000
     34486      4270  TIP3      H2             -9.2035945217      -13.8548421633       42.7978123390  TIP3      4078            0.0000000000
     34487      4271  TIP3      OH2            -7.3403673764        0.3530674629       40.7869159607  TIP3      4079            0.0000000000
     34488      4271  TIP3      H1             -6.4225490806        0.5783549275       40.5656188307  TIP3      4079            0.0000000000
     34489      4271  TIP3      H2             -7.5610614017       -0.1679132716       39.9864329786  TIP3      4079            0.0000000000
     34490      4272  TIP3      OH2            -0.6459121028       -0.1470221662       43.5067130491  TIP3      4080            0.0000000000
     34491      4272  TIP3      H1             -0.8358138404       -0.9302862735       42.9357964326  TIP3      4080            0.0000000000
     34492      4272  TIP3      H2             -0.7133246237        0.5871523935       42.8623766402  TIP3      4080            0.0000000000
     34493      4273  TIP3      OH2           -15.0109116088      -16.1171413831       55.1524766964  TIP3      4081            0.0000000000
     34494      4273  TIP3      H1            -15.4006016022      -16.9139070605       55.5595375630  TIP3      4081            0.0000000000
     34495      4273  TIP3      H2            -14.1036607865      -16.1601096099       55.5369053097  TIP3      4081            0.0000000000
     34496      4274  TIP3      OH2           -13.0076298434      -16.7424273303       56.7949069357  TIP3      4082            0.0000000000
     34497      4274  TIP3      H1            -12.1153188217      -17.0760617354       56.5794286824  TIP3      4082            0.0000000000
     34498      4274  TIP3      H2            -13.3830909152      -17.5489576114       57.2011717362  TIP3      4082            0.0000000000
     34499      4275  TIP3      OH2           -14.4228803870        0.0249289874       39.3928225649  TIP3      4083            0.0000000000
     34500      4275  TIP3      H1            -14.6801717191        0.2853949518       40.2885698049  TIP3      4083            0.0000000000
     34501      4275  TIP3      H2            -13.6381071956       -0.5357896582       39.5486425964  TIP3      4083            0.0000000000
     34502      4276  TIP3      OH2            -4.6170706305      -17.4710559363       56.8638144769  TIP3      4084            0.0000000000
     34503      4276  TIP3      H1             -4.6323825844      -18.1529585387       57.5572996518  TIP3      4084            0.0000000000
     34504      4276  TIP3      H2             -3.7040386874      -17.5365882224       56.4715964170  TIP3      4084            0.0000000000
     34505      4277  TIP3      OH2            -1.3990822398       -1.3983679956       55.5779603612  TIP3      4085            0.0000000000
     34506      4277  TIP3      H1             -2.2033666541       -1.5357396163       55.0317069409  TIP3      4085            0.0000000000
     34507      4277  TIP3      H2             -1.5149721562       -0.4518144009       55.7964572712  TIP3      4085            0.0000000000
     34508      4278  TIP3      OH2            13.0509916290       -7.5340379519       45.5602090445  TIP3      4086            0.0000000000
     34509      4278  TIP3      H1             13.0317914450       -6.5533300000       45.5464360422  TIP3      4086            0.0000000000
     34510      4278  TIP3      H2             12.3151297188       -7.7656384802       44.9726723872  TIP3      4086            0.0000000000
     34511      4279  TIP3      OH2            11.8593369492       -8.2422170128       49.0613355597  TIP3      4087            0.0000000000
     34512      4279  TIP3      H1             11.9246489578       -8.9076592011       49.7725850373  TIP3      4087            0.0000000000
     34513      4279  TIP3      H2             11.5714907885       -8.7867385918       48.3116197310  TIP3      4087            0.0000000000
     34514      4280  TIP3      OH2             4.2539166548       -8.5898138608       50.6123303178  TIP3      4088            0.0000000000
     34515      4280  TIP3      H1              4.3374134333       -9.2773686029       51.3060908514  TIP3      4088            0.0000000000
     34516      4280  TIP3      H2              5.0032072521       -8.0193765974       50.8368045130  TIP3      4088            0.0000000000
     34517      4281  TIP3      OH2            15.5845652512       -5.3186283524       47.3449366174  TIP3      4089            0.0000000000
     34518      4281  TIP3      H1             15.1743505791       -6.0382234462       47.8366636540  TIP3      4089            0.0000000000
     34519      4281  TIP3      H2             15.6109666861       -4.6111817384       48.0158392611  TIP3      4089            0.0000000000
     34520      4282  TIP3      OH2             5.1801419467       -4.1413544822       49.1132964405  TIP3      4090            0.0000000000
     34521      4282  TIP3      H1              4.8702239848       -5.0113205130       48.7969509527  TIP3      4090            0.0000000000
     34522      4282  TIP3      H2              6.1356306679       -4.3242403750       49.1593679966  TIP3      4090            0.0000000000
     34523      4283  TIP3      OH2             1.8068394131      -10.6127511325       44.6155836159  TIP3      4091            0.0000000000
     34524      4283  TIP3      H1              1.4120737752       -9.7139294796       44.5489843672  TIP3      4091            0.0000000000
     34525      4283  TIP3      H2              1.2422286358      -11.1009415993       44.0069989965  TIP3      4091            0.0000000000
     34526      4284  TIP3      OH2             2.5256932802       -8.3729469095       46.7458923978  TIP3      4092            0.0000000000
     34527      4284  TIP3      H1              2.8067833256       -9.1870129183       47.2021510943  TIP3      4092            0.0000000000
     34528      4284  TIP3      H2              3.2268525708       -8.2482649810       46.0881363116  TIP3      4092            0.0000000000
     34529      4285  TIP3      OH2            12.7052890944       -0.1595648497       47.5832092324  TIP3      4093            0.0000000000
     34530      4285  TIP3      H1             13.3549106283       -0.8476041033       47.2956479308  TIP3      4093            0.0000000000
     34531      4285  TIP3      H2             12.4903202162       -0.4963766630       48.4527243611  TIP3      4093            0.0000000000
     34532      4286  TIP3      OH2            10.2818199448       -5.8688194480       49.5320627999  TIP3      4094            0.0000000000
     34533      4286  TIP3      H1             10.6130682039       -6.4992129470       48.8733763573  TIP3      4094            0.0000000000
     34534      4286  TIP3      H2             11.0947901170       -5.7299786925       50.0470237753  TIP3      4094            0.0000000000
     34535      4287  TIP3      OH2            18.9044414019      -14.2207993574       50.2584239761  TIP3      4095            0.0000000000
     34536      4287  TIP3      H1             19.0328639381      -13.6147026250       51.0197730086  TIP3      4095            0.0000000000
     34537      4287  TIP3      H2             19.4467657315      -13.7774156009       49.5919133749  TIP3      4095            0.0000000000
     34538      4288  TIP3      OH2            13.5570392100      -10.9661786551       49.1554050770  TIP3      4096            0.0000000000
     34539      4288  TIP3      H1             13.6208624208      -11.8152500315       49.6630805715  TIP3      4096            0.0000000000
     34540      4288  TIP3      H2             13.2331761708      -11.2994588660       48.3080789416  TIP3      4096            0.0000000000
     34541      4289  TIP3      OH2             6.5389799843      -13.3109657245       47.0592452410  TIP3      4097            0.0000000000
     34542      4289  TIP3      H1              6.6838639893      -12.4731846245       46.5788978736  TIP3      4097            0.0000000000
     34543      4289  TIP3      H2              6.1778604012      -13.8819435897       46.3573160103  TIP3      4097            0.0000000000
     34544      4290  TIP3      OH2            14.3098620652      -13.2571332474       45.4222995808  TIP3      4098            0.0000000000
     34545      4290  TIP3      H1             14.9466595278      -13.5386423780       46.1217906380  TIP3      4098            0.0000000000
     34546      4290  TIP3      H2             14.8645631326      -12.6536179769       44.9044619376  TIP3      4098            0.0000000000
     34547      4291  TIP3      OH2             3.1566327112      -10.9202093176       47.7967919892  TIP3      4099            0.0000000000
     34548      4291  TIP3      H1              3.8575081723      -11.4228073758       48.2588313596  TIP3      4099            0.0000000000
     34549      4291  TIP3      H2              3.3068329195      -11.1994588067       46.8815773033  TIP3      4099            0.0000000000
     34550      4292  TIP3      OH2             8.3105036270       -9.3392381521       47.1115591823  TIP3      4100            0.0000000000
     34551      4292  TIP3      H1              8.9994253992       -9.9116436186       47.5036827734  TIP3      4100            0.0000000000
     34552      4292  TIP3      H2              7.8089628957      -10.0044919347       46.6025644138  TIP3      4100            0.0000000000
     34553      4293  TIP3      OH2            19.3504006260      -12.7904821820       52.5365559304  TIP3      4101            0.0000000000
     34554      4293  TIP3      H1             18.7061644011      -12.0511748403       52.4268588772  TIP3      4101            0.0000000000
     34555      4293  TIP3      H2             19.3428740361      -12.8878753369       53.4941361929  TIP3      4101            0.0000000000
     34556      4294  TIP3      OH2             5.4679135250      -14.3961893641       51.0798476028  TIP3      4102            0.0000000000
     34557      4294  TIP3      H1              5.1766486859      -13.8220785989       50.3435590609  TIP3      4102            0.0000000000
     34558      4294  TIP3      H2              4.7954027925      -14.1861431545       51.7747406578  TIP3      4102            0.0000000000
     34559      4295  TIP3      OH2            12.7527447865       -4.9297012567       44.6426057780  TIP3      4103            0.0000000000
     34560      4295  TIP3      H1             12.4914928925       -5.2025401811       43.7563202931  TIP3      4103            0.0000000000
     34561      4295  TIP3      H2             12.4473173843       -3.9962251079       44.6984756622  TIP3      4103            0.0000000000
     34562      4296  TIP3      OH2             7.9782238091       -6.7664780123       51.3387849837  TIP3      4104            0.0000000000
     34563      4296  TIP3      H1              7.2754673765       -6.1214893961       51.5594055534  TIP3      4104            0.0000000000
     34564      4296  TIP3      H2              8.6857497162       -6.1691360331       51.0494393827  TIP3      4104            0.0000000000
     34565      4297  TIP3      OH2            16.1142002320      -13.8968632433       47.4178129167  TIP3      4105            0.0000000000
     34566      4297  TIP3      H1             15.8647381898      -14.6351898609       47.9816729530  TIP3      4105            0.0000000000
     34567      4297  TIP3      H2             16.7688078222      -13.4389742580       47.9745992843  TIP3      4105            0.0000000000
     34568      4298  TIP3      OH2             5.0195259701      -12.5572267405       49.1174055662  TIP3      4106            0.0000000000
     34569      4298  TIP3      H1              5.6478790104      -11.8756911972       49.4479655558  TIP3      4106            0.0000000000
     34570      4298  TIP3      H2              5.5639308192      -12.9649702689       48.4001933821  TIP3      4106            0.0000000000
     34571      4299  TIP3      OH2             6.4276970447       -4.7601224161       52.1598423303  TIP3      4107            0.0000000000
     34572      4299  TIP3      H1              6.3783375345       -3.8467088974       51.8229802797  TIP3      4107            0.0000000000
     34573      4299  TIP3      H2              5.5457218779       -4.8413945969       52.6037155693  TIP3      4107            0.0000000000
     34574      4300  TIP3      OH2             2.5078056429       -5.1532950072       42.9527320603  TIP3      4108            0.0000000000
     34575      4300  TIP3      H1              2.2572916920       -4.8135471005       42.0758112960  TIP3      4108            0.0000000000
     34576      4300  TIP3      H2              2.5874379676       -4.3257179119       43.4681128924  TIP3      4108            0.0000000000
     34577      4301  TIP3      OH2            16.1165366770       -3.4794161873       49.7131233994  TIP3      4109            0.0000000000
     34578      4301  TIP3      H1             15.1477168028       -3.3690155615       49.8327029316  TIP3      4109            0.0000000000
     34579      4301  TIP3      H2             16.3849347068       -2.5637927861       49.5095656873  TIP3      4109            0.0000000000
     34580      4302  TIP3      OH2            16.4458995184      -15.2085304177       51.0932405440  TIP3      4110            0.0000000000
     34581      4302  TIP3      H1             15.7135520185      -14.5726863563       51.0209145971  TIP3      4110            0.0000000000
     34582      4302  TIP3      H2             17.1416609705      -14.7617329964       50.5783396803  TIP3      4110            0.0000000000
     34583      4303  TIP3      OH2             9.4042691487      -17.0733964391       48.5635709752  TIP3      4111            0.0000000000
     34584      4303  TIP3      H1              9.2658721356      -18.0353068821       48.4972996684  TIP3      4111            0.0000000000
     34585      4303  TIP3      H2              8.5275578936      -16.7700720421       48.8767140589  TIP3      4111            0.0000000000
     34586      4304  TIP3      OH2            14.3770508972       -1.6948744236       46.2990503448  TIP3      4112            0.0000000000
     34587      4304  TIP3      H1             14.8039381570       -2.4154417019       45.7914319499  TIP3      4112            0.0000000000
     34588      4304  TIP3      H2             14.8113283681       -0.9067205930       45.9088829325  TIP3      4112            0.0000000000
     34589      4305  TIP3      OH2            15.5911448330       -3.7697409108       44.8205714697  TIP3      4113            0.0000000000
     34590      4305  TIP3      H1             15.2875410331       -4.4659781705       44.2165557009  TIP3      4113            0.0000000000
     34591      4305  TIP3      H2             15.6228670628       -4.2604687523       45.6613871977  TIP3      4113            0.0000000000
     34592      4306  TIP3      OH2            17.2000852014       -5.1760862299       53.3138652850  TIP3      4114            0.0000000000
     34593      4306  TIP3      H1             17.3501773688       -5.8293595482       52.5953892905  TIP3      4114            0.0000000000
     34594      4306  TIP3      H2             17.4048159947       -4.3377236737       52.8660852395  TIP3      4114            0.0000000000
     34595      4307  TIP3      OH2            11.7007477142       -8.2873795279       43.0711192214  TIP3      4115            0.0000000000
     34596      4307  TIP3      H1             11.0071437814       -7.7084790930       42.7118854666  TIP3      4115            0.0000000000
     34597      4307  TIP3      H2             12.4127476347       -8.1910922831       42.4127600918  TIP3      4115            0.0000000000
     34598      4308  TIP3      OH2            11.7835567342       -9.7158833725       40.0838668554  TIP3      4116            0.0000000000
     34599      4308  TIP3      H1             12.4878700911       -9.7347850654       40.7493623261  TIP3      4116            0.0000000000
     34600      4308  TIP3      H2             12.0893360800      -10.4345846152       39.5158403269  TIP3      4116            0.0000000000
     34601      4309  TIP3      OH2            19.0938152678       -8.8612421248       51.3531637563  TIP3      4117            0.0000000000
     34602      4309  TIP3      H1             18.4482380455       -8.1297280600       51.3967918256  TIP3      4117            0.0000000000
     34603      4309  TIP3      H2             19.5889881603       -8.6282780015       50.5480361154  TIP3      4117            0.0000000000
     34604      4310  TIP3      OH2            15.1509040664       -8.0979507479       44.0084463005  TIP3      4118            0.0000000000
     34605      4310  TIP3      H1             14.4117233738       -7.8480174480       44.6134247302  TIP3      4118            0.0000000000
     34606      4310  TIP3      H2             15.6276333695       -8.7607421095       44.5372540290  TIP3      4118            0.0000000000
     34607      4311  TIP3      OH2            15.1811539671       -9.8000854781       53.1442958978  TIP3      4119            0.0000000000
     34608      4311  TIP3      H1             15.0545346399       -9.0049996557       53.6562383294  TIP3      4119            0.0000000000
     34609      4311  TIP3      H2             14.4799473966       -9.6897144286       52.4611812452  TIP3      4119            0.0000000000
     34610      4312  TIP3      OH2             6.7493505645       -7.4205721330       45.9135022137  TIP3      4120            0.0000000000
     34611      4312  TIP3      H1              6.4396620136       -7.8082076879       45.0606709147  TIP3      4120            0.0000000000
     34612      4312  TIP3      H2              7.3725987792       -8.1052060272       46.2477788100  TIP3      4120            0.0000000000
     34613      4313  TIP3      OH2             8.0798400971       -4.0338244110       48.5944586148  TIP3      4121            0.0000000000
     34614      4313  TIP3      H1              8.0770172093       -4.5557036527       47.7829066826  TIP3      4121            0.0000000000
     34615      4313  TIP3      H2              8.8641107192       -4.3880682151       49.0527029479  TIP3      4121            0.0000000000
     34616      4314  TIP3      OH2             7.0911738409       -8.6666849857       49.5781979322  TIP3      4122            0.0000000000
     34617      4314  TIP3      H1              7.6488791857       -8.5628970091       48.7825124630  TIP3      4122            0.0000000000
     34618      4314  TIP3      H2              7.4790354161       -8.0036123518       50.1904540090  TIP3      4122            0.0000000000
     34619      4315  TIP3      OH2            13.5136690448       -3.0937335908       50.2828096952  TIP3      4123            0.0000000000
     34620      4315  TIP3      H1             13.2207626987       -2.4589685810       50.9430573513  TIP3      4123            0.0000000000
     34621      4315  TIP3      H2             13.2557397400       -3.9474360088       50.7051377982  TIP3      4123            0.0000000000
     34622      4316  TIP3      OH2             8.0443193994       -4.2374542551       54.2718698411  TIP3      4124            0.0000000000
     34623      4316  TIP3      H1              7.6293773296       -3.4985637280       54.7622305910  TIP3      4124            0.0000000000
     34624      4316  TIP3      H2              7.3720001152       -4.4373257956       53.5746705038  TIP3      4124            0.0000000000
     34625      4317  TIP3      OH2            14.0291941149       -8.8692144438       41.6618377510  TIP3      4125            0.0000000000
     34626      4317  TIP3      H1             14.5847810957       -8.6981672402       42.4627975788  TIP3      4125            0.0000000000
     34627      4317  TIP3      H2             14.4804502079       -8.3758906992       40.9402806620  TIP3      4125            0.0000000000
     34628      4318  TIP3      OH2             4.9864524482       -8.0777180633       53.4242700990  TIP3      4126            0.0000000000
     34629      4318  TIP3      H1              5.0386729577       -7.4105573395       54.1341312894  TIP3      4126            0.0000000000
     34630      4318  TIP3      H2              4.0437131240       -7.9901239029       53.2136490618  TIP3      4126            0.0000000000
     34631      4319  TIP3      OH2            11.7392903533       -2.1504934945       45.1339371423  TIP3      4127            0.0000000000
     34632      4319  TIP3      H1             12.1714512287       -1.8460950040       45.9407768333  TIP3      4127            0.0000000000
     34633      4319  TIP3      H2             11.1829339963       -1.4005362605       44.8967362927  TIP3      4127            0.0000000000
     34634      4320  TIP3      OH2             6.2903897839       -2.2036441238       55.0189230889  TIP3      4128            0.0000000000
     34635      4320  TIP3      H1              6.2295984758       -2.3025935145       54.0535037902  TIP3      4128            0.0000000000
     34636      4320  TIP3      H2              5.3601479343       -2.3363621016       55.2856391243  TIP3      4128            0.0000000000
     34637      4321  TIP3      OH2            17.7515428786      -17.1416710748       41.5666433868  TIP3      4129            0.0000000000
     34638      4321  TIP3      H1             16.8048736339      -17.0263644587       41.8065097791  TIP3      4129            0.0000000000
     34639      4321  TIP3      H2             17.9539477662      -16.3012103829       41.1222670142  TIP3      4129            0.0000000000
     34640      4322  TIP3      OH2             5.7196265688       -8.3978286803       43.5455667778  TIP3      4130            0.0000000000
     34641      4322  TIP3      H1              5.4448750641       -7.6122655390       43.0259086383  TIP3      4130            0.0000000000
     34642      4322  TIP3      H2              5.0752293254       -9.0611853002       43.2950464797  TIP3      4130            0.0000000000
     34643      4323  TIP3      OH2            18.8641318590       -2.7848803630       39.9099222028  TIP3      4131            0.0000000000
     34644      4323  TIP3      H1             19.0313643654       -1.8438186540       40.0844626891  TIP3      4131            0.0000000000
     34645      4323  TIP3      H2             19.7872438369       -3.1009216653       39.9115352182  TIP3      4131            0.0000000000
     34646      4324  TIP3      OH2             1.8159850699       -5.9634330959       52.4305498081  TIP3      4132            0.0000000000
     34647      4324  TIP3      H1              1.3746597546       -6.0428154381       51.5636458787  TIP3      4132            0.0000000000
     34648      4324  TIP3      H2              1.9015320295       -6.9116473979       52.6438704574  TIP3      4132            0.0000000000
     34649      4325  TIP3      OH2             1.5808810334       -3.2266543425       49.2042221243  TIP3      4133            0.0000000000
     34650      4325  TIP3      H1              2.5388961988       -3.3431089072       49.1849137684  TIP3      4133            0.0000000000
     34651      4325  TIP3      H2              1.4985505905       -2.4090422051       49.7094168238  TIP3      4133            0.0000000000
     34652      4326  TIP3      OH2            19.8221726807       -2.5226004116       54.8959953219  TIP3      4134            0.0000000000
     34653      4326  TIP3      H1             19.7022222513       -3.4832455701       54.8667649120  TIP3      4134            0.0000000000
     34654      4326  TIP3      H2             18.9474678518       -2.2750758506       55.2800306206  TIP3      4134            0.0000000000
     34655      4327  TIP3      OH2            10.7770572705       -2.9841798246       53.7555224868  TIP3      4135            0.0000000000
     34656      4327  TIP3      H1             10.8364305786       -2.1417402898       54.2644913179  TIP3      4135            0.0000000000
     34657      4327  TIP3      H2              9.9047879102       -3.3434471495       54.0075730325  TIP3      4135            0.0000000000
     34658      4328  TIP3      OH2            11.2223927266        0.7578299611       43.5452076163  TIP3      4136            0.0000000000
     34659      4328  TIP3      H1             11.1101967300        0.6801100827       42.5802477197  TIP3      4136            0.0000000000
     34660      4328  TIP3      H2             11.2228548382        1.7202105090       43.7018542159  TIP3      4136            0.0000000000
     34661      4329  TIP3      OH2             4.8579220324       -0.3640458100       45.3699742395  TIP3      4137            0.0000000000
     34662      4329  TIP3      H1              5.0030180928       -0.7771475670       46.2471338584  TIP3      4137            0.0000000000
     34663      4329  TIP3      H2              4.0089048606       -0.7721948735       45.1306745412  TIP3      4137            0.0000000000
     34664      4330  TIP3      OH2            14.2746559075       -0.0280614041       40.5297766838  TIP3      4138            0.0000000000
     34665      4330  TIP3      H1             14.7298444646       -0.7863515853       40.0955851122  TIP3      4138            0.0000000000
     34666      4330  TIP3      H2             14.3148016686       -0.2894490578       41.4731849590  TIP3      4138            0.0000000000
     34667      4331  TIP3      OH2            13.9724737274       -0.0923986025       43.3053134599  TIP3      4139            0.0000000000
     34668      4331  TIP3      H1             13.0098967104       -0.0175308674       43.4748843317  TIP3      4139            0.0000000000
     34669      4331  TIP3      H2             14.2043558404       -0.8357661935       43.8825593449  TIP3      4139            0.0000000000
     34670      4332  TIP3      OH2            16.9952307615      -11.0389009602       55.3705411474  TIP3      4140            0.0000000000
     34671      4332  TIP3      H1             16.4891748762      -10.6029696006       54.6622042974  TIP3      4140            0.0000000000
     34672      4332  TIP3      H2             16.9250846200      -11.9583579799       55.0635285086  TIP3      4140            0.0000000000
     34673      4333  TIP3      OH2             4.1081817112       -4.6455876660       53.3687771822  TIP3      4141            0.0000000000
     34674      4333  TIP3      H1              4.3294092278       -5.0114536979       54.2501757714  TIP3      4141            0.0000000000
     34675      4333  TIP3      H2              3.2390816146       -5.0443585580       53.1558724177  TIP3      4141            0.0000000000
     34676      4334  TIP3      OH2             6.8014083956      -16.1768253729       49.3252446456  TIP3      4142            0.0000000000
     34677      4334  TIP3      H1              5.9003763993      -16.3100757346       48.9669922480  TIP3      4142            0.0000000000
     34678      4334  TIP3      H2              6.6580665020      -15.3428683656       49.8036466528  TIP3      4142            0.0000000000
     34679      4335  TIP3      OH2            11.3987778476      -16.6766384885       52.6643336595  TIP3      4143            0.0000000000
     34680      4335  TIP3      H1             11.8305823134      -16.9187769649       53.4985993338  TIP3      4143            0.0000000000
     34681      4335  TIP3      H2             10.4361973394      -16.6198892447       52.8557341814  TIP3      4143            0.0000000000
     34682      4336  TIP3      OH2            14.9289929064      -12.5304208573       54.1126663944  TIP3      4144            0.0000000000
     34683      4336  TIP3      H1             14.0859316245      -12.9085641860       54.4273076156  TIP3      4144            0.0000000000
     34684      4336  TIP3      H2             14.6014956831      -11.9723674558       53.3499888799  TIP3      4144            0.0000000000
     34685      4337  TIP3      OH2            15.4757192439       -7.8380446440       39.4751144528  TIP3      4145            0.0000000000
     34686      4337  TIP3      H1             15.4556214722       -8.0327886564       38.5093372105  TIP3      4145            0.0000000000
     34687      4337  TIP3      H2             16.3358138430       -7.3975414885       39.5282329150  TIP3      4145            0.0000000000
     34688      4338  TIP3      OH2            11.0714433463      -13.9188352046       39.9878837231  TIP3      4146            0.0000000000
     34689      4338  TIP3      H1             10.7571380841      -13.9815322272       40.9080798274  TIP3      4146            0.0000000000
     34690      4338  TIP3      H2             10.7638006816      -14.7963465286       39.6817998562  TIP3      4146            0.0000000000
     34691      4339  TIP3      OH2             6.8722003500      -11.2035642251       50.5718929295  TIP3      4147            0.0000000000
     34692      4339  TIP3      H1              6.1447805012      -11.2065320436       51.2157649242  TIP3      4147            0.0000000000
     34693      4339  TIP3      H2              6.8405061444      -10.2934866303       50.2001594402  TIP3      4147            0.0000000000
     34694      4340  TIP3      OH2             6.8661962002      -11.0793638857       45.4365094957  TIP3      4148            0.0000000000
     34695      4340  TIP3      H1              5.9308904726      -11.3076852307       45.3096201898  TIP3      4148            0.0000000000
     34696      4340  TIP3      H2              7.2296360037      -11.3736870189       44.5790306967  TIP3      4148            0.0000000000
     34697      4341  TIP3      OH2            12.3674136912      -10.5727865006       44.2158594472  TIP3      4149            0.0000000000
     34698      4341  TIP3      H1             11.9777307845       -9.7498515202       43.8516929658  TIP3      4149            0.0000000000
     34699      4341  TIP3      H2             13.0628985271      -10.7464395796       43.5631840475  TIP3      4149            0.0000000000
     34700      4342  TIP3      OH2            11.4014177585      -10.3434344125       55.6881991077  TIP3      4150            0.0000000000
     34701      4342  TIP3      H1             10.9055974282      -11.1576055279       55.9376397531  TIP3      4150            0.0000000000
     34702      4342  TIP3      H2             12.2710090602      -10.5037409524       56.0919105980  TIP3      4150            0.0000000000
     34703      4343  TIP3      OH2            13.3146376868      -11.1222777886       46.7752255797  TIP3      4151            0.0000000000
     34704      4343  TIP3      H1             13.1002207942      -10.5042971718       46.0816341930  TIP3      4151            0.0000000000
     34705      4343  TIP3      H2             13.5155863703      -11.9775477913       46.3734301683  TIP3      4151            0.0000000000
     34706      4344  TIP3      OH2             4.5103013056      -10.9510335934       52.2501712235  TIP3      4152            0.0000000000
     34707      4344  TIP3      H1              4.5941538270      -10.5431203081       53.1298839006  TIP3      4152            0.0000000000
     34708      4344  TIP3      H2              4.0706778861      -11.7895371001       52.4606403227  TIP3      4152            0.0000000000
     34709      4345  TIP3      OH2             7.8827877077      -13.5528371129       39.1051741479  TIP3      4153            0.0000000000
     34710      4345  TIP3      H1              7.4294640619      -13.9734026405       39.8643666907  TIP3      4153            0.0000000000
     34711      4345  TIP3      H2              7.1732946476      -13.1207707839       38.6143558418  TIP3      4153            0.0000000000
     34712      4346  TIP3      OH2             1.0856451003      -13.8241646872       46.3120640887  TIP3      4154            0.0000000000
     34713      4346  TIP3      H1              1.7891992602      -13.7650944348       47.0086904556  TIP3      4154            0.0000000000
     34714      4346  TIP3      H2              1.5280850649      -13.7854512291       45.4637399261  TIP3      4154            0.0000000000
     34715      4347  TIP3      OH2             2.4493261958      -13.1077730548       41.6267415166  TIP3      4155            0.0000000000
     34716      4347  TIP3      H1              2.9476248984      -12.5216241711       41.0214863277  TIP3      4155            0.0000000000
     34717      4347  TIP3      H2              1.7425425400      -12.4769193613       41.8848652243  TIP3      4155            0.0000000000
     34718      4348  TIP3      OH2            12.5004236180       -9.4220369692       51.5706868665  TIP3      4156            0.0000000000
     34719      4348  TIP3      H1             12.9961981999      -10.1204581742       51.0815167635  TIP3      4156            0.0000000000
     34720      4348  TIP3      H2             12.1700837851      -10.0097246525       52.2735541190  TIP3      4156            0.0000000000
     34721      4349  TIP3      OH2             9.3988372592      -13.5216288203       46.4491085649  TIP3      4157            0.0000000000
     34722      4349  TIP3      H1              8.4664023353      -13.5270014599       46.7429010039  TIP3      4157            0.0000000000
     34723      4349  TIP3      H2              9.8889167954      -13.6911852619       47.2696682102  TIP3      4157            0.0000000000
     34724      4350  TIP3      OH2             4.1749024824      -12.0310042656       45.3463258448  TIP3      4158            0.0000000000
     34725      4350  TIP3      H1              3.3495863953      -11.7888549859       44.8794398266  TIP3      4158            0.0000000000
     34726      4350  TIP3      H2              4.5298778599      -12.8006572439       44.8641952779  TIP3      4158            0.0000000000
     34727      4351  TIP3      OH2             7.8638974742      -11.9301001911       42.9396802426  TIP3      4159            0.0000000000
     34728      4351  TIP3      H1              8.8205387511      -11.8160060329       43.1077567724  TIP3      4159            0.0000000000
     34729      4351  TIP3      H2              7.6244459025      -11.2490253784       42.2822690209  TIP3      4159            0.0000000000
     34730      4352  TIP3      OH2            13.8042117672      -14.4888697244       49.6710573463  TIP3      4160            0.0000000000
     34731      4352  TIP3      H1             13.1827565762      -14.1816685485       50.3718293192  TIP3      4160            0.0000000000
     34732      4352  TIP3      H2             13.2610859574      -14.5152347757       48.8822450425  TIP3      4160            0.0000000000
     34733      4353  TIP3      OH2             6.5635422526      -10.7538975703       40.5233920118  TIP3      4161            0.0000000000
     34734      4353  TIP3      H1              6.0333113390      -11.1305790994       39.8003939589  TIP3      4161            0.0000000000
     34735      4353  TIP3      H2              7.3855860295      -10.5456905422       40.0527565199  TIP3      4161            0.0000000000
     34736      4354  TIP3      OH2            17.0134003783        1.3431950949       56.0067325174  TIP3      4162            0.0000000000
     34737      4354  TIP3      H1             17.2757155787        1.7312593752       55.1530309489  TIP3      4162            0.0000000000
     34738      4354  TIP3      H2             17.7343209328        1.6684954712       56.5672169356  TIP3      4162            0.0000000000
     34739      4355  TIP3      OH2             4.6867157849       -6.1821884477       55.5789487454  TIP3      4163            0.0000000000
     34740      4355  TIP3      H1              5.4067633991       -5.9366000366       56.1827760017  TIP3      4163            0.0000000000
     34741      4355  TIP3      H2              3.9140351570       -6.1027639768       56.1801865195  TIP3      4163            0.0000000000
     34742      4356  TIP3      OH2            10.6338627666      -10.7893201179       48.3042660745  TIP3      4164            0.0000000000
     34743      4356  TIP3      H1             11.2930056774      -11.2952952198       47.8150232711  TIP3      4164            0.0000000000
     34744      4356  TIP3      H2             10.5637243434      -11.3007898818       49.1255585307  TIP3      4164            0.0000000000
     34745      4357  TIP3      OH2             5.6508887535      -14.6471304655       44.7450603913  TIP3      4165            0.0000000000
     34746      4357  TIP3      H1              5.4496246067      -15.5956549442       44.7448020238  TIP3      4165            0.0000000000
     34747      4357  TIP3      H2              6.4797561742      -14.6691178765       44.2366516869  TIP3      4165            0.0000000000
     34748      4358  TIP3      OH2             9.2921515370      -12.4614981927       50.7670651476  TIP3      4166            0.0000000000
     34749      4358  TIP3      H1              8.4968139904      -11.9053560116       50.8530378860  TIP3      4166            0.0000000000
     34750      4358  TIP3      H2              9.8956857846      -12.1047773339       51.4531542530  TIP3      4166            0.0000000000
     34751      4359  TIP3      OH2             9.9152426370       -6.2209564894       42.4449664857  TIP3      4167            0.0000000000
     34752      4359  TIP3      H1              9.1150872832       -6.6881024050       42.1102655537  TIP3      4167            0.0000000000
     34753      4359  TIP3      H2              9.6872298297       -6.0967549793       43.3891608833  TIP3      4167            0.0000000000
     34754      4360  TIP3      OH2            17.0996804302       -7.0224296486       51.2503867080  TIP3      4168            0.0000000000
     34755      4360  TIP3      H1             17.6590834606       -6.5357903147       50.6169347991  TIP3      4168            0.0000000000
     34756      4360  TIP3      H2             16.2373418556       -6.9882266382       50.7882957338  TIP3      4168            0.0000000000
     34757      4361  TIP3      OH2            13.7379161507      -13.4095456010       40.6308985949  TIP3      4169            0.0000000000
     34758      4361  TIP3      H1             12.7897288340      -13.2526215815       40.4856766944  TIP3      4169            0.0000000000
     34759      4361  TIP3      H2             14.0829846250      -12.5559018795       40.9709513412  TIP3      4169            0.0000000000
     34760      4362  TIP3      OH2            11.4070454315       -5.9513331710       53.6914490760  TIP3      4170            0.0000000000
     34761      4362  TIP3      H1             11.0571483065       -6.3806621918       54.4789925457  TIP3      4170            0.0000000000
     34762      4362  TIP3      H2             11.1491203869       -5.0300851696       53.7972003700  TIP3      4170            0.0000000000
     34763      4363  TIP3      OH2            14.4808359236      -11.4891989628       42.2376291087  TIP3      4171            0.0000000000
     34764      4363  TIP3      H1             15.3591995561      -11.6191112544       42.6566229808  TIP3      4171            0.0000000000
     34765      4363  TIP3      H2             14.5849758286      -10.6628621833       41.7398444631  TIP3      4171            0.0000000000
     34766      4364  TIP3      OH2             5.0227393163       -6.8331987797       48.2406587867  TIP3      4172            0.0000000000
     34767      4364  TIP3      H1              5.7048164585       -6.9105049911       47.5456409113  TIP3      4172            0.0000000000
     34768      4364  TIP3      H2              5.0834269014       -7.6879423539       48.7014901245  TIP3      4172            0.0000000000
     34769      4365  TIP3      OH2            12.0078657260       -4.7534574371       41.4766439592  TIP3      4173            0.0000000000
     34770      4365  TIP3      H1             11.6641122123       -3.9083882703       41.8337533003  TIP3      4173            0.0000000000
     34771      4365  TIP3      H2             11.2762226069       -5.3703909521       41.6955421571  TIP3      4173            0.0000000000
     34772      4366  TIP3      OH2             2.0136634554       -8.4245875796       53.5074457059  TIP3      4174            0.0000000000
     34773      4366  TIP3      H1              2.1823106217       -8.8685366758       54.3607543781  TIP3      4174            0.0000000000
     34774      4366  TIP3      H2              1.3935142334       -9.0331876783       53.0672264439  TIP3      4174            0.0000000000
     34775      4367  TIP3      OH2             9.0244969280       -8.8617365201       55.6825384723  TIP3      4175            0.0000000000
     34776      4367  TIP3      H1              8.7066081672       -9.1737473081       54.8234326504  TIP3      4175            0.0000000000
     34777      4367  TIP3      H2              9.9473066008       -9.1906834729       55.6854785158  TIP3      4175            0.0000000000
     34778      4368  TIP3      OH2            13.7131215611       -3.5282657029       53.6399295847  TIP3      4176            0.0000000000
     34779      4368  TIP3      H1             12.7880702270       -3.3502553741       53.4045617170  TIP3      4176            0.0000000000
     34780      4368  TIP3      H2             13.6790332861       -3.2347699716       54.5702227172  TIP3      4176            0.0000000000
     34781      4369  TIP3      OH2            19.3832533515      -11.3556149674       42.0208488779  TIP3      4177            0.0000000000
     34782      4369  TIP3      H1             18.8115317241      -11.6365631393       41.2829141212  TIP3      4177            0.0000000000
     34783      4369  TIP3      H2             19.4584594573      -10.4057264098       41.7721791509  TIP3      4177            0.0000000000
     34784      4370  TIP3      OH2            19.3656677470       -5.4851570658       54.8316772788  TIP3      4178            0.0000000000
     34785      4370  TIP3      H1             18.4741625496       -5.2658879728       54.4662519462  TIP3      4178            0.0000000000
     34786      4370  TIP3      H2             19.9140546357       -5.5357041164       54.0200675685  TIP3      4178            0.0000000000
     34787      4371  TIP3      OH2            17.6333673408       -2.5207353813       42.4182384584  TIP3      4179            0.0000000000
     34788      4371  TIP3      H1             17.3007645046       -3.3586210284       42.7663574550  TIP3      4179            0.0000000000
     34789      4371  TIP3      H2             17.9893181563       -2.7393265414       41.5412913723  TIP3      4179            0.0000000000
     34790      4372  TIP3      OH2            14.8839959953       -7.6845815876       49.5003789819  TIP3      4180            0.0000000000
     34791      4372  TIP3      H1             13.9466900426       -7.9290331990       49.4309341970  TIP3      4180            0.0000000000
     34792      4372  TIP3      H2             15.3004711645       -8.4781080981       49.1175478145  TIP3      4180            0.0000000000
     34793      4373  TIP3      OH2             7.3997157977       -3.3691046782       45.6308757707  TIP3      4181            0.0000000000
     34794      4373  TIP3      H1              7.8967356137       -2.5627010816       45.4238577831  TIP3      4181            0.0000000000
     34795      4373  TIP3      H2              6.5197859583       -3.1407375217       45.3001057038  TIP3      4181            0.0000000000
     34796      4374  TIP3      OH2             3.1634081911       -8.5339926771       40.2014765591  TIP3      4182            0.0000000000
     34797      4374  TIP3      H1              3.7430158153       -7.8684884558       40.6108905111  TIP3      4182            0.0000000000
     34798      4374  TIP3      H2              2.2733335436       -8.2198220892       40.4495630136  TIP3      4182            0.0000000000
     34799      4375  TIP3      OH2             8.8047274943       -5.7037457958       45.1389224625  TIP3      4183            0.0000000000
     34800      4375  TIP3      H1              8.4943571484       -4.7851718962       45.2413203313  TIP3      4183            0.0000000000
     34801      4375  TIP3      H2              8.0948783831       -6.2002075714       45.5914289675  TIP3      4183            0.0000000000
     34802      4376  TIP3      OH2             9.2611086988       -1.5225330867       51.5615340379  TIP3      4184            0.0000000000
     34803      4376  TIP3      H1              9.7223442789       -0.7185172848       51.2732233405  TIP3      4184            0.0000000000
     34804      4376  TIP3      H2              9.8785571271       -1.8651785294       52.2335746643  TIP3      4184            0.0000000000
     34805      4377  TIP3      OH2             7.4877427096       -0.7176879022       44.6715489843  TIP3      4185            0.0000000000
     34806      4377  TIP3      H1              6.5246141637       -0.5744875774       44.8079597460  TIP3      4185            0.0000000000
     34807      4377  TIP3      H2              7.8538919645        0.1181443996       45.0173401914  TIP3      4185            0.0000000000
     34808      4378  TIP3      OH2            12.7954389954       -5.5025191651       51.1908984836  TIP3      4186            0.0000000000
     34809      4378  TIP3      H1             12.4565887363       -5.7125327016       52.0850943092  TIP3      4186            0.0000000000
     34810      4378  TIP3      H2             13.4111802625       -6.2356940536       51.0106655915  TIP3      4186            0.0000000000
     34811      4379  TIP3      OH2            15.1263931686       -4.4467901426       40.2653783844  TIP3      4187            0.0000000000
     34812      4379  TIP3      H1             15.4200957560       -4.9219568065       41.0688200098  TIP3      4187            0.0000000000
     34813      4379  TIP3      H2             14.1726955566       -4.6322607109       40.3459957884  TIP3      4187            0.0000000000
     34814      4380  TIP3      OH2            15.6049345840       -0.9434997625       53.6637502212  TIP3      4188            0.0000000000
     34815      4380  TIP3      H1             14.9118967227       -1.4371230081       53.1856090088  TIP3      4188            0.0000000000
     34816      4380  TIP3      H2             15.7866492226       -0.2430283010       53.0024675088  TIP3      4188            0.0000000000
     34817      4381  TIP3      OH2            19.5853245204       -0.0982159712       40.5200991669  TIP3      4189            0.0000000000
     34818      4381  TIP3      H1             20.2778107712        0.5621331321       40.3207832678  TIP3      4189            0.0000000000
     34819      4381  TIP3      H2             18.8719585515        0.5141857888       40.8070229827  TIP3      4189            0.0000000000
     34820      4382  TIP3      OH2             3.6605600544      -13.7186399980       53.0655284041  TIP3      4190            0.0000000000
     34821      4382  TIP3      H1              2.7590924563      -13.3516329936       53.0417564153  TIP3      4190            0.0000000000
     34822      4382  TIP3      H2              3.5480515649      -14.5640860899       53.5292966124  TIP3      4190            0.0000000000
     34823      4383  TIP3      OH2            15.8979148031       -5.8166623838       42.5091381927  TIP3      4191            0.0000000000
     34824      4383  TIP3      H1             15.6619580126       -6.6028186922       43.0467724636  TIP3      4191            0.0000000000
     34825      4383  TIP3      H2             16.8517938810       -5.7722948845       42.6860461231  TIP3      4191            0.0000000000
     34826      4384  TIP3      OH2             3.2754254017       -1.9067279012       51.4825914075  TIP3      4192            0.0000000000
     34827      4384  TIP3      H1              3.5809733945       -2.8266869899       51.4895388057  TIP3      4192            0.0000000000
     34828      4384  TIP3      H2              3.5385540609       -1.6148648335       52.3626170445  TIP3      4192            0.0000000000
     34829      4385  TIP3      OH2             9.2524534838       -3.3780500186       38.7620277021  TIP3      4193            0.0000000000
     34830      4385  TIP3      H1              9.3514937077       -4.1420538818       38.1713794849  TIP3      4193            0.0000000000
     34831      4385  TIP3      H2              8.8101139050       -3.8085158002       39.5260980459  TIP3      4193            0.0000000000
     34832      4386  TIP3      OH2             8.0233274805       -3.8505531940       41.2143003837  TIP3      4194            0.0000000000
     34833      4386  TIP3      H1              8.2944015834       -4.3655836616       41.9838476867  TIP3      4194            0.0000000000
     34834      4386  TIP3      H2              8.1160482889       -2.9246436558       41.5372618850  TIP3      4194            0.0000000000
     34835      4387  TIP3      OH2             4.5681832331       -6.6053481044       41.7005767384  TIP3      4195            0.0000000000
     34836      4387  TIP3      H1              3.8525777946       -6.2092821248       42.2372776989  TIP3      4195            0.0000000000
     34837      4387  TIP3      H2              5.0722202887       -5.8250890825       41.4056456398  TIP3      4195            0.0000000000
     34838      4388  TIP3      OH2            12.0395563261      -14.1905204108       52.1441463755  TIP3      4196            0.0000000000
     34839      4388  TIP3      H1             12.9150999526      -13.8885158711       52.5034160478  TIP3      4196            0.0000000000
     34840      4388  TIP3      H2             11.9898725918      -15.1353659475       52.3183680472  TIP3      4196            0.0000000000
     34841      4389  TIP3      OH2            13.1386114990      -14.3494876832       43.1046900827  TIP3      4197            0.0000000000
     34842      4389  TIP3      H1             13.3702705158      -13.8853495827       42.2751073853  TIP3      4197            0.0000000000
     34843      4389  TIP3      H2             13.7179861593      -13.9033822078       43.7375701960  TIP3      4197            0.0000000000
     34844      4390  TIP3      OH2            10.8293003307       -2.1883614389       41.9090033576  TIP3      4198            0.0000000000
     34845      4390  TIP3      H1             10.0113464848       -1.6557128521       41.9816063071  TIP3      4198            0.0000000000
     34846      4390  TIP3      H2             11.3681988978       -1.6376033876       41.3228593253  TIP3      4198            0.0000000000
     34847      4391  TIP3      OH2            10.3783131631      -12.5924949888       43.9340156663  TIP3      4199            0.0000000000
     34848      4391  TIP3      H1             11.1586399806      -12.0073893180       43.9881666062  TIP3      4199            0.0000000000
     34849      4391  TIP3      H2             10.1130229850      -12.7098962999       44.8659454327  TIP3      4199            0.0000000000
     34850      4392  TIP3      OH2            10.8645353316      -11.6135059049       53.1556989239  TIP3      4200            0.0000000000
     34851      4392  TIP3      H1             11.0391506890      -11.0018625674       53.8934388581  TIP3      4200            0.0000000000
     34852      4392  TIP3      H2             11.6018129544      -12.2479342531       53.1567461358  TIP3      4200            0.0000000000
     34853      4393  TIP3      OH2            11.2198369626      -15.5299944829       44.8112083259  TIP3      4201            0.0000000000
     34854      4393  TIP3      H1             10.9083250885      -14.8713062326       45.4560278954  TIP3      4201            0.0000000000
     34855      4393  TIP3      H2             11.9134432433      -14.9960229110       44.3555456109  TIP3      4201            0.0000000000
     34856      4394  TIP3      OH2             8.2316056587       -1.1536962070       41.9400354134  TIP3      4202            0.0000000000
     34857      4394  TIP3      H1              8.3228173100       -0.3390128785       41.3888153842  TIP3      4202            0.0000000000
     34858      4394  TIP3      H2              7.9568018027       -0.7892676889       42.8098354412  TIP3      4202            0.0000000000
     34859      4395  TIP3      OH2             6.8784524490      -14.4284982658       41.5118080756  TIP3      4203            0.0000000000
     34860      4395  TIP3      H1              6.8254882941      -13.5342363530       41.9020651907  TIP3      4203            0.0000000000
     34861      4395  TIP3      H2              7.7845822063      -14.6768294568       41.7812864941  TIP3      4203            0.0000000000
     34862      4396  TIP3      OH2            17.1515650712      -13.7417218998       53.9486508437  TIP3      4204            0.0000000000
     34863      4396  TIP3      H1             16.2210813064      -13.3891671667       53.8742795530  TIP3      4204            0.0000000000
     34864      4396  TIP3      H2             17.4067932632      -13.7127939762       53.0186313341  TIP3      4204            0.0000000000
     34865      4397  TIP3      OH2            15.7623530091       -9.9289979930       47.8857345566  TIP3      4205            0.0000000000
     34866      4397  TIP3      H1             14.8804397017      -10.3309721068       47.7608890686  TIP3      4205            0.0000000000
     34867      4397  TIP3      H2             16.1669071228      -10.5792827779       48.5014622942  TIP3      4205            0.0000000000
     34868      4398  TIP3      OH2             5.1087951341       -3.9913250445       40.5589984058  TIP3      4206            0.0000000000
     34869      4398  TIP3      H1              5.7759521436       -3.3639451078       40.8756672972  TIP3      4206            0.0000000000
     34870      4398  TIP3      H2              5.6326722119       -4.4556644606       39.8752766943  TIP3      4206            0.0000000000
     34871      4399  TIP3      OH2             3.4519406921      -11.3194722384       39.7051513060  TIP3      4207            0.0000000000
     34872      4399  TIP3      H1              3.4732899165      -10.3609349503       39.9141446359  TIP3      4207            0.0000000000
     34873      4399  TIP3      H2              2.5609369655      -11.4901425219       39.3942258367  TIP3      4207            0.0000000000
     34874      4400  TIP3      OH2            16.7788408323       -0.6524687900       49.6397406574  TIP3      4208            0.0000000000
     34875      4400  TIP3      H1             16.6900372687        0.0281137652       48.9440161222  TIP3      4208            0.0000000000
     34876      4400  TIP3      H2             17.7426603030       -0.6009201184       49.8132321278  TIP3      4208            0.0000000000
     34877      4401  TIP3      OH2             4.2310474674      -16.5134230552       48.4323586397  TIP3      4209            0.0000000000
     34878      4401  TIP3      H1              4.1006829019      -16.5503643966       47.4724948579  TIP3      4209            0.0000000000
     34879      4401  TIP3      H2              3.8738340227      -17.3861973379       48.7108801079  TIP3      4209            0.0000000000
     34880      4402  TIP3      OH2             3.2268688784       -2.6109089130       44.5947271542  TIP3      4210            0.0000000000
     34881      4402  TIP3      H1              2.3739629071       -2.1639600458       44.5463979975  TIP3      4210            0.0000000000
     34882      4402  TIP3      H2              3.7021969649       -2.1458550630       43.8932909055  TIP3      4210            0.0000000000
     34883      4403  TIP3      OH2             2.4282183010        0.0409225316       55.8735573349  TIP3      4211            0.0000000000
     34884      4403  TIP3      H1              3.0345786909       -0.1596546946       56.6139381637  TIP3      4211            0.0000000000
     34885      4403  TIP3      H2              2.0297578520       -0.8287288178       55.6934676692  TIP3      4211            0.0000000000
     34886      4404  TIP3      OH2             7.1123024269       -1.0399249365       57.4821354283  TIP3      4212            0.0000000000
     34887      4404  TIP3      H1              7.8688114701       -1.5405176517       57.8160093300  TIP3      4212            0.0000000000
     34888      4404  TIP3      H2              7.0855451593       -1.3199292367       56.5466670349  TIP3      4212            0.0000000000
     34889      4405  TIP3      OH2            11.2464108621       -1.5272356294       38.8853959923  TIP3      4213            0.0000000000
     34890      4405  TIP3      H1             10.5535819381       -2.1864413184       39.1130419459  TIP3      4213            0.0000000000
     34891      4405  TIP3      H2             11.9645092564       -2.1259269605       38.6375271413  TIP3      4213            0.0000000000
     34892      4406  TIP3      OH2            13.6143566059       -2.6566016179       56.2331548959  TIP3      4214            0.0000000000
     34893      4406  TIP3      H1             13.2997377721       -3.5441928646       56.5073927395  TIP3      4214            0.0000000000
     34894      4406  TIP3      H2             14.3835337654       -2.5381140298       56.8250603222  TIP3      4214            0.0000000000
     34895      4407  TIP3      OH2            15.8042584747       -1.7834751243       39.0717999918  TIP3      4215            0.0000000000
     34896      4407  TIP3      H1             16.1003631625       -2.5593711291       39.5750472355  TIP3      4215            0.0000000000
     34897      4407  TIP3      H2             16.5668817482       -1.5580743905       38.5197205819  TIP3      4215            0.0000000000
     34898      4408  TIP3      OH2             2.3405954870       -6.1876832583       56.8715212130  TIP3      4216            0.0000000000
     34899      4408  TIP3      H1              2.5067795910       -7.0992771722       56.5701063800  TIP3      4216            0.0000000000
     34900      4408  TIP3      H2              1.6007413613       -5.9297474381       56.2971499909  TIP3      4216            0.0000000000
     34901      4409  TIP3      OH2             6.6921747885       -5.8423296819       38.8901821308  TIP3      4217            0.0000000000
     34902      4409  TIP3      H1              6.8314286701       -6.6034616049       39.4741348251  TIP3      4217            0.0000000000
     34903      4409  TIP3      H2              7.4401282812       -5.9614573429       38.2723117186  TIP3      4217            0.0000000000
     34904      4410  TIP3      OH2             9.0582746563       -6.1986685785       56.2562010146  TIP3      4218            0.0000000000
     34905      4410  TIP3      H1              8.7229181458       -5.8864722482       55.3928353037  TIP3      4218            0.0000000000
     34906      4410  TIP3      H2              9.1321356977       -7.1764364895       56.1485009632  TIP3      4218            0.0000000000
     34907      4411  TIP3      OH2            12.1221830286       -4.7334563242       38.6679389524  TIP3      4219            0.0000000000
     34908      4411  TIP3      H1             11.8517509993       -4.6522813638       39.5961412779  TIP3      4219            0.0000000000
     34909      4411  TIP3      H2             11.9326475530       -5.6910193809       38.5233422773  TIP3      4219            0.0000000000
     34910      4412  TIP3      OH2            14.7487250213       -6.3472532877       53.6478979045  TIP3      4220            0.0000000000
     34911      4412  TIP3      H1             15.5381492036       -5.7632733942       53.5876486783  TIP3      4220            0.0000000000
     34912      4412  TIP3      H2             14.0538207390       -5.6736681505       53.6842796878  TIP3      4220            0.0000000000
     34913      4413  TIP3      OH2             3.2635296662       -8.9627351516       56.2512298846  TIP3      4221            0.0000000000
     34914      4413  TIP3      H1              3.6801347703       -9.8255664847       56.1610474107  TIP3      4221            0.0000000000
     34915      4413  TIP3      H2              3.0291041368       -8.9565362121       57.1932126531  TIP3      4221            0.0000000000
     34916      4414  TIP3      OH2             7.8942623257       -7.8234539644       41.3180882822  TIP3      4222            0.0000000000
     34917      4414  TIP3      H1              7.3878834744       -8.3626116101       41.9427155048  TIP3      4222            0.0000000000
     34918      4414  TIP3      H2              8.1932285783       -8.4974103327       40.6643629716  TIP3      4222            0.0000000000
     34919      4415  TIP3      OH2             7.1575029061      -10.0179904701       53.6054630216  TIP3      4223            0.0000000000
     34920      4415  TIP3      H1              6.5694015075       -9.2923598725       53.8692471004  TIP3      4223            0.0000000000
     34921      4415  TIP3      H2              7.5577604766       -9.6483210601       52.7996130010  TIP3      4223            0.0000000000
     34922      4416  TIP3      OH2             8.9704090295       -9.6021014049       39.5179867147  TIP3      4224            0.0000000000
     34923      4416  TIP3      H1              8.8188024382       -9.6919524180       38.5548850988  TIP3      4224            0.0000000000
     34924      4416  TIP3      H2              9.9465770947       -9.5496129179       39.5839361430  TIP3      4224            0.0000000000
     34925      4417  TIP3      OH2            12.2366140733       -7.4481084937       56.9419644805  TIP3      4225            0.0000000000
     34926      4417  TIP3      H1             13.1943910751       -7.4573855308       56.8223208164  TIP3      4225            0.0000000000
     34927      4417  TIP3      H2             12.0648045591       -8.2187432789       57.5074154594  TIP3      4225            0.0000000000
     34928      4418  TIP3      OH2            18.2996291447       -7.2829406552       38.9281540422  TIP3      4226            0.0000000000
     34929      4418  TIP3      H1             18.1084988448       -7.6627857963       38.0574493344  TIP3      4226            0.0000000000
     34930      4418  TIP3      H2             18.3881401192       -6.3199659118       38.7422403010  TIP3      4226            0.0000000000
     34931      4419  TIP3      OH2             7.5745491463      -12.6339849888       54.6615835419  TIP3      4227            0.0000000000
     34932      4419  TIP3      H1              7.6874957440      -13.3342868454       53.9952061610  TIP3      4227            0.0000000000
     34933      4419  TIP3      H2              7.5247210301      -11.8237474223       54.1152549128  TIP3      4227            0.0000000000
     34934      4420  TIP3      OH2             7.9695839874      -14.2948715257       52.2171856851  TIP3      4228            0.0000000000
     34935      4420  TIP3      H1              8.4883278536      -13.8049208146       51.5308456069  TIP3      4228            0.0000000000
     34936      4420  TIP3      H2              7.0743324232      -14.3225177832       51.8044325159  TIP3      4228            0.0000000000
     34937      4421  TIP3      OH2             9.4861585369       -8.7619845142       52.4604861204  TIP3      4229            0.0000000000
     34938      4421  TIP3      H1             10.2599224582       -8.9385440304       51.9051455672  TIP3      4229            0.0000000000
     34939      4421  TIP3      H2              9.1334458335       -7.9198288599       52.1242827333  TIP3      4229            0.0000000000
     34940      4422  TIP3      OH2            13.9036390715      -11.0121917907       57.4478803976  TIP3      4230            0.0000000000
     34941      4422  TIP3      H1             14.1550067793      -11.9377732439       57.3070995701  TIP3      4230            0.0000000000
     34942      4422  TIP3      H2             14.7678469443      -10.5666565593       57.4518933819  TIP3      4230            0.0000000000
     34943      4423  TIP3      OH2            15.2537599408       -8.1936029880       55.6181722376  TIP3      4231            0.0000000000
     34944      4423  TIP3      H1             14.9916423673       -7.5160609617       54.9585487806  TIP3      4231            0.0000000000
     34945      4423  TIP3      H2             16.2003347662       -8.2708952576       55.3854840431  TIP3      4231            0.0000000000
     34946      4424  TIP3      OH2             6.0143330015      -11.3886296651       56.5925784740  TIP3      4232            0.0000000000
     34947      4424  TIP3      H1              5.2617069254      -11.9867394454       56.4271507219  TIP3      4232            0.0000000000
     34948      4424  TIP3      H2              6.6769368523      -11.7388279390       55.9673320408  TIP3      4232            0.0000000000
     34949      4425  TIP3      OH2             8.6940887319      -16.8520891131       52.6674980823  TIP3      4233            0.0000000000
     34950      4425  TIP3      H1              8.6059499383      -15.8772910993       52.4979537797  TIP3      4233            0.0000000000
     34951      4425  TIP3      H2              7.9921971094      -17.1771902544       52.0687513344  TIP3      4233            0.0000000000
     34952      4426  TIP3      OH2            10.0110212233      -12.4958355308       56.2478400720  TIP3      4234            0.0000000000
     34953      4426  TIP3      H1              9.6967300194      -12.7377822590       57.1417693704  TIP3      4234            0.0000000000
     34954      4426  TIP3      H2              9.2309087334      -12.7035090077       55.7020115625  TIP3      4234            0.0000000000
     34955      4427  TIP3      OH2            12.7386336674      -13.3402348047       55.3262914351  TIP3      4235            0.0000000000
     34956      4427  TIP3      H1             11.7750777816      -13.2985076825       55.4019070074  TIP3      4235            0.0000000000
     34957      4427  TIP3      H2             13.0131406598      -13.9891094347       55.9940786922  TIP3      4235            0.0000000000
     34958      4428  TIP3      OH2            14.3561618921      -14.7280755247       57.2363861978  TIP3      4236            0.0000000000
     34959      4428  TIP3      H1             14.2778243473      -15.7035544614       57.2561589186  TIP3      4236            0.0000000000
     34960      4428  TIP3      H2             14.0855431726      -14.4347202740       58.1271749217  TIP3      4236            0.0000000000
     34961      4429  TIP3      OH2             4.0897683329      -13.4600068427       56.3225408720  TIP3      4237            0.0000000000
     34962      4429  TIP3      H1              4.3430432270      -14.2107719596       55.7567320434  TIP3      4237            0.0000000000
     34963      4429  TIP3      H2              4.0363883553      -13.8900752148       57.2102617344  TIP3      4237            0.0000000000
     34964      4430  TIP3      OH2             9.3192130958      -17.1099825832       55.2508954598  TIP3      4238            0.0000000000
     34965      4430  TIP3      H1              9.8777500114      -17.9124726476       55.3024029475  TIP3      4238            0.0000000000
     34966      4430  TIP3      H2              9.0251341005      -17.0079837100       54.3203079888  TIP3      4238            0.0000000000
     34967      4431  TIP3      OH2             9.3045044144      -15.8038551260       57.4907432748  TIP3      4239            0.0000000000
     34968      4431  TIP3      H1              9.2318956428      -16.2317962891       56.6111350236  TIP3      4239            0.0000000000
     34969      4431  TIP3      H2              8.7364495262      -15.0157216499       57.3775192417  TIP3      4239            0.0000000000
     34970      4432  TIP3      OH2             8.8012832377        1.1008196412       40.5969922741  TIP3      4240            0.0000000000
     34971      4432  TIP3      H1              9.7681024465        1.1844372296       40.6640859704  TIP3      4240            0.0000000000
     34972      4432  TIP3      H2              8.6545568396        1.7014543548       39.8566917442  TIP3      4240            0.0000000000
     34973      4433  TIP3      OH2             2.3538378131       -4.3282815326       40.0649883462  TIP3      4241            0.0000000000
     34974      4433  TIP3      H1              3.3209023870       -4.2335383781       40.2450819653  TIP3      4241            0.0000000000
     34975      4433  TIP3      H2              2.4044810155       -4.9714123412       39.3182326800  TIP3      4241            0.0000000000
     34976      4434  TIP3      OH2             1.1365733281        1.0543465836       45.0250309275  TIP3      4242            0.0000000000
     34977      4434  TIP3      H1              0.4160420142        0.5665819340       44.5665479161  TIP3      4242            0.0000000000
     34978      4434  TIP3      H2              1.4169828391        0.4039021776       45.6951465989  TIP3      4242            0.0000000000
     34979      4435  TIP3      OH2             1.9584830265       -0.8053763114       46.9057490681  TIP3      4243            0.0000000000
     34980      4435  TIP3      H1              1.6073956244       -1.6845830576       47.1052567476  TIP3      4243            0.0000000000
     34981      4435  TIP3      H2              2.1862176494       -0.4777020951       47.7912914267  TIP3      4243            0.0000000000
     34982      4436  TIP3      OH2            19.5032589258       -0.0120080201       49.8355908505  TIP3      4244            0.0000000000
     34983      4436  TIP3      H1             19.5279982890        0.1514073989       50.7945538576  TIP3      4244            0.0000000000
     34984      4436  TIP3      H2             20.2023932607        0.5765622426       49.5336203563  TIP3      4244            0.0000000000
     34985      4437  TIP3      OH2            19.0722203425       -0.4141808763       52.7820805942  TIP3      4245            0.0000000000
     34986      4437  TIP3      H1             18.6004694898       -1.1841875225       52.4005719753  TIP3      4245            0.0000000000
     34987      4437  TIP3      H2             19.5579791676       -0.8611777015       53.4951059433  TIP3      4245            0.0000000000
     34988      4438  TIP3      OH2            17.5165814732       -4.6934736261       57.4559781898  TIP3      4246            0.0000000000
     34989      4438  TIP3      H1             16.6106709652       -4.7212411959       57.8183659599  TIP3      4246            0.0000000000
     34990      4438  TIP3      H2             17.8883195737       -3.8883606760       57.8653599759  TIP3      4246            0.0000000000
     34991      4439  TIP3      OH2            18.8308992579       -6.3627987635       42.8826832470  TIP3      4247            0.0000000000
     34992      4439  TIP3      H1             19.6988071865       -5.9735475095       43.0689962381  TIP3      4247            0.0000000000
     34993      4439  TIP3      H2             18.8151285987       -7.0821667645       43.5514480335  TIP3      4247            0.0000000000
     34994      4440  TIP3      OH2            19.1937451430       -8.2881794854       44.7735820103  TIP3      4248            0.0000000000
     34995      4440  TIP3      H1             18.4412364286       -8.7851509940       45.1646359345  TIP3      4248            0.0000000000
     34996      4440  TIP3      H2             19.7896268026       -8.1558853183       45.5363573046  TIP3      4248            0.0000000000
     34997      4441  TIP3      OH2            18.9489523100       -5.5932954922       49.7583132826  TIP3      4249            0.0000000000
     34998      4441  TIP3      H1             19.7615879310       -5.9702552650       49.3757625857  TIP3      4249            0.0000000000
     34999      4441  TIP3      H2             19.0943426108       -4.6395882252       49.5861004611  TIP3      4249            0.0000000000
     35000      4442  TIP3      OH2            17.5081122861       -2.6873144352       52.0247260595  TIP3      4250            0.0000000000
     35001      4442  TIP3      H1             16.8178283427       -2.3452741831       52.6131957800  TIP3      4250            0.0000000000
     35002      4442  TIP3      H2             16.9600845635       -3.0893940751       51.3163915708  TIP3      4250            0.0000000000
     35003      4443  TIP3      OH2            19.4919576720       -8.4640191794       41.1627296923  TIP3      4251            0.0000000000
     35004      4443  TIP3      H1             18.9256010032       -8.1228497445       40.4387959768  TIP3      4251            0.0000000000
     35005      4443  TIP3      H2             19.3924659355       -7.7505458954       41.8203034988  TIP3      4251            0.0000000000
     35006      4444  TIP3      OH2            17.8659847286      -11.2368233901       39.6750514600  TIP3      4252            0.0000000000
     35007      4444  TIP3      H1             17.9429746166      -10.5713862228       38.9813646768  TIP3      4252            0.0000000000
     35008      4444  TIP3      H2             17.6806805675      -12.0591136473       39.1808497469  TIP3      4252            0.0000000000
     35009      4445  TIP3      OH2            17.0142970815       -9.8179018684       45.3428170599  TIP3      4253            0.0000000000
     35010      4445  TIP3      H1             16.8626144143      -10.7706608285       45.3046007197  TIP3      4253            0.0000000000
     35011      4445  TIP3      H2             16.6784876254       -9.6052282909       46.2340627185  TIP3      4253            0.0000000000
     35012      4446  TIP3      OH2             2.0153554784       -7.7293322364       49.4006092945  TIP3      4254            0.0000000000
     35013      4446  TIP3      H1              2.1942841639       -7.8099247826       48.4384383691  TIP3      4254            0.0000000000
     35014      4446  TIP3      H2              2.9105247621       -7.9060278393       49.7540429299  TIP3      4254            0.0000000000
     35015      4447  TIP3      OH2            17.8684305427       -7.8560841954       55.0314762903  TIP3      4255            0.0000000000
     35016      4447  TIP3      H1             18.4817452001       -8.6097470152       55.1642081871  TIP3      4255            0.0000000000
     35017      4447  TIP3      H2             18.4697676301       -7.0808740869       55.0321214917  TIP3      4255            0.0000000000
     35018      4448  TIP3      OH2            19.3814097468       -9.9663981004       55.6813523002  TIP3      4256            0.0000000000
     35019      4448  TIP3      H1             18.4946713542      -10.3637587095       55.5277355566  TIP3      4256            0.0000000000
     35020      4448  TIP3      H2             19.9458866893      -10.7525446990       55.6053331131  TIP3      4256            0.0000000000
     35021      4449  TIP3      OH2            17.1163804615      -13.7603530522       38.8113164883  TIP3      4257            0.0000000000
     35022      4449  TIP3      H1             17.7036305997      -14.2009775878       39.4544518518  TIP3      4257            0.0000000000
     35023      4449  TIP3      H2             16.2510420595      -14.1786128453       38.9637979841  TIP3      4257            0.0000000000
     35024      4450  TIP3      OH2            16.6516682264      -12.2327289739       43.7636502918  TIP3      4258            0.0000000000
     35025      4450  TIP3      H1             16.9704903954      -13.1536634831       43.9192790694  TIP3      4258            0.0000000000
     35026      4450  TIP3      H2             17.4748774146      -11.8260958583       43.4561085954  TIP3      4258            0.0000000000
     35027      4451  TIP3      OH2            17.3308261377      -11.6947391574       49.2326074345  TIP3      4259            0.0000000000
     35028      4451  TIP3      H1             18.2820582942      -11.4461618664       49.2399864966  TIP3      4259            0.0000000000
     35029      4451  TIP3      H2             17.1031455793      -11.5505686601       50.1661323303  TIP3      4259            0.0000000000
     35030      4452  TIP3      OH2            17.3917082683      -10.9738386490       52.0440389662  TIP3      4260            0.0000000000
     35031      4452  TIP3      H1             16.4824108797      -10.7035736462       52.3227783590  TIP3      4260            0.0000000000
     35032      4452  TIP3      H2             17.7920764545      -10.1067163656       51.8012390368  TIP3      4260            0.0000000000
     35033      4453  TIP3      OH2             1.6329888488      -12.4234499400       55.5573341660  TIP3      4261            0.0000000000
     35034      4453  TIP3      H1              2.5704732914      -12.6433830492       55.7460876343  TIP3      4261            0.0000000000
     35035      4453  TIP3      H2              1.1605569313      -13.2420360640       55.8303290867  TIP3      4261            0.0000000000
     35036      4454  TIP3      OH2            19.6579142123      -16.9013254807       57.3625556512  TIP3      4262            0.0000000000
     35037      4454  TIP3      H1             20.0097315825      -17.5628222316       56.7419999641  TIP3      4262            0.0000000000
     35038      4454  TIP3      H2             19.7594740429      -16.0869926381       56.8305449412  TIP3      4262            0.0000000000
     35039      4455  TIP3      OH2            17.3548876701      -14.9430746192       43.8447931582  TIP3      4263            0.0000000000
     35040      4455  TIP3      H1             17.5673501167      -15.3797631338       44.6981499051  TIP3      4263            0.0000000000
     35041      4455  TIP3      H2             16.7538378953      -15.5828593956       43.4085237435  TIP3      4263            0.0000000000
     35042      4456  TIP3      OH2             2.8573068986      -14.1504149380       48.3343863745  TIP3      4264            0.0000000000
     35043      4456  TIP3      H1              3.2937064223      -14.9584507210       48.6871160535  TIP3      4264            0.0000000000
     35044      4456  TIP3      H2              3.3611412392      -13.4504627254       48.7910319872  TIP3      4264            0.0000000000
     35045      4457  TIP3      OH2             1.1155131309      -11.1337320336       49.4458778687  TIP3      4265            0.0000000000
     35046      4457  TIP3      H1              1.6853336918      -11.3693905964       48.6868963552  TIP3      4265            0.0000000000
     35047      4457  TIP3      H2              1.5813230567      -10.3304963775       49.7159095627  TIP3      4265            0.0000000000
     35048      4458  TIP3      OH2            19.1753452682      -14.8004460526       55.7148049757  TIP3      4266            0.0000000000
     35049      4458  TIP3      H1             18.2397682499      -14.5281561334       55.6500112914  TIP3      4266            0.0000000000
     35050      4458  TIP3      H2             19.2152111886      -15.3567386696       54.9219614970  TIP3      4266            0.0000000000
     35051      4459  TIP3      OH2            19.1679637739      -14.9090474594       40.3984044913  TIP3      4267            0.0000000000
     35052      4459  TIP3      H1             19.5801371791      -15.6221572887       39.8609528859  TIP3      4267            0.0000000000
     35053      4459  TIP3      H2             19.8746090566      -14.2485572729       40.4493958572  TIP3      4267            0.0000000000
     35054      4460  TIP3      OH2             1.4321243036      -14.8805998766       43.3836865639  TIP3      4268            0.0000000000
     35055      4460  TIP3      H1              0.4865076845      -14.6664685250       43.2382828038  TIP3      4268            0.0000000000
     35056      4460  TIP3      H2              1.8580510493      -14.3500983335       42.6713650852  TIP3      4268            0.0000000000
     35057      4461  TIP3      OH2            16.2202355347        0.0752442662       45.4664127806  TIP3      4269            0.0000000000
     35058      4461  TIP3      H1             16.9045113708       -0.2284730948       44.8428261107  TIP3      4269            0.0000000000
     35059      4461  TIP3      H2             16.7368346710        0.5722736093       46.1174420530  TIP3      4269            0.0000000000
     35060      4462  TIP3      OH2             1.4258433752      -16.2182271711       51.8002646093  TIP3      4270            0.0000000000
     35061      4462  TIP3      H1              0.7786061715      -16.4237078172       52.4939421075  TIP3      4270            0.0000000000
     35062      4462  TIP3      H2              0.9599543338      -15.5446405245       51.2583088218  TIP3      4270            0.0000000000
     35063      4463  TIP3      OH2             3.6727380536       -3.0323980272       55.9710920233  TIP3      4271            0.0000000000
     35064      4463  TIP3      H1              2.8355532305       -2.8054208760       55.5322133162  TIP3      4271            0.0000000000
     35065      4463  TIP3      H2              3.4030306865       -3.1002518233       56.8902206025  TIP3      4271            0.0000000000
     35066      4464  TIP3      OH2             6.5714323581       -2.0158062610       52.2510897838  TIP3      4272            0.0000000000
     35067      4464  TIP3      H1              6.2430941983       -1.1478132626       51.9769794026  TIP3      4272            0.0000000000
     35068      4464  TIP3      H2              7.4979109153       -1.9332294561       51.9448453736  TIP3      4272            0.0000000000
     35069      4465  TIP3      OH2            10.8919709373       -0.5938987925       55.1517104843  TIP3      4273            0.0000000000
     35070      4465  TIP3      H1             11.0301880108       -0.9478551912       56.0610114521  TIP3      4273            0.0000000000
     35071      4465  TIP3      H2             11.7942045020       -0.2868412388       54.9085866508  TIP3      4273            0.0000000000
     35072      4466  TIP3      OH2            13.1775797841        0.6729361252       54.4651224383  TIP3      4274            0.0000000000
     35073      4466  TIP3      H1             13.9103419680        0.0907361227       54.2266553650  TIP3      4274            0.0000000000
     35074      4466  TIP3      H2             13.5541219683        1.1120926225       55.2581715047  TIP3      4274            0.0000000000
     35075      4467  TIP3      OH2            18.1954976671      -16.7168282910       53.5712515148  TIP3      4275            0.0000000000
     35076      4467  TIP3      H1             17.3701277071      -16.4025227398       53.1573887116  TIP3      4275            0.0000000000
     35077      4467  TIP3      H2             18.3630968983      -17.5366544482       53.0495503442  TIP3      4275            0.0000000000
     35078      4468  TIP3      OH2             3.9935592328        1.2239959871       52.2432992378  TIP3      4276            0.0000000000
     35079      4468  TIP3      H1              3.2612413762        1.7198638995       51.8464496397  TIP3      4276            0.0000000000
     35080      4468  TIP3      H2              3.6837911928        1.0284287196       53.1393180229  TIP3      4276            0.0000000000
     35081      4469  TIP3      OH2             6.4634219016        0.7932579213       51.3176766870  TIP3      4277            0.0000000000
     35082      4469  TIP3      H1              5.5714755618        0.9387453198       51.7136633874  TIP3      4277            0.0000000000
     35083      4469  TIP3      H2              6.4091995408        1.3851574176       50.5439405591  TIP3      4277            0.0000000000
     35084      4470  TIP3      OH2            11.1723542752        0.7119275878       50.4849296676  TIP3      4278            0.0000000000
     35085      4470  TIP3      H1             10.7085633245        1.2670927567       49.8400540829  TIP3      4278            0.0000000000
     35086      4470  TIP3      H2             11.3033101613        1.3434548343       51.2260425500  TIP3      4278            0.0000000000
     35087      4471  TIP3      OH2            13.4555862173       -0.4876002559       51.5195167900  TIP3      4279            0.0000000000
     35088      4471  TIP3      H1             12.6048173082       -0.2055676524       51.1461286602  TIP3      4279            0.0000000000
     35089      4471  TIP3      H2             13.9451149416        0.3456244943       51.4236385409  TIP3      4279            0.0000000000
     35090      4472  TIP3      OH2            16.0408785795        1.0864141085       51.7366640088  TIP3      4280            0.0000000000
     35091      4472  TIP3      H1             15.9865711825        2.0477851946       51.5104305262  TIP3      4280            0.0000000000
     35092      4472  TIP3      H2             16.2569142685        0.7144770899       50.8589343376  TIP3      4280            0.0000000000
     35093      4473  TIP3      OH2             3.4532909443       -0.1212286276       49.1907767044  TIP3      4281            0.0000000000
     35094      4473  TIP3      H1              3.3679746782       -0.5885377141       50.0504686081  TIP3      4281            0.0000000000
     35095      4473  TIP3      H2              4.2651464965       -0.5093366272       48.8001456989  TIP3      4281            0.0000000000
     35096      4474  TIP3      OH2             5.5312286773       -1.4210663562       47.8405224981  TIP3      4282            0.0000000000
     35097      4474  TIP3      H1              5.3670678038       -2.3547941891       48.0737223468  TIP3      4282            0.0000000000
     35098      4474  TIP3      H2              6.3869903838       -1.2662572744       48.2930642857  TIP3      4282            0.0000000000
     35099      4475  TIP3      OH2             8.1384699049       -0.9364151466       48.7171724976  TIP3      4283            0.0000000000
     35100      4475  TIP3      H1              8.2899831299       -1.8611822560       48.4556516130  TIP3      4283            0.0000000000
     35101      4475  TIP3      H2              8.1801176377       -0.9930253540       49.6838381232  TIP3      4283            0.0000000000
     35102      4476  TIP3      OH2            11.5602661640      -15.2963161347       47.8211884244  TIP3      4284            0.0000000000
     35103      4476  TIP3      H1             10.9136750766      -15.9387185861       48.1485600564  TIP3      4284            0.0000000000
     35104      4476  TIP3      H2             12.1532555336      -15.8276688848       47.2809565551  TIP3      4284            0.0000000000
     35105      4477  TIP3      OH2            16.7246088717      -17.2413670713       47.9148948418  TIP3      4285            0.0000000000
     35106      4477  TIP3      H1             17.3356133420      -16.6453697688       47.4115573279  TIP3      4285            0.0000000000
     35107      4477  TIP3      H2             15.8420062626      -16.8769896928       47.6907886893  TIP3      4285            0.0000000000
     35108      4478  TIP3      OH2            18.3996521471      -15.9936896255       46.1880501722  TIP3      4286            0.0000000000
     35109      4478  TIP3      H1             19.0873755685      -16.5670727945       45.7774720296  TIP3      4286            0.0000000000
     35110      4478  TIP3      H2             18.9019837647      -15.1541772687       46.3016658265  TIP3      4286            0.0000000000
     35111      4479  TIP3      OH2             3.9556928219      -16.6930589000       45.6894140633  TIP3      4287            0.0000000000
     35112      4479  TIP3      H1              3.2414718415      -17.0389893853       45.1318277155  TIP3      4287            0.0000000000
     35113      4479  TIP3      H2              4.4856039870      -17.5206067763       45.6776889907  TIP3      4287            0.0000000000
     35114      4480  TIP3      OH2             2.7624620084      -16.9076696531       41.4788143071  TIP3      4288            0.0000000000
     35115      4480  TIP3      H1              3.2156892559      -16.2765886815       40.8819664343  TIP3      4288            0.0000000000
     35116      4480  TIP3      H2              2.1299807932      -16.3255994257       41.9198073842  TIP3      4288            0.0000000000
     35117      4481  TIP3      OH2             8.4263606414      -16.7352814723       45.4925097360  TIP3      4289            0.0000000000
     35118      4481  TIP3      H1              9.3281135890      -16.3781502852       45.4193250963  TIP3      4289            0.0000000000
     35119      4481  TIP3      H2              8.3901587506      -16.9540557611       46.4240587432  TIP3      4289            0.0000000000
     35120      4482  TIP3      OH2            14.1388461305      -16.7051940699       47.1127772494  TIP3      4290            0.0000000000
     35121      4482  TIP3      H1             14.0964623062      -16.6089995982       46.1532921589  TIP3      4290            0.0000000000
     35122      4482  TIP3      H2             13.7624868585      -17.6076122030       47.2523514671  TIP3      4290            0.0000000000
     35123      4483  TIP3      OH2            15.4115216157      -16.6878902251       42.7974326798  TIP3      4291            0.0000000000
     35124      4483  TIP3      H1             14.6626919936      -16.0936003397       42.6398553345  TIP3      4291            0.0000000000
     35125      4483  TIP3      H2             14.9715246818      -17.5396856003       43.0318610080  TIP3      4291            0.0000000000
     35126      4484  TIP3      OH2             2.6408426874       -0.9601219945       42.4547499537  TIP3      4292            0.0000000000
     35127      4484  TIP3      H1              1.9839046000       -0.9741566490       41.7346290102  TIP3      4292            0.0000000000
     35128      4484  TIP3      H2              2.6383563494       -0.0050592038       42.6261375223  TIP3      4292            0.0000000000
     35129      4485  TIP3      OH2             4.5424735268      -14.9765451485       39.9699912305  TIP3      4293            0.0000000000
     35130      4485  TIP3      H1              5.0719704292      -15.5766765626       39.4166199644  TIP3      4293            0.0000000000
     35131      4485  TIP3      H2              5.2365875940      -14.6335128735       40.5613677559  TIP3      4293            0.0000000000
     35132      4486  TIP3      OH2             9.5683930572      -14.7183866642       42.3438532686  TIP3      4294            0.0000000000
     35133      4486  TIP3      H1              9.8265309044      -15.2994251556       43.0778054769  TIP3      4294            0.0000000000
     35134      4486  TIP3      H2              9.6513478847      -13.8529365686       42.7998633383  TIP3      4294            0.0000000000
     35135      4487  TIP3      OH2            11.5156502724        0.3527193175       40.7872103335  TIP3      4295            0.0000000000
     35136      4487  TIP3      H1             12.4330763826        0.5785991639       40.5654456375  TIP3      4295            0.0000000000
     35137      4487  TIP3      H2             11.2949277410       -0.1679201303       39.9864510751  TIP3      4295            0.0000000000
     35138      4488  TIP3      OH2            18.2080589903       -0.1477158641       43.5076707645  TIP3      4296            0.0000000000
     35139      4488  TIP3      H1             18.0192350875       -0.9301999045       42.9356840679  TIP3      4296            0.0000000000
     35140      4488  TIP3      H2             18.1426549373        0.5872461997       42.8639338030  TIP3      4296            0.0000000000
     35141      4489  TIP3      OH2             3.7724995034      -16.0723364569       55.1834996798  TIP3      4297            0.0000000000
     35142      4489  TIP3      H1              3.4535245286      -16.9338379139       55.5200161987  TIP3      4297            0.0000000000
     35143      4489  TIP3      H2              4.7184269719      -16.1658609693       55.4567006122  TIP3      4297            0.0000000000
     35144      4490  TIP3      OH2             6.0502271371      -16.9982650935       56.0910805597  TIP3      4298            0.0000000000
     35145      4490  TIP3      H1              6.8280749489      -16.9732564423       56.6603160607  TIP3      4298            0.0000000000
     35146      4490  TIP3      H2              5.4908036739      -17.4007077741       56.7972736455  TIP3      4298            0.0000000000
     35147      4491  TIP3      OH2             4.4345439327        0.0277414859       39.3949267865  TIP3      4299            0.0000000000
     35148      4491  TIP3      H1              4.1756319387        0.2858605559       40.2913622975  TIP3      4299            0.0000000000
     35149      4491  TIP3      H2              5.2180150963       -0.5356079405       39.5500336530  TIP3      4299            0.0000000000
     35150      4492  TIP3      OH2            14.2423122945      -17.4442505601       56.9481443086  TIP3      4300            0.0000000000
     35151      4492  TIP3      H1             14.3415201048      -17.9168381749       57.7971917659  TIP3      4300            0.0000000000
     35152      4492  TIP3      H2             15.1529770842      -17.4734892444       56.5970250266  TIP3      4300            0.0000000000
     35153      4493  TIP3      OH2            17.4576813696       -1.3991157568       55.5794320692  TIP3      4301            0.0000000000
     35154      4493  TIP3      H1             16.6534818548       -1.5348924739       55.0326391956  TIP3      4301            0.0000000000
     35155      4493  TIP3      H2             17.3412549175       -0.4520503234       55.7971461829  TIP3      4301            0.0000000000
     35156      4494  TIP3      OH2            31.9006208560       -7.5365575382       45.5602476673  TIP3      4302            0.0000000000
     35157      4494  TIP3      H1             31.9047381693       -6.5521713719       45.5347812846  TIP3      4302            0.0000000000
     35158      4494  TIP3      H2             31.1722495085       -7.7575785568       44.9575348014  TIP3      4302            0.0000000000
     35159      4495  TIP3      OH2            30.7605598760       -8.2679539461       49.0596587217  TIP3      4303            0.0000000000
     35160      4495  TIP3      H1             30.7413167146       -8.9149278015       49.7803496045  TIP3      4303            0.0000000000
     35161      4495  TIP3      H2             30.4279291972       -8.7797820818       48.3014985131  TIP3      4303            0.0000000000
     35162      4496  TIP3      OH2            23.1095835168       -8.5895972099       50.6130228063  TIP3      4304            0.0000000000
     35163      4496  TIP3      H1             23.1938131592       -9.2776924770       51.3059240123  TIP3      4304            0.0000000000
     35164      4496  TIP3      H2             23.8593846248       -8.0193873231       50.8366051216  TIP3      4304            0.0000000000
     35165      4497  TIP3      OH2            34.4644275281       -5.3409541659       47.3575411344  TIP3      4305            0.0000000000
     35166      4497  TIP3      H1             34.0389065220       -6.0500670509       47.8475008697  TIP3      4305            0.0000000000
     35167      4497  TIP3      H2             34.4674643121       -4.6207089966       48.0091177871  TIP3      4305            0.0000000000
     35168      4498  TIP3      OH2            24.0356758054       -4.1413050397       49.1126947910  TIP3      4306            0.0000000000
     35169      4498  TIP3      H1             23.7252267803       -5.0115625926       48.7961390146  TIP3      4306            0.0000000000
     35170      4498  TIP3      H2             24.9910495239       -4.3251320095       49.1592949132  TIP3      4306            0.0000000000
     35171      4499  TIP3      OH2            20.6935141240      -10.5825864499       44.5841927693  TIP3      4307            0.0000000000
     35172      4499  TIP3      H1             20.2421381620       -9.7175326125       44.5394156095  TIP3      4307            0.0000000000
     35173      4499  TIP3      H2             20.1043205573      -11.1267809737       44.0457439086  TIP3      4307            0.0000000000
     35174      4500  TIP3      OH2            21.4055436990       -8.3486585702       46.7555834387  TIP3      4308            0.0000000000
     35175      4500  TIP3      H1             21.6475549285       -9.1830853528       47.2005678560  TIP3      4308            0.0000000000
     35176      4500  TIP3      H2             22.0925612918       -8.2580837486       46.0803069451  TIP3      4308            0.0000000000
     35177      4501  TIP3      OH2            31.5704190259       -0.1584150133       47.5752833676  TIP3      4309            0.0000000000
     35178      4501  TIP3      H1             32.2112262943       -0.8581620723       47.2969970070  TIP3      4309            0.0000000000
     35179      4501  TIP3      H2             31.3348030748       -0.4983313202       48.4430620930  TIP3      4309            0.0000000000
     35180      4502  TIP3      OH2            29.1369908314       -5.8661226850       49.5393774917  TIP3      4310            0.0000000000
     35181      4502  TIP3      H1             29.4683459733       -6.4927554705       48.8758871990  TIP3      4310            0.0000000000
     35182      4502  TIP3      H2             29.9508177884       -5.7100773839       50.0498377105  TIP3      4310            0.0000000000
     35183      4503  TIP3      OH2            32.3123199255      -11.3921449546       49.8421956828  TIP3      4311            0.0000000000
     35184      4503  TIP3      H1             32.4761541200      -12.3523834237       49.8332145702  TIP3      4311            0.0000000000
     35185      4503  TIP3      H2             32.2101127302      -11.2476835370       48.8818406081  TIP3      4311            0.0000000000
     35186      4504  TIP3      OH2            25.4133574293      -13.3087036351       47.0614670036  TIP3      4312            0.0000000000
     35187      4504  TIP3      H1             25.5213676206      -12.4746646226       46.5680175252  TIP3      4312            0.0000000000
     35188      4504  TIP3      H2             25.0154982950      -13.8825857943       46.3716360057  TIP3      4312            0.0000000000
     35189      4505  TIP3      OH2            33.1798635052      -13.1887060453       45.4456774325  TIP3      4313            0.0000000000
     35190      4505  TIP3      H1             33.8184094645      -13.5494346630       46.1086069542  TIP3      4313            0.0000000000
     35191      4505  TIP3      H2             33.7732902835      -12.6633940897       44.9053062872  TIP3      4313            0.0000000000
     35192      4506  TIP3      OH2            22.0371627550      -10.8981751215       47.7951205374  TIP3      4314            0.0000000000
     35193      4506  TIP3      H1             22.7068246438      -11.4418936245       48.2507045907  TIP3      4314            0.0000000000
     35194      4506  TIP3      H2             22.1439677803      -11.2132747894       46.8844276713  TIP3      4314            0.0000000000
     35195      4507  TIP3      OH2            27.1936654847       -9.3427072872       47.1180702117  TIP3      4315            0.0000000000
     35196      4507  TIP3      H1             27.8684102357       -9.9237357771       47.5104770248  TIP3      4315            0.0000000000
     35197      4507  TIP3      H2             26.6784569700      -10.0008354811       46.6107588392  TIP3      4315            0.0000000000
     35198      4508  TIP3      OH2            24.3238571949      -14.4092466705       51.1013677541  TIP3      4316            0.0000000000
     35199      4508  TIP3      H1             24.0416117467      -13.8381631436       50.3555488293  TIP3      4316            0.0000000000
     35200      4508  TIP3      H2             23.6458786589      -14.1813051847       51.7833579390  TIP3      4316            0.0000000000
     35201      4509  TIP3      OH2            31.5943590025       -4.9456172133       44.6405821066  TIP3      4317            0.0000000000
     35202      4509  TIP3      H1             31.3412197803       -5.2085343679       43.7497936256  TIP3      4317            0.0000000000
     35203      4509  TIP3      H2             31.2992180133       -4.0087366136       44.7009807287  TIP3      4317            0.0000000000
     35204      4510  TIP3      OH2            26.8370856506       -6.7606701163       51.3360150105  TIP3      4318            0.0000000000
     35205      4510  TIP3      H1             26.1318365950       -6.1197278556       51.5591594499  TIP3      4318            0.0000000000
     35206      4510  TIP3      H2             27.5441627071       -6.1633532334       51.0483366015  TIP3      4318            0.0000000000
     35207      4511  TIP3      OH2            34.6609841707      -13.9089283667       47.5413849077  TIP3      4319            0.0000000000
     35208      4511  TIP3      H1             34.6896966999      -14.7294673578       48.0414854512  TIP3      4319            0.0000000000
     35209      4511  TIP3      H2             35.4277957375      -13.4446238545       47.9422913723  TIP3      4319            0.0000000000
     35210      4512  TIP3      OH2            23.8915547861      -12.5529624238       49.1376277125  TIP3      4320            0.0000000000
     35211      4512  TIP3      H1             24.5206793090      -11.8647849738       49.4478888111  TIP3      4320            0.0000000000
     35212      4512  TIP3      H2             24.4081328033      -12.9632831194       48.3992568381  TIP3      4320            0.0000000000
     35213      4513  TIP3      OH2            25.2846775095       -4.7597945954       52.1613746422  TIP3      4321            0.0000000000
     35214      4513  TIP3      H1             25.2360551560       -3.8472661751       51.8225000623  TIP3      4321            0.0000000000
     35215      4513  TIP3      H2             24.4021743180       -4.8413327087       52.6040491096  TIP3      4321            0.0000000000
     35216      4514  TIP3      OH2            21.3637398084       -5.1532836650       42.9525332251  TIP3      4322            0.0000000000
     35217      4514  TIP3      H1             21.1132340548       -4.8134549417       42.0757222550  TIP3      4322            0.0000000000
     35218      4514  TIP3      H2             21.4433969433       -4.3258947967       43.4681969362  TIP3      4322            0.0000000000
     35219      4515  TIP3      OH2            34.7725250885       -3.5547951794       49.8070867613  TIP3      4323            0.0000000000
     35220      4515  TIP3      H1             33.8151768254       -3.3413435496       49.8496227324  TIP3      4323            0.0000000000
     35221      4515  TIP3      H2             35.1565056637       -2.7103537256       49.5036676796  TIP3      4323            0.0000000000
     35222      4516  TIP3      OH2            35.0933359211      -15.0729843640       50.8510507691  TIP3      4324            0.0000000000
     35223      4516  TIP3      H1             34.4041357104      -14.3929474665       50.9754193701  TIP3      4324            0.0000000000
     35224      4516  TIP3      H2             35.8621111271      -14.5779383515       50.5493733870  TIP3      4324            0.0000000000
     35225      4517  TIP3      OH2            28.2599850749      -17.0765307532       48.5659917288  TIP3      4325            0.0000000000
     35226      4517  TIP3      H1             28.1243493940      -18.0411401163       48.4953894820  TIP3      4325            0.0000000000
     35227      4517  TIP3      H2             27.3816798258      -16.7708074839       48.8735612606  TIP3      4325            0.0000000000
     35228      4518  TIP3      OH2            33.1489057068       -1.7674010086       46.3186757953  TIP3      4326            0.0000000000
     35229      4518  TIP3      H1             33.6371260991       -2.4474920541       45.8119446660  TIP3      4326            0.0000000000
     35230      4518  TIP3      H2             33.6025859185       -0.9686048711       45.9647290980  TIP3      4326            0.0000000000
     35231      4519  TIP3      OH2            34.4296497388       -3.7809245030       44.8224384477  TIP3      4327            0.0000000000
     35232      4519  TIP3      H1             34.1828192976       -4.4918862728       44.2111453555  TIP3      4327            0.0000000000
     35233      4519  TIP3      H2             34.4925444147       -4.2874903087       45.6580286905  TIP3      4327            0.0000000000
     35234      4520  TIP3      OH2            35.8019247880       -5.0370036190       53.4347567657  TIP3      4328            0.0000000000
     35235      4520  TIP3      H1             36.0792092310       -5.7344138574       52.8087367689  TIP3      4328            0.0000000000
     35236      4520  TIP3      H2             36.2105596702       -4.2779761020       52.9779193842  TIP3      4328            0.0000000000
     35237      4521  TIP3      OH2            30.5497859743       -8.2904223927       43.0697637028  TIP3      4329            0.0000000000
     35238      4521  TIP3      H1             29.8629249101       -7.7037320095       42.7073109321  TIP3      4329            0.0000000000
     35239      4521  TIP3      H2             31.2667470692       -8.1944402455       42.4165177884  TIP3      4329            0.0000000000
     35240      4522  TIP3      OH2            30.6368270783       -9.7145582296       40.0854146392  TIP3      4330            0.0000000000
     35241      4522  TIP3      H1             31.3527595869       -9.7360175798       40.7397592812  TIP3      4330            0.0000000000
     35242      4522  TIP3      H2             30.9407613556      -10.4334159262       39.5148833214  TIP3      4330            0.0000000000
     35243      4523  TIP3      OH2            33.9765287654       -8.0679512760       43.9644727166  TIP3      4331            0.0000000000
     35244      4523  TIP3      H1             33.2519519830       -7.8157556114       44.5839344110  TIP3      4331            0.0000000000
     35245      4523  TIP3      H2             34.4566155726       -8.7091776703       44.5322664349  TIP3      4331            0.0000000000
     35246      4524  TIP3      OH2            33.9518393066       -9.8940536835       53.0925565558  TIP3      4332            0.0000000000
     35247      4524  TIP3      H1             33.9031503596       -9.0960343563       53.6433079260  TIP3      4332            0.0000000000
     35248      4524  TIP3      H2             33.3104623986       -9.6262783385       52.4084401068  TIP3      4332            0.0000000000
     35249      4525  TIP3      OH2            25.6169309722       -7.4179790156       45.9153626574  TIP3      4333            0.0000000000
     35250      4525  TIP3      H1             25.2975396136       -7.8062068472       45.0653024520  TIP3      4333            0.0000000000
     35251      4525  TIP3      H2             26.2330182633       -8.1075616496       46.2487179478  TIP3      4333            0.0000000000
     35252      4526  TIP3      OH2            26.9349177893       -4.0327543988       48.5943539956  TIP3      4334            0.0000000000
     35253      4526  TIP3      H1             26.9323935092       -4.5555407613       47.7832638587  TIP3      4334            0.0000000000
     35254      4526  TIP3      H2             27.7189280981       -4.3878640744       49.0523326263  TIP3      4334            0.0000000000
     35255      4527  TIP3      OH2            25.9451093680       -8.6690636557       49.5771535571  TIP3      4335            0.0000000000
     35256      4527  TIP3      H1             26.4953014132       -8.5705350628       48.7751986279  TIP3      4335            0.0000000000
     35257      4527  TIP3      H2             26.3357790814       -8.0036937790       50.1859520874  TIP3      4335            0.0000000000
     35258      4528  TIP3      OH2            32.2850084630       -3.0787513377       50.2677516679  TIP3      4336            0.0000000000
     35259      4528  TIP3      H1             32.0903199064       -2.4569643712       50.9719694764  TIP3      4336            0.0000000000
     35260      4528  TIP3      H2             32.1062217417       -3.9490909977       50.6993294774  TIP3      4336            0.0000000000
     35261      4529  TIP3      OH2            26.8996226483       -4.2331588733       54.2728741026  TIP3      4337            0.0000000000
     35262      4529  TIP3      H1             26.4917621777       -3.4810832423       54.7513974698  TIP3      4337            0.0000000000
     35263      4529  TIP3      H2             26.2278527689       -4.4363054331       53.5760527744  TIP3      4337            0.0000000000
     35264      4530  TIP3      OH2            32.8729397403       -8.8937834974       41.6729314170  TIP3      4338            0.0000000000
     35265      4530  TIP3      H1             33.4276781591       -8.6744781598       42.4622683146  TIP3      4338            0.0000000000
     35266      4530  TIP3      H2             33.2743924838       -8.3656675082       40.9531303937  TIP3      4338            0.0000000000
     35267      4531  TIP3      OH2            23.8398133256       -8.0791831540       53.4224980217  TIP3      4339            0.0000000000
     35268      4531  TIP3      H1             23.8925099351       -7.4113398801       54.1326526590  TIP3      4339            0.0000000000
     35269      4531  TIP3      H2             22.8942411821       -8.0026727756       53.2141401163  TIP3      4339            0.0000000000
     35270      4532  TIP3      OH2            30.5866967439       -2.1504862218       45.1246806560  TIP3      4340            0.0000000000
     35271      4532  TIP3      H1             31.0192752485       -1.8529046229       45.9362214533  TIP3      4340            0.0000000000
     35272      4532  TIP3      H2             30.0283797563       -1.4015302017       44.8935530319  TIP3      4340            0.0000000000
     35273      4533  TIP3      OH2            25.1457172660       -2.2074285135       55.0219582301  TIP3      4341            0.0000000000
     35274      4533  TIP3      H1             25.0845075194       -2.3264819646       54.0585588696  TIP3      4341            0.0000000000
     35275      4533  TIP3      H2             24.2156767756       -2.3360106979       55.2897558958  TIP3      4341            0.0000000000
     35276      4534  TIP3      OH2            24.5772026999       -8.3969022426       43.5447312191  TIP3      4342            0.0000000000
     35277      4534  TIP3      H1             24.3001761742       -7.6121260861       43.0256994495  TIP3      4342            0.0000000000
     35278      4534  TIP3      H2             23.9321196085       -9.0614479972       43.2970511748  TIP3      4342            0.0000000000
     35279      4535  TIP3      OH2            20.6719762557       -5.9636083060       52.4300680922  TIP3      4343            0.0000000000
     35280      4535  TIP3      H1             20.2268620779       -6.0531751596       51.5673243288  TIP3      4343            0.0000000000
     35281      4535  TIP3      H2             20.7596071316       -6.9112872927       52.6466120807  TIP3      4343            0.0000000000
     35282      4536  TIP3      OH2            20.4369084323       -3.2269764424       49.2029580729  TIP3      4344            0.0000000000
     35283      4536  TIP3      H1             21.3947483641       -3.3462782375       49.1830692585  TIP3      4344            0.0000000000
     35284      4536  TIP3      H2             20.3542194397       -2.4102160301       49.7097505171  TIP3      4344            0.0000000000
     35285      4537  TIP3      OH2            29.6335072258       -2.9840894073       53.7543934647  TIP3      4345            0.0000000000
     35286      4537  TIP3      H1             29.6916151897       -2.1412669469       54.2631732627  TIP3      4345            0.0000000000
     35287      4537  TIP3      H2             28.7613257541       -3.3432549712       54.0076692180  TIP3      4345            0.0000000000
     35288      4538  TIP3      OH2            30.1139488594        0.7614629010       43.5522376348  TIP3      4346            0.0000000000
     35289      4538  TIP3      H1             29.9797442411        0.6797360053       42.5889497624  TIP3      4346            0.0000000000
     35290      4538  TIP3      H2             30.0953821617        1.7267999077       43.6985633438  TIP3      4346            0.0000000000
     35291      4539  TIP3      OH2            23.7150470848       -0.3623303631       45.3711142935  TIP3      4347            0.0000000000
     35292      4539  TIP3      H1             23.8588558893       -0.7751388970       46.2487651499  TIP3      4347            0.0000000000
     35293      4539  TIP3      H2             22.8667857835       -0.7708872463       45.1305436390  TIP3      4347            0.0000000000
     35294      4540  TIP3      OH2            33.1482711452       -0.0169779281       40.5156114762  TIP3      4348            0.0000000000
     35295      4540  TIP3      H1             33.5784810906       -0.7874385744       40.0785021412  TIP3      4348            0.0000000000
     35296      4540  TIP3      H2             33.1659511487       -0.2886467090       41.4554658327  TIP3      4348            0.0000000000
     35297      4541  TIP3      OH2            32.8062650723       -0.1101925535       43.3163022058  TIP3      4349            0.0000000000
     35298      4541  TIP3      H1             31.8432926187       -0.0207350799       43.4844228814  TIP3      4349            0.0000000000
     35299      4541  TIP3      H2             33.0369758966       -0.8512649145       43.8948182421  TIP3      4349            0.0000000000
     35300      4542  TIP3      OH2            35.3245879488      -10.8817372982       55.3963911699  TIP3      4350            0.0000000000
     35301      4542  TIP3      H1             35.2884739318      -10.5330887077       54.5013757948  TIP3      4350            0.0000000000
     35302      4542  TIP3      H2             35.8624006557      -11.7077034736       55.2428570335  TIP3      4350            0.0000000000
     35303      4543  TIP3      OH2            22.9628358713       -4.6378642883       53.3680120538  TIP3      4351            0.0000000000
     35304      4543  TIP3      H1             23.1857638642       -5.0093199062       54.2475111978  TIP3      4351            0.0000000000
     35305      4543  TIP3      H2             22.0959959505       -5.0430897525       53.1537610281  TIP3      4351            0.0000000000
     35306      4544  TIP3      OH2            25.6443395325      -16.1725036463       49.3175729027  TIP3      4352            0.0000000000
     35307      4544  TIP3      H1             24.7412188233      -16.2995806477       48.9507928656  TIP3      4352            0.0000000000
     35308      4544  TIP3      H2             25.5098102554      -15.3423672873       49.8036604008  TIP3      4352            0.0000000000
     35309      4545  TIP3      OH2            30.2888248484      -16.5104343827       52.6777863134  TIP3      4353            0.0000000000
     35310      4545  TIP3      H1             30.6853530041      -16.9268704054       53.4656438704  TIP3      4353            0.0000000000
     35311      4545  TIP3      H2             29.3160801785      -16.6237095480       52.8252411164  TIP3      4353            0.0000000000
     35312      4546  TIP3      OH2            33.5017963900      -12.7002436239       53.5168118138  TIP3      4354            0.0000000000
     35313      4546  TIP3      H1             33.0184866802      -12.8713611735       54.3597879079  TIP3      4354            0.0000000000
     35314      4546  TIP3      H2             33.4264924104      -11.7443559017       53.3847070067  TIP3      4354            0.0000000000
     35315      4547  TIP3      OH2            34.3774058924       -7.9354863542       39.4797833854  TIP3      4355            0.0000000000
     35316      4547  TIP3      H1             34.3047581338       -8.0861738971       38.5097233930  TIP3      4355            0.0000000000
     35317      4547  TIP3      H2             35.1470279680       -7.3668353207       39.5085235225  TIP3      4355            0.0000000000
     35318      4548  TIP3      OH2            29.9347437955      -13.9189021305       39.9894652625  TIP3      4356            0.0000000000
     35319      4548  TIP3      H1             29.6129011243      -13.9815761029       40.9075418465  TIP3      4356            0.0000000000
     35320      4548  TIP3      H2             29.6184046816      -14.7913850579       39.6796024399  TIP3      4356            0.0000000000
     35321      4549  TIP3      OH2            25.7503649355      -11.1935397234       50.5824302793  TIP3      4357            0.0000000000
     35322      4549  TIP3      H1             25.0031408648      -11.2089644615       51.2087979889  TIP3      4357            0.0000000000
     35323      4549  TIP3      H2             25.6973598180      -10.2896995916       50.1997631347  TIP3      4357            0.0000000000
     35324      4550  TIP3      OH2            25.7053788818      -11.0865364514       45.4359116353  TIP3      4358            0.0000000000
     35325      4550  TIP3      H1             24.7667727433      -11.3344551000       45.3045885832  TIP3      4358            0.0000000000
     35326      4550  TIP3      H2             26.0801089147      -11.3740356026       44.5793294789  TIP3      4358            0.0000000000
     35327      4551  TIP3      OH2            31.2429510577      -10.5721379363       44.2181891867  TIP3      4359            0.0000000000
     35328      4551  TIP3      H1             30.8335136820       -9.7589354448       43.8406887033  TIP3      4359            0.0000000000
     35329      4551  TIP3      H2             31.9245329029      -10.7435480721       43.5498868057  TIP3      4359            0.0000000000
     35330      4552  TIP3      OH2            30.2914603714      -10.3677004104       55.6488848475  TIP3      4360            0.0000000000
     35331      4552  TIP3      H1             29.7741613425      -11.1501341481       55.9516854709  TIP3      4360            0.0000000000
     35332      4552  TIP3      H2             31.1348884718      -10.4921925490       56.1186015709  TIP3      4360            0.0000000000
     35333      4553  TIP3      OH2            32.2290248665      -11.0723525538       47.0692565087  TIP3      4361            0.0000000000
     35334      4553  TIP3      H1             31.9956101546      -10.5256134770       46.3000024583  TIP3      4361            0.0000000000
     35335      4553  TIP3      H2             32.3571942591      -11.9298305839       46.6137645108  TIP3      4361            0.0000000000
     35336      4554  TIP3      OH2            23.3713569602      -10.9508860253       52.2501945007  TIP3      4362            0.0000000000
     35337      4554  TIP3      H1             23.4506192615      -10.5416716523       53.1294560541  TIP3      4362            0.0000000000
     35338      4554  TIP3      H2             22.9268755827      -11.7875660686       52.4601483235  TIP3      4362            0.0000000000
     35339      4555  TIP3      OH2            26.7387256483      -13.5528239769       39.1057964667  TIP3      4363            0.0000000000
     35340      4555  TIP3      H1             26.2844615590      -13.9736114206       39.8639003135  TIP3      4363            0.0000000000
     35341      4555  TIP3      H2             26.0291428865      -13.1209017471       38.6145210812  TIP3      4363            0.0000000000
     35342      4556  TIP3      OH2            20.0260991483      -13.8390272652       46.2401557392  TIP3      4364            0.0000000000
     35343      4556  TIP3      H1             20.7103233888      -13.8800820556       46.9408871498  TIP3      4364            0.0000000000
     35344      4556  TIP3      H2             20.4732452681      -14.2145228100       45.4595572376  TIP3      4364            0.0000000000
     35345      4557  TIP3      OH2            21.2887090419      -13.1219058820       41.5849554248  TIP3      4365            0.0000000000
     35346      4557  TIP3      H1             21.8032977419      -12.5093240632       41.0284883041  TIP3      4365            0.0000000000
     35347      4557  TIP3      H2             20.6030110496      -12.4980586407       41.9066003179  TIP3      4365            0.0000000000
     35348      4558  TIP3      OH2            31.4420621111       -9.5153894408       51.5992777262  TIP3      4366            0.0000000000
     35349      4558  TIP3      H1             31.8383257109      -10.2077536689       51.0270177426  TIP3      4366            0.0000000000
     35350      4558  TIP3      H2             30.9784932690      -10.0375819124       52.2775045634  TIP3      4366            0.0000000000
     35351      4559  TIP3      OH2            28.2534456910      -13.5222117959       46.4456355995  TIP3      4367            0.0000000000
     35352      4559  TIP3      H1             27.3163810184      -13.5241090267       46.7449221024  TIP3      4367            0.0000000000
     35353      4559  TIP3      H2             28.7523003097      -13.6989893113       47.2604777003  TIP3      4367            0.0000000000
     35354      4560  TIP3      OH2            23.0684630465      -11.9791532744       45.3109450900  TIP3      4368            0.0000000000
     35355      4560  TIP3      H1             22.1857055929      -11.8210355218       44.9174528567  TIP3      4368            0.0000000000
     35356      4560  TIP3      H2             23.3532169355      -12.8122643914       44.9001237741  TIP3      4368            0.0000000000
     35357      4561  TIP3      OH2            26.7130663007      -11.9309862093       42.9355005601  TIP3      4369            0.0000000000
     35358      4561  TIP3      H1             27.6687134304      -11.8193128553       43.0965206896  TIP3      4369            0.0000000000
     35359      4561  TIP3      H2             26.4757840121      -11.2477087325       42.2805180972  TIP3      4369            0.0000000000
     35360      4562  TIP3      OH2            32.5949585792      -14.3218129574       49.6951224231  TIP3      4370            0.0000000000
     35361      4562  TIP3      H1             31.9265746698      -14.2521359273       50.4001820054  TIP3      4370            0.0000000000
     35362      4562  TIP3      H2             32.0996669610      -14.5358384705       48.8900820676  TIP3      4370            0.0000000000
     35363      4563  TIP3      OH2            25.4186461116      -10.7540952909       40.5243336914  TIP3      4371            0.0000000000
     35364      4563  TIP3      H1             24.8856057468      -11.1333220854       39.8046766340  TIP3      4371            0.0000000000
     35365      4563  TIP3      H2             26.2392518123      -10.5464319028       40.0506369574  TIP3      4371            0.0000000000
     35366      4564  TIP3      OH2            35.7680144912        1.3933913046       56.0375652321  TIP3      4372            0.0000000000
     35367      4564  TIP3      H1             36.1092917377        1.7232456596       55.1922084270  TIP3      4372            0.0000000000
     35368      4564  TIP3      H2             36.5158694704        1.6501237822       56.6049740540  TIP3      4372            0.0000000000
     35369      4565  TIP3      OH2            23.5423365870       -6.1844030193       55.5784247691  TIP3      4373            0.0000000000
     35370      4565  TIP3      H1             24.2624305016       -5.9372554695       56.1818280353  TIP3      4373            0.0000000000
     35371      4565  TIP3      H2             22.7698129421       -6.1029362275       56.1795406566  TIP3      4373            0.0000000000
     35372      4566  TIP3      OH2            29.5393564139      -10.7737630355       48.3334300608  TIP3      4374            0.0000000000
     35373      4566  TIP3      H1             30.1454632125      -11.3040468533       47.8009958915  TIP3      4374            0.0000000000
     35374      4566  TIP3      H2             29.3965203214      -11.3211906687       49.1169993018  TIP3      4374            0.0000000000
     35375      4567  TIP3      OH2            24.5524954553      -14.6267902059       44.7707369538  TIP3      4375            0.0000000000
     35376      4567  TIP3      H1             24.2427947572      -15.5507392503       44.7631481581  TIP3      4375            0.0000000000
     35377      4567  TIP3      H2             25.3432093746      -14.6946423539       44.2218472896  TIP3      4375            0.0000000000
     35378      4568  TIP3      OH2            28.1807213170      -12.4470002066       50.7484877575  TIP3      4376            0.0000000000
     35379      4568  TIP3      H1             27.3571194100      -11.9265272140       50.8362540406  TIP3      4376            0.0000000000
     35380      4568  TIP3      H2             28.7369348177      -12.0935957049       51.4693190179  TIP3      4376            0.0000000000
     35381      4569  TIP3      OH2            28.7702434570       -6.2210875869       42.4455326666  TIP3      4377            0.0000000000
     35382      4569  TIP3      H1             27.9704313348       -6.6872307889       42.1103139707  TIP3      4377            0.0000000000
     35383      4569  TIP3      H2             28.5452010281       -6.0972569932       43.3899705940  TIP3      4377            0.0000000000
     35384      4570  TIP3      OH2            35.6401869377       -6.9990500142       51.2432882102  TIP3      4378            0.0000000000
     35385      4570  TIP3      H1             36.3658987124       -6.8706491293       50.5931559497  TIP3      4378            0.0000000000
     35386      4570  TIP3      H2             34.8773759689       -6.9957866193       50.6344091007  TIP3      4378            0.0000000000
     35387      4571  TIP3      OH2            32.6314159426      -13.3956689278       40.6132261649  TIP3      4379            0.0000000000
     35388      4571  TIP3      H1             31.6724830845      -13.2762214994       40.4732822154  TIP3      4379            0.0000000000
     35389      4571  TIP3      H2             32.9122893703      -12.5346612887       40.9850271725  TIP3      4379            0.0000000000
     35390      4572  TIP3      OH2            30.2730479893       -5.9523705512       53.6879563112  TIP3      4380            0.0000000000
     35391      4572  TIP3      H1             29.9104126301       -6.3789576244       54.4712226651  TIP3      4380            0.0000000000
     35392      4572  TIP3      H2             30.0327322741       -5.0278601466       53.7963794275  TIP3      4380            0.0000000000
     35393      4573  TIP3      OH2            33.3324070062      -11.4705072711       42.2165372792  TIP3      4381            0.0000000000
     35394      4573  TIP3      H1             34.2010019601      -11.6116772443       42.6488244966  TIP3      4381            0.0000000000
     35395      4573  TIP3      H2             33.4354230063      -10.6314873772       41.7367572227  TIP3      4381            0.0000000000
     35396      4574  TIP3      OH2            23.8831318728       -6.8238861284       48.2470404191  TIP3      4382            0.0000000000
     35397      4574  TIP3      H1             24.5593050178       -6.9097049403       47.5467700805  TIP3      4382            0.0000000000
     35398      4574  TIP3      H2             23.9386289074       -7.6843443329       48.7008659843  TIP3      4382            0.0000000000
     35399      4575  TIP3      OH2            30.8458260490       -4.7525133917       41.4771693299  TIP3      4383            0.0000000000
     35400      4575  TIP3      H1             30.5200398933       -3.9023530439       41.8409310126  TIP3      4383            0.0000000000
     35401      4575  TIP3      H2             30.1203848665       -5.3708484170       41.7050907580  TIP3      4383            0.0000000000
     35402      4576  TIP3      OH2            20.8684322229       -8.4207768815       53.5101643553  TIP3      4384            0.0000000000
     35403      4576  TIP3      H1             21.0400302071       -8.8700166034       54.3607980194  TIP3      4384            0.0000000000
     35404      4576  TIP3      H2             20.2524161996       -9.0299214281       53.0661928748  TIP3      4384            0.0000000000
     35405      4577  TIP3      OH2            27.8821079529       -8.8638236200       55.6826931851  TIP3      4385            0.0000000000
     35406      4577  TIP3      H1             27.5623540443       -9.1736016899       54.8231572466  TIP3      4385            0.0000000000
     35407      4577  TIP3      H2             28.8045840494       -9.1886918358       55.6818311037  TIP3      4385            0.0000000000
     35408      4578  TIP3      OH2            32.5662948966       -3.5435414222       53.6358958830  TIP3      4386            0.0000000000
     35409      4578  TIP3      H1             31.6468154490       -3.3604010813       53.3976847507  TIP3      4386            0.0000000000
     35410      4578  TIP3      H2             32.5400554531       -3.2399014624       54.5633681801  TIP3      4386            0.0000000000
     35411      4579  TIP3      OH2            33.6768172841       -7.7295992506       49.5365865525  TIP3      4387            0.0000000000
     35412      4579  TIP3      H1             32.7398173402       -7.9472209247       49.3921884579  TIP3      4387            0.0000000000
     35413      4579  TIP3      H2             34.1560897461       -8.4638176754       49.1133054639  TIP3      4387            0.0000000000
     35414      4580  TIP3      OH2            26.2548776120       -3.3678798696       45.6323794185  TIP3      4388            0.0000000000
     35415      4580  TIP3      H1             26.7527702407       -2.5627480531       45.4228425119  TIP3      4388            0.0000000000
     35416      4580  TIP3      H2             25.3755869225       -3.1408832585       45.2991068359  TIP3      4388            0.0000000000
     35417      4581  TIP3      OH2            22.0195233677       -8.5335811625       40.2010257240  TIP3      4389            0.0000000000
     35418      4581  TIP3      H1             22.5986699427       -7.8685867309       40.6109285712  TIP3      4389            0.0000000000
     35419      4581  TIP3      H2             21.1293515756       -8.2201915380       40.4498280219  TIP3      4389            0.0000000000
     35420      4582  TIP3      OH2            27.6675147055       -5.6974678760       45.1494159071  TIP3      4390            0.0000000000
     35421      4582  TIP3      H1             27.3474690337       -4.7802515097       45.2433349267  TIP3      4390            0.0000000000
     35422      4582  TIP3      H2             26.9522376242       -6.1975240652       45.5914963394  TIP3      4390            0.0000000000
     35423      4583  TIP3      OH2            28.1067894816       -1.4964491162       51.5806627065  TIP3      4391            0.0000000000
     35424      4583  TIP3      H1             28.6077039929       -0.7307566573       51.2630646001  TIP3      4391            0.0000000000
     35425      4583  TIP3      H2             28.7388712233       -1.8853226728       52.2161940802  TIP3      4391            0.0000000000
     35426      4584  TIP3      OH2            26.3469795172       -0.7188451376       44.6730842974  TIP3      4392            0.0000000000
     35427      4584  TIP3      H1             25.3816966400       -0.5765667056       44.8012933297  TIP3      4392            0.0000000000
     35428      4584  TIP3      H2             26.7094248377        0.1186995702       45.0163002651  TIP3      4392            0.0000000000
     35429      4585  TIP3      OH2            31.6602390261       -5.5258947971       51.1799257176  TIP3      4393            0.0000000000
     35430      4585  TIP3      H1             31.3175440105       -5.7206147402       52.0780673247  TIP3      4393            0.0000000000
     35431      4585  TIP3      H2             32.2864138065       -6.2463782247       51.0088003265  TIP3      4393            0.0000000000
     35432      4586  TIP3      OH2            33.9587076478       -4.4724820996       40.2577260745  TIP3      4394            0.0000000000
     35433      4586  TIP3      H1             34.2818876131       -4.9030294353       41.0740603593  TIP3      4394            0.0000000000
     35434      4586  TIP3      H2             33.0085522808       -4.6424922497       40.3486909457  TIP3      4394            0.0000000000
     35435      4587  TIP3      OH2            34.4666327362       -0.9691257322       53.6497599678  TIP3      4395            0.0000000000
     35436      4587  TIP3      H1             33.7413089286       -1.4348671213       53.1828424481  TIP3      4395            0.0000000000
     35437      4587  TIP3      H2             34.6689141116       -0.2483455213       53.0142456299  TIP3      4395            0.0000000000
     35438      4588  TIP3      OH2            22.5196481421      -13.6889704883       53.0541544309  TIP3      4396            0.0000000000
     35439      4588  TIP3      H1             21.6123860987      -13.3370812277       53.0342102539  TIP3      4396            0.0000000000
     35440      4588  TIP3      H2             22.4075606675      -14.5341957384       53.5173352637  TIP3      4396            0.0000000000
     35441      4589  TIP3      OH2            34.7580632677       -5.8630022004       42.4847200528  TIP3      4397            0.0000000000
     35442      4589  TIP3      H1             34.5327572925       -6.6291932475       43.0579594102  TIP3      4397            0.0000000000
     35443      4589  TIP3      H2             35.6959250041       -5.7424890456       42.7129285303  TIP3      4397            0.0000000000
     35444      4590  TIP3      OH2            22.1214107543       -1.9136204444       51.4817967673  TIP3      4398            0.0000000000
     35445      4590  TIP3      H1             22.4361945000       -2.8302868305       51.4854691903  TIP3      4398            0.0000000000
     35446      4590  TIP3      H2             22.3727133455       -1.6356077200       52.3704021903  TIP3      4398            0.0000000000
     35447      4591  TIP3      OH2            28.1083046520       -3.3773646409       38.7619723792  TIP3      4399            0.0000000000
     35448      4591  TIP3      H1             28.2074511591       -4.1411406450       38.1707569229  TIP3      4399            0.0000000000
     35449      4591  TIP3      H2             27.6663960689       -3.8084746970       39.5259504791  TIP3      4399            0.0000000000
     35450      4592  TIP3      OH2            26.8791727490       -3.8506525708       41.2144754964  TIP3      4400            0.0000000000
     35451      4592  TIP3      H1             27.1506987129       -4.3656962953       41.9838287277  TIP3      4400            0.0000000000
     35452      4592  TIP3      H2             26.9720178609       -2.9242800324       41.5373500052  TIP3      4400            0.0000000000
     35453      4593  TIP3      OH2            23.4242984533       -6.6052540798       41.7003878086  TIP3      4401            0.0000000000
     35454      4593  TIP3      H1             22.7086096108       -6.2094936271       42.2373138655  TIP3      4401            0.0000000000
     35455      4593  TIP3      H2             23.9281245822       -5.8248645861       41.4056004124  TIP3      4401            0.0000000000
     35456      4594  TIP3      OH2            31.2203119178      -13.9233940209       52.0312309160  TIP3      4402            0.0000000000
     35457      4594  TIP3      H1             31.9723972676      -13.8561916076       52.6340889700  TIP3      4402            0.0000000000
     35458      4594  TIP3      H2             30.8571594362      -14.8049205247       52.2338385885  TIP3      4402            0.0000000000
     35459      4595  TIP3      OH2            32.0559969748      -14.3658911319       43.1044195176  TIP3      4403            0.0000000000
     35460      4595  TIP3      H1             32.2340037346      -13.8792822104       42.2780533160  TIP3      4403            0.0000000000
     35461      4595  TIP3      H2             32.6036807883      -13.8952629169       43.7457017636  TIP3      4403            0.0000000000
     35462      4596  TIP3      OH2            29.6848073169       -2.1871431662       41.9093786649  TIP3      4404            0.0000000000
     35463      4596  TIP3      H1             28.8671953339       -1.6554618440       41.9807906893  TIP3      4404            0.0000000000
     35464      4596  TIP3      H2             30.2241379195       -1.6372564646       41.3228561572  TIP3      4404            0.0000000000
     35465      4597  TIP3      OH2            29.2301944686      -12.5957212479       43.9246676527  TIP3      4405            0.0000000000
     35466      4597  TIP3      H1             30.0098851782      -12.0090068742       43.9722872559  TIP3      4405            0.0000000000
     35467      4597  TIP3      H2             28.9618390843      -12.7141751753       44.8552061980  TIP3      4405            0.0000000000
     35468      4598  TIP3      OH2            29.8081746027      -11.5641189580       53.1153135241  TIP3      4406            0.0000000000
     35469      4598  TIP3      H1             29.8901016647      -11.0061179235       53.9138470032  TIP3      4406            0.0000000000
     35470      4598  TIP3      H2             30.4579732642      -12.2753512971       53.2064379739  TIP3      4406            0.0000000000
     35471      4599  TIP3      OH2            30.0339154794      -15.5301560512       44.7865166660  TIP3      4407            0.0000000000
     35472      4599  TIP3      H1             29.7583485160      -14.8858223487       45.4572262097  TIP3      4407            0.0000000000
     35473      4599  TIP3      H2             30.7520566278      -15.0006172948       44.3602931676  TIP3      4407            0.0000000000
     35474      4600  TIP3      OH2            27.0786684320       -1.1545748010       41.9376929734  TIP3      4408            0.0000000000
     35475      4600  TIP3      H1             27.1784399480       -0.3397345776       41.3883184232  TIP3      4408            0.0000000000
     35476      4600  TIP3      H2             26.8119312453       -0.7893570088       42.8094124296  TIP3      4408            0.0000000000
     35477      4601  TIP3      OH2            25.7322524623      -14.4325413939       41.5172538457  TIP3      4409            0.0000000000
     35478      4601  TIP3      H1             25.6824614254      -13.5342333242       41.9017909524  TIP3      4409            0.0000000000
     35479      4601  TIP3      H2             26.6410803013      -14.6766188935       41.7803937228  TIP3      4409            0.0000000000
     35480      4602  TIP3      OH2            35.8363021884      -13.9280508847       53.7647798957  TIP3      4410            0.0000000000
     35481      4602  TIP3      H1             35.0017318324      -13.4007981017       53.8005800371  TIP3      4410            0.0000000000
     35482      4602  TIP3      H2             36.2316708376      -13.6439875226       52.9404242023  TIP3      4410            0.0000000000
     35483      4603  TIP3      OH2            34.5668911801       -9.9131497402       48.0132914879  TIP3      4411            0.0000000000
     35484      4603  TIP3      H1             33.7467713001      -10.3478211348       47.7014310868  TIP3      4411            0.0000000000
     35485      4603  TIP3      H2             34.9964343354      -10.6262677819       48.4950941677  TIP3      4411            0.0000000000
     35486      4604  TIP3      OH2            23.9641223110       -3.9909246494       40.5594444472  TIP3      4412            0.0000000000
     35487      4604  TIP3      H1             24.6328381685       -3.3652043223       40.8758393124  TIP3      4412            0.0000000000
     35488      4604  TIP3      H2             24.4848886436       -4.4550525945       39.8734846511  TIP3      4412            0.0000000000
     35489      4605  TIP3      OH2            22.3100420569      -11.3178128264       39.7031735035  TIP3      4413            0.0000000000
     35490      4605  TIP3      H1             22.3274090995      -10.3595746926       39.9112569260  TIP3      4413            0.0000000000
     35491      4605  TIP3      H2             21.4178956041      -11.4919867172       39.3961776032  TIP3      4413            0.0000000000
     35492      4606  TIP3      OH2            35.6984683822       -0.6235125820       49.6269278497  TIP3      4414            0.0000000000
     35493      4606  TIP3      H1             35.5425159970        0.0454031605       48.9344891335  TIP3      4414            0.0000000000
     35494      4606  TIP3      H2             36.6431699440       -0.5382121810       49.7895414678  TIP3      4414            0.0000000000
     35495      4607  TIP3      OH2            23.1265977158      -16.5325577845       48.4490253413  TIP3      4415            0.0000000000
     35496      4607  TIP3      H1             22.9319667759      -16.5140549255       47.4861202757  TIP3      4415            0.0000000000
     35497      4607  TIP3      H2             22.7124767482      -17.3852987727       48.6990821479  TIP3      4415            0.0000000000
     35498      4608  TIP3      OH2            22.0824987436       -2.6098083223       44.5950815760  TIP3      4416            0.0000000000
     35499      4608  TIP3      H1             21.2293651266       -2.1620222727       44.5469660624  TIP3      4416            0.0000000000
     35500      4608  TIP3      H2             22.5579183738       -2.1467709230       43.8921550119  TIP3      4416            0.0000000000
     35501      4609  TIP3      OH2            21.2821645381        0.0414369596       55.8761263331  TIP3      4417            0.0000000000
     35502      4609  TIP3      H1             21.8912306067       -0.1600158830       56.6128442955  TIP3      4417            0.0000000000
     35503      4609  TIP3      H2             20.8853985351       -0.8279722155       55.6933896661  TIP3      4417            0.0000000000
     35504      4610  TIP3      OH2            25.9688759893       -1.0434833926       57.4864156011  TIP3      4418            0.0000000000
     35505      4610  TIP3      H1             26.7262565096       -1.5425211292       57.8169724156  TIP3      4418            0.0000000000
     35506      4610  TIP3      H2             25.9411928124       -1.3186484350       56.5489461280  TIP3      4418            0.0000000000
     35507      4611  TIP3      OH2            30.1106981893       -1.5277813216       38.8821787315  TIP3      4419            0.0000000000
     35508      4611  TIP3      H1             29.4133925657       -2.1837063816       39.1119137191  TIP3      4419            0.0000000000
     35509      4611  TIP3      H2             30.8283782812       -2.1302761734       38.6402626822  TIP3      4419            0.0000000000
     35510      4612  TIP3      OH2            32.5282816558       -2.6709304981       56.2298648098  TIP3      4420            0.0000000000
     35511      4612  TIP3      H1             32.1778700664       -3.5408302451       56.5142486795  TIP3      4420            0.0000000000
     35512      4612  TIP3      H2             33.2809856142       -2.5632387069       56.8407293970  TIP3      4420            0.0000000000
     35513      4613  TIP3      OH2            34.6336609556       -1.7655369729       39.1220997044  TIP3      4421            0.0000000000
     35514      4613  TIP3      H1             34.9411412711       -2.5664214462       39.5733741815  TIP3      4421            0.0000000000
     35515      4613  TIP3      H2             35.3811005995       -1.5843012017       38.5217777796  TIP3      4421            0.0000000000
     35516      4614  TIP3      OH2            21.1959812040       -6.1872766174       56.8720279832  TIP3      4422            0.0000000000
     35517      4614  TIP3      H1             21.3630635772       -7.0987732253       56.5704140770  TIP3      4422            0.0000000000
     35518      4614  TIP3      H2             20.4563917157       -5.9297056196       56.2971273870  TIP3      4422            0.0000000000
     35519      4615  TIP3      OH2            25.5435439688       -5.8459390420       38.8874548390  TIP3      4423            0.0000000000
     35520      4615  TIP3      H1             25.6886113340       -6.6034443249       39.4768931834  TIP3      4423            0.0000000000
     35521      4615  TIP3      H2             26.2947438180       -5.9609188950       38.2725705027  TIP3      4423            0.0000000000
     35522      4616  TIP3      OH2            27.9147909999       -6.1974459709       56.2559398083  TIP3      4424            0.0000000000
     35523      4616  TIP3      H1             27.5785755202       -5.8858246577       55.3926775217  TIP3      4424            0.0000000000
     35524      4616  TIP3      H2             27.9883947404       -7.1749405323       56.1486582653  TIP3      4424            0.0000000000
     35525      4617  TIP3      OH2            30.9710375936       -4.7343416509       38.6678795716  TIP3      4425            0.0000000000
     35526      4617  TIP3      H1             30.6990271699       -4.6522053954       39.5955519205  TIP3      4425            0.0000000000
     35527      4617  TIP3      H2             30.7792555697       -5.6915813692       38.5236302349  TIP3      4425            0.0000000000
     35528      4618  TIP3      OH2            33.5789615136       -6.3784733376       53.6480584676  TIP3      4426            0.0000000000
     35529      4618  TIP3      H1             34.3715519239       -5.7834696535       53.5949129076  TIP3      4426            0.0000000000
     35530      4618  TIP3      H2             32.9085703424       -5.6873543113       53.6933571572  TIP3      4426            0.0000000000
     35531      4619  TIP3      OH2            22.1238642270       -8.9588679709       56.2537038036  TIP3      4427            0.0000000000
     35532      4619  TIP3      H1             22.5353897821       -9.8243400266       56.1611227941  TIP3      4427            0.0000000000
     35533      4619  TIP3      H2             21.8828838894       -8.9563541432       57.1941241106  TIP3      4427            0.0000000000
     35534      4620  TIP3      OH2            26.7601995356       -7.8282174926       41.3272503894  TIP3      4428            0.0000000000
     35535      4620  TIP3      H1             26.2460702504       -8.3652812697       41.9476806753  TIP3      4428            0.0000000000
     35536      4620  TIP3      H2             27.0497040884       -8.4988569912       40.6655945704  TIP3      4428            0.0000000000
     35537      4621  TIP3      OH2            26.0164720682      -10.0180917835       53.6049144088  TIP3      4429            0.0000000000
     35538      4621  TIP3      H1             25.4203212896       -9.2966669512       53.8618626738  TIP3      4429            0.0000000000
     35539      4621  TIP3      H2             26.4142716589       -9.6502416615       52.7974132681  TIP3      4429            0.0000000000
     35540      4622  TIP3      OH2            27.8200214418       -9.6000102047       39.5179345468  TIP3      4430            0.0000000000
     35541      4622  TIP3      H1             27.6727604354       -9.6923196411       38.5546496691  TIP3      4430            0.0000000000
     35542      4622  TIP3      H2             28.7976001765       -9.5495803900       39.5845739830  TIP3      4430            0.0000000000
     35543      4623  TIP3      OH2            31.0877895550       -7.4390499050       56.9455190318  TIP3      4431            0.0000000000
     35544      4623  TIP3      H1             32.0426444765       -7.4554830790       56.8225197228  TIP3      4431            0.0000000000
     35545      4623  TIP3      H2             30.9355857262       -8.2186890714       57.5040473664  TIP3      4431            0.0000000000
     35546      4624  TIP3      OH2            26.4362199641      -12.6370682132       54.6618827124  TIP3      4432            0.0000000000
     35547      4624  TIP3      H1             26.5402626231      -13.3485829294       54.0024911898  TIP3      4432            0.0000000000
     35548      4624  TIP3      H2             26.3791693638      -11.8280915860       54.1126782757  TIP3      4432            0.0000000000
     35549      4625  TIP3      OH2            26.8269371942      -14.2575202938       52.2172547841  TIP3      4433            0.0000000000
     35550      4625  TIP3      H1             27.3354635024      -13.7925244101       51.5103408122  TIP3      4433            0.0000000000
     35551      4625  TIP3      H2             25.9334797759      -14.3355284148       51.8111795765  TIP3      4433            0.0000000000
     35552      4626  TIP3      OH2            28.3651961684       -8.7657998081       52.4579576269  TIP3      4434            0.0000000000
     35553      4626  TIP3      H1             29.1198076148       -8.9330236279       51.8874188693  TIP3      4434            0.0000000000
     35554      4626  TIP3      H2             28.0054938555       -7.9305067305       52.1235362779  TIP3      4434            0.0000000000
     35555      4627  TIP3      OH2            32.8158913216      -10.9866482628       57.4324278380  TIP3      4435            0.0000000000
     35556      4627  TIP3      H1             33.0366572132      -11.9252908401       57.3193899217  TIP3      4435            0.0000000000
     35557      4627  TIP3      H2             33.6890606908      -10.5694269493       57.3915102441  TIP3      4435            0.0000000000
     35558      4628  TIP3      OH2            34.1237363612       -8.1770447597       55.5920005989  TIP3      4436            0.0000000000
     35559      4628  TIP3      H1             33.8283589233       -7.4941523975       54.9490381468  TIP3      4436            0.0000000000
     35560      4628  TIP3      H2             35.0528766580       -8.2911131912       55.3788827460  TIP3      4436            0.0000000000
     35561      4629  TIP3      OH2            24.8852484872      -11.3890714387       56.5826202965  TIP3      4437            0.0000000000
     35562      4629  TIP3      H1             24.1153760483      -11.9662418742       56.4151609015  TIP3      4437            0.0000000000
     35563      4629  TIP3      H2             25.5389853028      -11.7578414691       55.9611340351  TIP3      4437            0.0000000000
     35564      4630  TIP3      OH2            27.6171744358      -16.8217216873       52.6038025019  TIP3      4438            0.0000000000
     35565      4630  TIP3      H1             27.4340913682      -15.8580585819       52.5108357543  TIP3      4438            0.0000000000
     35566      4630  TIP3      H2             26.8668198320      -17.1872381800       52.1030406433  TIP3      4438            0.0000000000
     35567      4631  TIP3      OH2            28.8858450003      -12.4903073151       56.2349928913  TIP3      4439            0.0000000000
     35568      4631  TIP3      H1             28.5700211904      -12.7236150083       57.1293625172  TIP3      4439            0.0000000000
     35569      4631  TIP3      H2             28.1049668806      -12.6932224624       55.6919157446  TIP3      4439            0.0000000000
     35570      4632  TIP3      OH2            31.5615592867      -13.3217065428       55.3293889091  TIP3      4440            0.0000000000
     35571      4632  TIP3      H1             30.6001097573      -13.3039258997       55.4529125664  TIP3      4440            0.0000000000
     35572      4632  TIP3      H2             31.8842014802      -13.9720857647       55.9803776614  TIP3      4440            0.0000000000
     35573      4633  TIP3      OH2            33.2434000628      -14.7419081216       57.2439712031  TIP3      4441            0.0000000000
     35574      4633  TIP3      H1             33.1315189568      -15.7172375830       57.2491830962  TIP3      4441            0.0000000000
     35575      4633  TIP3      H2             32.9366073481      -14.4529117109       58.1241127292  TIP3      4441            0.0000000000
     35576      4634  TIP3      OH2            22.9626401593      -13.4530614826       56.3384193095  TIP3      4442            0.0000000000
     35577      4634  TIP3      H1             23.2125692904      -14.1889571280       55.7525571414  TIP3      4442            0.0000000000
     35578      4634  TIP3      H2             22.8731219330      -13.9000768758       57.2029237128  TIP3      4442            0.0000000000
     35579      4635  TIP3      OH2            27.8293660463      -17.4271677579       55.3056293083  TIP3      4443            0.0000000000
     35580      4635  TIP3      H1             28.5093175023      -18.1302966776       55.2889672418  TIP3      4443            0.0000000000
     35581      4635  TIP3      H2             27.7151739572      -17.2847159990       54.3454278238  TIP3      4443            0.0000000000
     35582      4636  TIP3      OH2            28.1923848325      -15.8140704285       57.4221438876  TIP3      4444            0.0000000000
     35583      4636  TIP3      H1             28.0183323950      -16.3201445731       56.5897716236  TIP3      4444            0.0000000000
     35584      4636  TIP3      H2             27.5921932659      -15.0500176391       57.3216974132  TIP3      4444            0.0000000000
     35585      4637  TIP3      OH2            27.6611509586        1.0984797059       40.5945803843  TIP3      4445            0.0000000000
     35586      4637  TIP3      H1             28.6280530268        1.1851969834       40.6626558698  TIP3      4445            0.0000000000
     35587      4637  TIP3      H2             27.5120667897        1.7010734239       39.8571722025  TIP3      4445            0.0000000000
     35588      4638  TIP3      OH2            21.2101968371       -4.3280703534       40.0651546375  TIP3      4446            0.0000000000
     35589      4638  TIP3      H1             22.1773413177       -4.2329579059       40.2452379003  TIP3      4446            0.0000000000
     35590      4638  TIP3      H2             21.2607336912       -4.9712983807       39.3183865020  TIP3      4446            0.0000000000
     35591      4639  TIP3      OH2            19.9914830738        1.0566865071       45.0292677899  TIP3      4447            0.0000000000
     35592      4639  TIP3      H1             19.2715540563        0.5705866456       44.5691370090  TIP3      4447            0.0000000000
     35593      4639  TIP3      H2             20.2724679539        0.4041125789       45.6955959832  TIP3      4447            0.0000000000
     35594      4640  TIP3      OH2            20.8238590932       -0.8035370491       46.9133008466  TIP3      4448            0.0000000000
     35595      4640  TIP3      H1             20.4633868677       -1.6821351003       47.1075503384  TIP3      4448            0.0000000000
     35596      4640  TIP3      H2             21.0549145455       -0.4777622414       47.7958580512  TIP3      4448            0.0000000000
     35597      4641  TIP3      OH2            36.2811755101       -2.7498442778       52.0847703312  TIP3      4449            0.0000000000
     35598      4641  TIP3      H1             35.6201194959       -2.3167616711       52.6430787731  TIP3      4449            0.0000000000
     35599      4641  TIP3      H2             35.7539507414       -3.1155670184       51.3508561352  TIP3      4449            0.0000000000
     35600      4642  TIP3      OH2            35.3656703308       -9.7455566284       45.4358636437  TIP3      4450            0.0000000000
     35601      4642  TIP3      H1             35.6207604204      -10.6726727328       45.4689970457  TIP3      4450            0.0000000000
     35602      4642  TIP3      H2             35.4817197578       -9.4960754980       46.3758427119  TIP3      4450            0.0000000000
     35603      4643  TIP3      OH2            20.8763309561       -7.7273271964       49.4013498891  TIP3      4451            0.0000000000
     35604      4643  TIP3      H1             21.0538502277       -7.8095520821       48.4379083305  TIP3      4451            0.0000000000
     35605      4643  TIP3      H2             21.7698053310       -7.9063622348       49.7541728738  TIP3      4451            0.0000000000
     35606      4644  TIP3      OH2            35.9492995879      -13.8022095503       38.8060514774  TIP3      4452            0.0000000000
     35607      4644  TIP3      H1             36.5364926934      -14.2196693584       39.4367723858  TIP3      4452            0.0000000000
     35608      4644  TIP3      H2             35.0866690276      -14.2105971639       38.9979444781  TIP3      4452            0.0000000000
     35609      4645  TIP3      OH2            35.5028826511      -12.2954406792       43.6355500921  TIP3      4453            0.0000000000
     35610      4645  TIP3      H1             35.7879305014      -13.1356261168       44.0393997504  TIP3      4453            0.0000000000
     35611      4645  TIP3      H2             36.3527810617      -11.9459023149       43.3424607536  TIP3      4453            0.0000000000
     35612      4646  TIP3      OH2           -37.0503626127      -12.5232382868       49.2427308469  TIP3      4454            0.0000000000
     35613      4646  TIP3      H1            -36.1638541982      -12.1727844384       49.1006782437  TIP3      4454            0.0000000000
     35614      4646  TIP3      H2            -37.2708814247      -11.8806505504       49.9382736128  TIP3      4454            0.0000000000
     35615      4647  TIP3      OH2            36.2594585277      -10.9081967001       52.2775740455  TIP3      4455            0.0000000000
     35616      4647  TIP3      H1             35.3240992194      -10.6416221139       52.3658817408  TIP3      4455            0.0000000000
     35617      4647  TIP3      H2             36.6200109544      -10.2219835613       51.6857294472  TIP3      4455            0.0000000000
     35618      4648  TIP3      OH2            20.5101118873      -12.4229572519       55.5744424494  TIP3      4456            0.0000000000
     35619      4648  TIP3      H1             21.4437624989      -12.6489782387       55.7518616635  TIP3      4456            0.0000000000
     35620      4648  TIP3      H2             20.0383880360      -13.2482460055       55.8273566993  TIP3      4456            0.0000000000
     35621      4649  TIP3      OH2            35.3091386324      -15.2506126506       44.4964404330  TIP3      4457            0.0000000000
     35622      4649  TIP3      H1             36.2408800148      -15.4266111364       44.7167936082  TIP3      4457            0.0000000000
     35623      4649  TIP3      H2             35.3268168589      -15.6730505042       43.6114738319  TIP3      4457            0.0000000000
     35624      4650  TIP3      OH2            21.6955850655      -14.1371001096       48.3995110340  TIP3      4458            0.0000000000
     35625      4650  TIP3      H1             22.1521033618      -14.9644979605       48.6601601743  TIP3      4458            0.0000000000
     35626      4650  TIP3      H2             22.2443473215      -13.4455057776       48.7935154241  TIP3      4458            0.0000000000
     35627      4651  TIP3      OH2            19.9749739350      -11.1342364989       49.4406629540  TIP3      4459            0.0000000000
     35628      4651  TIP3      H1             20.5378033909      -11.3868930346       48.6803251491  TIP3      4459            0.0000000000
     35629      4651  TIP3      H2             20.4440517528      -10.3316549153       49.7098722839  TIP3      4459            0.0000000000
     35630      4652  TIP3      OH2            20.3436368742      -14.8591635365       43.5249511864  TIP3      4460            0.0000000000
     35631      4652  TIP3      H1             19.3998941109      -14.7025720006       43.3593913554  TIP3      4460            0.0000000000
     35632      4652  TIP3      H2             20.7601999010      -14.3846551969       42.7870616849  TIP3      4460            0.0000000000
     35633      4653  TIP3      OH2            34.8895308470       -0.1097342803       45.5590364231  TIP3      4461            0.0000000000
     35634      4653  TIP3      H1             35.5640515611       -0.4355754872       44.9463900423  TIP3      4461            0.0000000000
     35635      4653  TIP3      H2             35.4125764155        0.4732986103       46.1351917235  TIP3      4461            0.0000000000
     35636      4654  TIP3      OH2            20.2905526702      -16.2321023873       51.8076230130  TIP3      4462            0.0000000000
     35637      4654  TIP3      H1             19.6209874732      -16.4178397336       52.4901472512  TIP3      4462            0.0000000000
     35638      4654  TIP3      H2             19.8363900658      -15.5537662896       51.2676427410  TIP3      4462            0.0000000000
     35639      4655  TIP3      OH2            22.5274052988       -3.0331266229       55.9720817860  TIP3      4463            0.0000000000
     35640      4655  TIP3      H1             21.6868251761       -2.8134727719       55.5365355388  TIP3      4463            0.0000000000
     35641      4655  TIP3      H2             22.2600074492       -3.1006817731       56.8920418683  TIP3      4463            0.0000000000
     35642      4656  TIP3      OH2            25.4333678371       -2.0170768625       52.2698507825  TIP3      4464            0.0000000000
     35643      4656  TIP3      H1             25.0872537805       -1.1698287460       51.9701562606  TIP3      4464            0.0000000000
     35644      4656  TIP3      H2             26.3566671377       -1.9456988218       51.9489908428  TIP3      4464            0.0000000000
     35645      4657  TIP3      OH2            29.7491643168       -0.5923743115       55.1500406410  TIP3      4465            0.0000000000
     35646      4657  TIP3      H1             29.8841811873       -0.9483768775       56.0591182902  TIP3      4465            0.0000000000
     35647      4657  TIP3      H2             30.6502845965       -0.2844879153       54.9071857813  TIP3      4465            0.0000000000
     35648      4658  TIP3      OH2            32.0572577592        0.6728939833       54.4703404083  TIP3      4466            0.0000000000
     35649      4658  TIP3      H1             32.7972577606        0.0975838359       54.2305636433  TIP3      4466            0.0000000000
     35650      4658  TIP3      H2             32.4401733663        1.1213863097       55.2557378790  TIP3      4466            0.0000000000
     35651      4659  TIP3      OH2            22.8807839198        1.2575285549       52.2553799300  TIP3      4467            0.0000000000
     35652      4659  TIP3      H1             22.1087171049        1.6965740756       51.8486712739  TIP3      4467            0.0000000000
     35653      4659  TIP3      H2             22.5366231542        1.0150666973       53.1322490655  TIP3      4467            0.0000000000
     35654      4660  TIP3      OH2            25.3039538093        0.7988094639       51.3256946346  TIP3      4468            0.0000000000
     35655      4660  TIP3      H1             24.3838308508        0.8580757842       51.6993409168  TIP3      4468            0.0000000000
     35656      4660  TIP3      H2             25.1693966417        1.2244231620       50.4543239622  TIP3      4468            0.0000000000
     35657      4661  TIP3      OH2            29.9509818458        0.6795162146       50.5180543601  TIP3      4469            0.0000000000
     35658      4661  TIP3      H1             29.5910478717        1.2581799566       49.8263660562  TIP3      4469            0.0000000000
     35659      4661  TIP3      H2             30.1906670834        1.3254111588       51.2150904673  TIP3      4469            0.0000000000
     35660      4662  TIP3      OH2            32.3036994012       -0.4836390950       51.5157524767  TIP3      4470            0.0000000000
     35661      4662  TIP3      H1             31.4502883040       -0.2092730993       51.1474979564  TIP3      4470            0.0000000000
     35662      4662  TIP3      H2             32.7828469669        0.3639136936       51.4431839451  TIP3      4470            0.0000000000
     35663      4663  TIP3      OH2            34.7593021881        1.0855225160       51.7253211733  TIP3      4471            0.0000000000
     35664      4663  TIP3      H1             34.7568932494        2.0361740592       51.5115894128  TIP3      4471            0.0000000000
     35665      4663  TIP3      H2             35.1042450403        0.7151186893       50.8923677914  TIP3      4471            0.0000000000
     35666      4664  TIP3      OH2            22.3374517973       -0.1005282199       49.2095215756  TIP3      4472            0.0000000000
     35667      4664  TIP3      H1             22.2126647341       -0.6064339236       50.0408391693  TIP3      4472            0.0000000000
     35668      4664  TIP3      H2             23.1163497736       -0.5280433057       48.7901147994  TIP3      4472            0.0000000000
     35669      4665  TIP3      OH2            24.3769492949       -1.4065093837       47.8611384897  TIP3      4473            0.0000000000
     35670      4665  TIP3      H1             24.2172144653       -2.3470446103       48.0700903230  TIP3      4473            0.0000000000
     35671      4665  TIP3      H2             25.2549556736       -1.2900153844       48.2714278812  TIP3      4473            0.0000000000
     35672      4666  TIP3      OH2            26.9561430784       -0.9319680004       48.7290093571  TIP3      4474            0.0000000000
     35673      4666  TIP3      H1             27.1407209349       -1.8479438805       48.4410554634  TIP3      4474            0.0000000000
     35674      4666  TIP3      H2             27.0423746291       -1.0335537556       49.6856965438  TIP3      4474            0.0000000000
     35675      4667  TIP3      OH2            30.4240681586      -15.2859282534       47.8584305498  TIP3      4475            0.0000000000
     35676      4667  TIP3      H1             29.7604917188      -15.9361788491       48.1385129077  TIP3      4475            0.0000000000
     35677      4667  TIP3      H2             30.9916601381      -15.8112153838       47.2788616405  TIP3      4475            0.0000000000
     35678      4668  TIP3      OH2            35.5904791891      -17.2486227831       47.9327404956  TIP3      4476            0.0000000000
     35679      4668  TIP3      H1             36.1682367534      -16.6238126647       47.4863122360  TIP3      4476            0.0000000000
     35680      4668  TIP3      H2             34.6985620300      -16.8902090609       47.7173830878  TIP3      4476            0.0000000000
     35681      4669  TIP3      OH2            22.8179039473      -16.6620232300       45.7033926972  TIP3      4477            0.0000000000
     35682      4669  TIP3      H1             22.0200903838      -16.8554144645       45.1747376334  TIP3      4477            0.0000000000
     35683      4669  TIP3      H2             23.2755463233      -17.5230822120       45.6429332754  TIP3      4477            0.0000000000
     35684      4670  TIP3      OH2            21.5824035691      -16.9091482036       41.4244958542  TIP3      4478            0.0000000000
     35685      4670  TIP3      H1             22.0750903648      -16.2587216106       40.8901060058  TIP3      4478            0.0000000000
     35686      4670  TIP3      H2             21.0152779613      -16.3334011844       41.9629691079  TIP3      4478            0.0000000000
     35687      4671  TIP3      OH2            27.2840360763      -16.7369548163       45.4883606762  TIP3      4479            0.0000000000
     35688      4671  TIP3      H1             28.1842798420      -16.3770917807       45.4153671859  TIP3      4479            0.0000000000
     35689      4671  TIP3      H2             27.2480583012      -16.9562650411       46.4182575607  TIP3      4479            0.0000000000
     35690      4672  TIP3      OH2            33.0207221194      -16.7608820548       47.1172155447  TIP3      4480            0.0000000000
     35691      4672  TIP3      H1             32.9634706206      -16.5789984237       46.1711108855  TIP3      4480            0.0000000000
     35692      4672  TIP3      H2             32.5880817209      -17.6420073471       47.2280682514  TIP3      4480            0.0000000000
     35693      4673  TIP3      OH2            34.2278419045      -16.7745143003       42.6806327616  TIP3      4481            0.0000000000
     35694      4673  TIP3      H1             33.5295034647      -16.1068074569       42.6354882045  TIP3      4481            0.0000000000
     35695      4673  TIP3      H2             33.7632452430      -17.5718560639       43.0068273068  TIP3      4481            0.0000000000
     35696      4674  TIP3      OH2            21.4968026971       -0.9596116577       42.4540532607  TIP3      4482            0.0000000000
     35697      4674  TIP3      H1             20.8399716391       -0.9736663863       41.7334246037  TIP3      4482            0.0000000000
     35698      4674  TIP3      H2             21.4939146353       -0.0047352599       42.6261965277  TIP3      4482            0.0000000000
     35699      4675  TIP3      OH2            23.4109015995      -14.9645267864       39.9364887834  TIP3      4483            0.0000000000
     35700      4675  TIP3      H1             23.9428248940      -15.5821703833       39.4081190922  TIP3      4483            0.0000000000
     35701      4675  TIP3      H2             24.0769158980      -14.6424018149       40.5713726661  TIP3      4483            0.0000000000
     35702      4676  TIP3      OH2            28.4388248398      -14.7212961925       42.3386705875  TIP3      4484            0.0000000000
     35703      4676  TIP3      H1             28.6892375872      -15.2978982881       43.0803109408  TIP3      4484            0.0000000000
     35704      4676  TIP3      H2             28.5073802991      -13.8553644587       42.7977087847  TIP3      4484            0.0000000000
     35705      4677  TIP3      OH2            30.3624415835        0.3482875819       40.7860742564  TIP3      4485            0.0000000000
     35706      4677  TIP3      H1             31.2819176997        0.5806517407       40.5681181529  TIP3      4485            0.0000000000
     35707      4677  TIP3      H2             30.1494964028       -0.1693370159       39.9828281790  TIP3      4485            0.0000000000
     35708      4678  TIP3      OH2            22.6993144449      -16.1195154336       55.1531509139  TIP3      4486            0.0000000000
     35709      4678  TIP3      H1             22.3085838323      -16.9162732365       55.5590690420  TIP3      4486            0.0000000000
     35710      4678  TIP3      H2             23.6088786373      -16.1611899339       55.5354083479  TIP3      4486            0.0000000000
     35711      4679  TIP3      OH2            24.7008893061      -16.7362875950       56.7978849019  TIP3      4487            0.0000000000
     35712      4679  TIP3      H1             25.5938949527      -17.0733534348       56.5809171801  TIP3      4487            0.0000000000
     35713      4679  TIP3      H2             24.3269704286      -17.5435501324       57.2006545592  TIP3      4487            0.0000000000
     35714      4680  TIP3      OH2            23.2910455921        0.0285173930       39.3957437931  TIP3      4488            0.0000000000
     35715      4680  TIP3      H1             23.0314453228        0.2851638530       40.2922183816  TIP3      4488            0.0000000000
     35716      4680  TIP3      H2             24.0740678430       -0.5358776180       39.5504302599  TIP3      4488            0.0000000000
     35717      4681  TIP3      OH2            33.1139322954      -17.4233600116       56.9333387669  TIP3      4489            0.0000000000
     35718      4681  TIP3      H1             33.2191139028      -17.9044718685       57.7796745705  TIP3      4489            0.0000000000
     35719      4681  TIP3      H2             34.0396290983      -17.4501170578       56.5935798527  TIP3      4489            0.0000000000
     35720      4682  TIP3      OH2            36.0977990844       -1.5181506262       55.7180177986  TIP3      4490            0.0000000000
     35721      4682  TIP3      H1             35.4527864251       -1.5760835985       54.9817543967  TIP3      4490            0.0000000000
     35722      4682  TIP3      H2             36.1226342766       -0.5357656940       55.8021060728  TIP3      4490            0.0000000000
     35723      4683  TIP3      OH2           -24.6603912083       11.3360350708       45.5482198049  TIP3      4491            0.0000000000
     35724      4683  TIP3      H1            -24.6825550557       12.3162230582       45.5332376669  TIP3      4491            0.0000000000
     35725      4683  TIP3      H2            -25.3952482227       11.1010650204       44.9574098144  TIP3      4491            0.0000000000
     35726      4684  TIP3      OH2           -25.8141546543       10.5859663521       49.0609902392  TIP3      4492            0.0000000000
     35727      4684  TIP3      H1            -25.8231753936        9.9390666588       49.7785154888  TIP3      4492            0.0000000000
     35728      4684  TIP3      H2            -26.1605441511       10.0785850469       48.3081967531  TIP3      4492            0.0000000000
     35729      4685  TIP3      OH2           -33.4021474351       10.2507073983       50.5755519061  TIP3      4493            0.0000000000
     35730      4685  TIP3      H1            -33.3472668176        9.5796394501       51.2894999304  TIP3      4493            0.0000000000
     35731      4685  TIP3      H2            -32.7041093549       10.8594877994       50.8548514318  TIP3      4493            0.0000000000
     35732      4686  TIP3      OH2           -22.1258266803       13.5388726257       47.3449347686  TIP3      4494            0.0000000000
     35733      4686  TIP3      H1            -22.5381949821       12.8212434267       47.8361871257  TIP3      4494            0.0000000000
     35734      4686  TIP3      H2            -22.1000560120       14.2461651998       48.0161428994  TIP3      4494            0.0000000000
     35735      4687  TIP3      OH2           -32.5386520669       14.6897271055       49.1411701822  TIP3      4495            0.0000000000
     35736      4687  TIP3      H1            -32.8500901615       13.8363787377       48.7851417708  TIP3      4495            0.0000000000
     35737      4687  TIP3      H2            -31.5778649488       14.5305687417       49.1531575208  TIP3      4495            0.0000000000
     35738      4688  TIP3      OH2           -35.6218006033        8.2653502452       44.1868024947  TIP3      4496            0.0000000000
     35739      4688  TIP3      H1            -36.0666238115        9.0612282328       44.5635950818  TIP3      4496            0.0000000000
     35740      4688  TIP3      H2            -36.4133512191        7.7319947289       44.1861713654  TIP3      4496            0.0000000000
     35741      4689  TIP3      OH2           -35.2190270271       10.4242815172       46.7026689929  TIP3      4497            0.0000000000
     35742      4689  TIP3      H1            -34.9170675865        9.6683418205       47.2280108546  TIP3      4497            0.0000000000
     35743      4689  TIP3      H2            -34.4802628257       10.6008990317       46.1034437916  TIP3      4497            0.0000000000
     35744      4690  TIP3      OH2           -24.9985286925       18.7016314580       47.5870206306  TIP3      4498            0.0000000000
     35745      4690  TIP3      H1            -24.3555737770       18.0105709870       47.2960967419  TIP3      4498            0.0000000000
     35746      4690  TIP3      H2            -25.2237187441       18.3623137796       48.4541450958  TIP3      4498            0.0000000000
     35747      4691  TIP3      OH2           -27.4363729119       12.9880109765       49.5347197145  TIP3      4499            0.0000000000
     35748      4691  TIP3      H1            -27.0980944334       12.3619859515       48.8754006028  TIP3      4499            0.0000000000
     35749      4691  TIP3      H2            -26.6250209727       13.1465635631       50.0484750794  TIP3      4499            0.0000000000
     35750      4692  TIP3      OH2           -18.8423246444        4.6533098265       50.2553956138  TIP3      4500            0.0000000000
     35751      4692  TIP3      H1            -18.6625157941        5.2376708882       51.0231991602  TIP3      4500            0.0000000000
     35752      4692  TIP3      H2            -18.2709918110        5.0716254247       49.5953571922  TIP3      4500            0.0000000000
     35753      4693  TIP3      OH2           -24.2681899202        7.4580363914       49.8472970950  TIP3      4501            0.0000000000
     35754      4693  TIP3      H1            -24.1004835308        6.4991627755       49.8522300999  TIP3      4501            0.0000000000
     35755      4693  TIP3      H2            -24.3709341573        7.5980778329       48.8861144981  TIP3      4501            0.0000000000
     35756      4694  TIP3      OH2           -31.1522835381        5.5486338819       47.0694867874  TIP3      4502            0.0000000000
     35757      4694  TIP3      H1            -31.0372428858        6.3765413791       46.5681965277  TIP3      4502            0.0000000000
     35758      4694  TIP3      H2            -31.5345438735        4.9714001071       46.3740028482  TIP3      4502            0.0000000000
     35759      4695  TIP3      OH2           -23.4185802117        5.6222651879       45.4339606965  TIP3      4503            0.0000000000
     35760      4695  TIP3      H1            -22.7668801609        5.3099974609       46.1035025490  TIP3      4503            0.0000000000
     35761      4695  TIP3      H2            -22.8551194820        6.2037613574       44.9028531264  TIP3      4503            0.0000000000
     35762      4696  TIP3      OH2           -34.5634208443        7.8723644746       47.7384853203  TIP3      4504            0.0000000000
     35763      4696  TIP3      H1            -33.8356759800        7.4058920758       48.2015678210  TIP3      4504            0.0000000000
     35764      4696  TIP3      H2            -34.3819968738        7.5959676905       46.8305450997  TIP3      4504            0.0000000000
     35765      4697  TIP3      OH2           -29.3779724369        9.5115121782       47.1160157365  TIP3      4505            0.0000000000
     35766      4697  TIP3      H1            -28.7015025174        8.9329508977       47.5103779287  TIP3      4505            0.0000000000
     35767      4697  TIP3      H2            -29.8897960820        8.8520901313       46.6083590542  TIP3      4505            0.0000000000
     35768      4698  TIP3      OH2           -18.4009710751        6.0548313885       52.5343207037  TIP3      4506            0.0000000000
     35769      4698  TIP3      H1            -19.0048541934        6.8220966193       52.4229926306  TIP3      4506            0.0000000000
     35770      4698  TIP3      H2            -18.3651458731        5.9746936727       53.4941984242  TIP3      4506            0.0000000000
     35771      4699  TIP3      OH2           -32.2038833784        4.4479577783       51.0965208190  TIP3      4507            0.0000000000
     35772      4699  TIP3      H1            -32.5140475676        5.0160884137       50.3603019344  TIP3      4507            0.0000000000
     35773      4699  TIP3      H2            -32.8883008277        4.6690314850       51.7774018108  TIP3      4507            0.0000000000
     35774      4700  TIP3      OH2           -24.9594438318       13.9356983434       44.6469937328  TIP3      4508            0.0000000000
     35775      4700  TIP3      H1            -25.2203922204       13.6547297378       43.7607643095  TIP3      4508            0.0000000000
     35776      4700  TIP3      H2            -25.2682158116       14.8666689625       44.6959579024  TIP3      4508            0.0000000000
     35777      4701  TIP3      OH2           -29.7076981122       12.0897367699       51.3406395080  TIP3      4509            0.0000000000
     35778      4701  TIP3      H1            -30.4263221129       12.7239802044       51.5593644721  TIP3      4509            0.0000000000
     35779      4701  TIP3      H2            -29.0135497797       12.6958898900       51.0465678242  TIP3      4509            0.0000000000
     35780      4702  TIP3      OH2           -21.6041358392        4.9746215949       47.4245851353  TIP3      4510            0.0000000000
     35781      4702  TIP3      H1            -21.8257173116        4.2053101626       47.9571243381  TIP3      4510            0.0000000000
     35782      4702  TIP3      H2            -20.9339958988        5.4097261573       47.9788903757  TIP3      4510            0.0000000000
     35783      4703  TIP3      OH2           -32.6998301672        6.2834950406       49.1362051016  TIP3      4511            0.0000000000
     35784      4703  TIP3      H1            -32.0814356304        6.9809082766       49.4600853007  TIP3      4511            0.0000000000
     35785      4703  TIP3      H2            -32.1529646853        5.8966607527       48.4022830269  TIP3      4511            0.0000000000
     35786      4704  TIP3      OH2           -31.2954587944       14.0772048891       52.1462106985  TIP3      4512            0.0000000000
     35787      4704  TIP3      H1            -31.3382160701       14.9999557587       51.8241563326  TIP3      4512            0.0000000000
     35788      4704  TIP3      H2            -32.1749298713       14.0011119186       52.5896516925  TIP3      4512            0.0000000000
     35789      4705  TIP3      OH2           -35.2394319213       13.7398557088       42.9067693264  TIP3      4513            0.0000000000
     35790      4705  TIP3      H1            -35.4400196859       14.0751783672       42.0185084443  TIP3      4513            0.0000000000
     35791      4705  TIP3      H2            -35.1269264446       14.5472122194       43.4412385251  TIP3      4513            0.0000000000
     35792      4706  TIP3      OH2           -21.5964023951       15.3763770840       49.7127190684  TIP3      4514            0.0000000000
     35793      4706  TIP3      H1            -22.5649546692       15.4884413343       49.8332335067  TIP3      4514            0.0000000000
     35794      4706  TIP3      H2            -21.3268249153       16.2920887218       49.5095875918  TIP3      4514            0.0000000000
     35795      4707  TIP3      OH2           -21.2736350344        3.6580750215       51.1013385590  TIP3      4515            0.0000000000
     35796      4707  TIP3      H1            -21.9970715727        4.2919212758       51.0086568644  TIP3      4515            0.0000000000
     35797      4707  TIP3      H2            -20.5590843844        4.0770331439       50.5788389837  TIP3      4515            0.0000000000
     35798      4708  TIP3      OH2           -28.3047421640        1.7861419560       48.5609278449  TIP3      4516            0.0000000000
     35799      4708  TIP3      H1            -28.4374462798        0.8209498944       48.4912385038  TIP3      4516            0.0000000000
     35800      4708  TIP3      H2            -29.1847623954        2.0848859288       48.8730528269  TIP3      4516            0.0000000000
     35801      4709  TIP3      OH2           -23.3377151602       17.1617022545       46.2967770311  TIP3      4517            0.0000000000
     35802      4709  TIP3      H1            -22.9070743722       16.4402161949       45.7917990354  TIP3      4517            0.0000000000
     35803      4709  TIP3      H2            -22.9097857002       17.9507645394       45.8968707585  TIP3      4517            0.0000000000
     35804      4710  TIP3      OH2           -22.1377102212       15.0915584049       44.8235831622  TIP3      4518            0.0000000000
     35805      4710  TIP3      H1            -22.4145704646       14.3885969234       44.2145535384  TIP3      4518            0.0000000000
     35806      4710  TIP3      H2            -22.0898692522       14.5961304910       45.6614624795  TIP3      4518            0.0000000000
     35807      4711  TIP3      OH2           -20.5101068543       13.6844274758       53.3123582697  TIP3      4519            0.0000000000
     35808      4711  TIP3      H1            -20.3610108854       13.0291727948       52.5948929814  TIP3      4519            0.0000000000
     35809      4711  TIP3      H2            -20.3013437353       14.5253721467       52.8669680906  TIP3      4519            0.0000000000
     35810      4712  TIP3      OH2           -26.0092650556       10.5670645366       43.0729559501  TIP3      4520            0.0000000000
     35811      4712  TIP3      H1            -26.7037023674       11.1470271542       42.7130273476  TIP3      4520            0.0000000000
     35812      4712  TIP3      H2            -25.2989888780       10.6653784580       42.4123875666  TIP3      4520            0.0000000000
     35813      4713  TIP3      OH2           -25.9284274974        9.1398980823       40.0841412594  TIP3      4521            0.0000000000
     35814      4713  TIP3      H1            -25.2239596467        9.1210739381       40.7495311529  TIP3      4521            0.0000000000
     35815      4713  TIP3      H2            -25.6227632572        8.4214707739       39.5155713863  TIP3      4521            0.0000000000
     35816      4714  TIP3      OH2           -18.6203729662        9.9951401996       51.3563933310  TIP3      4522            0.0000000000
     35817      4714  TIP3      H1            -19.2776510471       10.7184405505       51.3945946018  TIP3      4522            0.0000000000
     35818      4714  TIP3      H2            -18.1243780370       10.2273351724       50.5498289837  TIP3      4522            0.0000000000
     35819      4715  TIP3      OH2           -22.5534378825       10.7769248382       43.9935555662  TIP3      4523            0.0000000000
     35820      4715  TIP3      H1            -23.2989980138       11.0231354628       44.5921258735  TIP3      4523            0.0000000000
     35821      4715  TIP3      H2            -22.0850059728       10.1039147469       44.5187235520  TIP3      4523            0.0000000000
     35822      4716  TIP3      OH2           -22.6322274713        8.9470394232       53.1230491043  TIP3      4524            0.0000000000
     35823      4716  TIP3      H1            -22.6251271407        9.7669709612       53.6444553149  TIP3      4524            0.0000000000
     35824      4716  TIP3      H2            -23.2617508825        9.2384662366       52.4308835668  TIP3      4524            0.0000000000
     35825      4717  TIP3      OH2           -30.9300722396       11.4497084441       45.9174592491  TIP3      4525            0.0000000000
     35826      4717  TIP3      H1            -31.2829221836       11.0480100328       45.0863748283  TIP3      4525            0.0000000000
     35827      4717  TIP3      H2            -30.3279769544       10.7475951596       46.2483535239  TIP3      4525            0.0000000000
     35828      4718  TIP3      OH2           -29.6376147836       14.8240969794       48.5885928323  TIP3      4526            0.0000000000
     35829      4718  TIP3      H1            -29.6296215134       14.2952136288       47.7814682822  TIP3      4526            0.0000000000
     35830      4718  TIP3      H2            -28.8545060069       14.4836597792       49.0587190169  TIP3      4526            0.0000000000
     35831      4719  TIP3      OH2           -30.5904511830       10.1809658785       49.5757295893  TIP3      4527            0.0000000000
     35832      4719  TIP3      H1            -30.0576749824       10.2943105745       48.7673399576  TIP3      4527            0.0000000000
     35833      4719  TIP3      H2            -30.2316090010       10.8630167422       50.1869416133  TIP3      4527            0.0000000000
     35834      4720  TIP3      OH2           -24.1976964382       15.7590753932       50.2874708193  TIP3      4528            0.0000000000
     35835      4720  TIP3      H1            -24.4889920466       16.3959219530       50.9473838178  TIP3      4528            0.0000000000
     35836      4720  TIP3      H2            -24.4649304851       14.9062499346       50.7054466981  TIP3      4528            0.0000000000
     35837      4721  TIP3      OH2           -29.6657167420       14.6141998060       54.2689478104  TIP3      4529            0.0000000000
     35838      4721  TIP3      H1            -30.0857598305       15.3531873755       54.7591367413  TIP3      4529            0.0000000000
     35839      4721  TIP3      H2            -30.3377963301       14.4194442668       53.5719094699  TIP3      4529            0.0000000000
     35840      4722  TIP3      OH2           -23.6835589125        9.9856483337       41.6615447140  TIP3      4530            0.0000000000
     35841      4722  TIP3      H1            -23.1274210488       10.1584331338       42.4618920644  TIP3      4530            0.0000000000
     35842      4722  TIP3      H2            -23.2325847047       10.4796403455       40.9402087796  TIP3      4530            0.0000000000
     35843      4723  TIP3      OH2           -32.7309982627       10.7890152902       53.4517099175  TIP3      4531            0.0000000000
     35844      4723  TIP3      H1            -32.6843227773       11.4715173458       54.1437464559  TIP3      4531            0.0000000000
     35845      4723  TIP3      H2            -33.6702972570       10.8766390382       53.2176063641  TIP3      4531            0.0000000000
     35846      4724  TIP3      OH2           -25.9931662874       16.7112298956       45.1310523014  TIP3      4532            0.0000000000
     35847      4724  TIP3      H1            -25.5446126999       17.0072811624       45.9334150153  TIP3      4532            0.0000000000
     35848      4724  TIP3      H2            -26.5241432154       17.4735813646       44.9049623896  TIP3      4532            0.0000000000
     35849      4725  TIP3      OH2           -31.4118478886       16.5930169442       55.0276823752  TIP3      4533            0.0000000000
     35850      4725  TIP3      H1            -31.4959232580       16.5826594237       54.0538913264  TIP3      4533            0.0000000000
     35851      4725  TIP3      H2            -32.3558684583       16.5366504086       55.2745985174  TIP3      4533            0.0000000000
     35852      4726  TIP3      OH2           -19.9618172864        1.7132856698       41.5677072918  TIP3      4534            0.0000000000
     35853      4726  TIP3      H1            -20.9082678135        1.8301487146       41.8068027152  TIP3      4534            0.0000000000
     35854      4726  TIP3      H2            -19.7565134371        2.5540828396       41.1236056143  TIP3      4534            0.0000000000
     35855      4727  TIP3      OH2           -31.9676207917       10.4547919547       43.5432723590  TIP3      4535            0.0000000000
     35856      4727  TIP3      H1            -32.2533877512       11.2364104372       43.0272383598  TIP3      4535            0.0000000000
     35857      4727  TIP3      H2            -32.6219784515        9.7937985743       43.3059963473  TIP3      4535            0.0000000000
     35858      4728  TIP3      OH2           -18.8656523947       16.0890069503       39.8946885282  TIP3      4536            0.0000000000
     35859      4728  TIP3      H1            -18.6826061986       17.0231993088       40.0857072943  TIP3      4536            0.0000000000
     35860      4728  TIP3      H2            -17.9430809488       15.7583177677       39.9091988332  TIP3      4536            0.0000000000
     35861      4729  TIP3      OH2           -35.2945178435       12.7533315384       52.1748102465  TIP3      4537            0.0000000000
     35862      4729  TIP3      H1            -36.0659317164       12.8861131154       51.5827441093  TIP3      4537            0.0000000000
     35863      4729  TIP3      H2            -35.6700631714       11.9706173944       52.6375197868  TIP3      4537            0.0000000000
     35864      4730  TIP3      OH2           -35.8271763091       15.8617184108       48.9272403339  TIP3      4538            0.0000000000
     35865      4730  TIP3      H1            -34.9934815184       15.4802895350       49.2176599815  TIP3      4538            0.0000000000
     35866      4730  TIP3      H2            -36.0958978808       16.3437529702       49.7241860228  TIP3      4538            0.0000000000
     35867      4731  TIP3      OH2           -17.8901235736       16.3329569543       54.8967022030  TIP3      4539            0.0000000000
     35868      4731  TIP3      H1            -18.0089309870       15.3740942001       54.8667360291  TIP3      4539            0.0000000000
     35869      4731  TIP3      H2            -18.7643291380       16.5813223094       55.2800840914  TIP3      4539            0.0000000000
     35870      4732  TIP3      OH2           -26.9357544557       15.8719028407       53.7574292981  TIP3      4540            0.0000000000
     35871      4732  TIP3      H1            -26.8745385756       16.7140153942       54.2663728331  TIP3      4540            0.0000000000
     35872      4732  TIP3      H2            -27.8114594898       15.5159132023       54.0033570693  TIP3      4540            0.0000000000
     35873      4733  TIP3      OH2           -26.5767252971       19.6231623046       43.5463438926  TIP3      4541            0.0000000000
     35874      4733  TIP3      H1            -26.5420309313       19.5465590446       42.5701582008  TIP3      4541            0.0000000000
     35875      4733  TIP3      H2            -26.4479706316       20.5798147479       43.6959929556  TIP3      4541            0.0000000000
     35876      4734  TIP3      OH2           -32.8403620343       18.4888289134       45.3359174767  TIP3      4542            0.0000000000
     35877      4734  TIP3      H1            -32.7239795997       18.0982041756       46.2370996663  TIP3      4542            0.0000000000
     35878      4734  TIP3      H2            -33.6979316236       18.0716149100       45.1298835113  TIP3      4542            0.0000000000
     35879      4735  TIP3      OH2           -23.3719315839       18.8602537718       40.5394198577  TIP3      4543            0.0000000000
     35880      4735  TIP3      H1            -22.9986109044       18.0746062926       40.0881877897  TIP3      4543            0.0000000000
     35881      4735  TIP3      H2            -23.4242274331       18.5681376478       41.4715095070  TIP3      4543            0.0000000000
     35882      4736  TIP3      OH2           -23.7298825582       18.7610693044       43.3288753964  TIP3      4544            0.0000000000
     35883      4736  TIP3      H1            -24.6918031233       18.8323051094       43.4547389332  TIP3      4544            0.0000000000
     35884      4736  TIP3      H2            -23.5112966030       18.0077810048       43.8954455473  TIP3      4544            0.0000000000
     35885      4737  TIP3      OH2           -20.7446961586        7.7996246342       55.3631912984  TIP3      4545            0.0000000000
     35886      4737  TIP3      H1            -21.2203483077        8.2505441704       54.6466098365  TIP3      4545            0.0000000000
     35887      4737  TIP3      H2            -20.7595191967        6.8802348350       55.0579574254  TIP3      4545            0.0000000000
     35888      4738  TIP3      OH2           -33.5864646794       14.2907298850       53.4352839877  TIP3      4546            0.0000000000
     35889      4738  TIP3      H1            -33.4055236080       13.8429794878       54.2843101246  TIP3      4546            0.0000000000
     35890      4738  TIP3      H2            -34.4166562977       13.8492827986       53.1487708634  TIP3      4546            0.0000000000
     35891      4739  TIP3      OH2           -30.9165061704        2.6933979186       49.3173868268  TIP3      4547            0.0000000000
     35892      4739  TIP3      H1            -31.8180687457        2.5693550973       48.9466251353  TIP3      4547            0.0000000000
     35893      4739  TIP3      H2            -31.0571054366        3.5189402910       49.8090213345  TIP3      4547            0.0000000000
     35894      4740  TIP3      OH2           -26.2801098257        2.3482452379       52.6780192785  TIP3      4548            0.0000000000
     35895      4740  TIP3      H1            -25.8873786106        1.9271732949       53.4654763497  TIP3      4548            0.0000000000
     35896      4740  TIP3      H2            -27.2521437271        2.2332583638       52.8253349329  TIP3      4548            0.0000000000
     35897      4741  TIP3      OH2           -22.9926106010        6.1971754668       53.5813505446  TIP3      4549            0.0000000000
     35898      4741  TIP3      H1            -23.5580505857        5.9821300623       54.3621597484  TIP3      4549            0.0000000000
     35899      4741  TIP3      H2            -23.1778029964        7.1241365818       53.3522022938  TIP3      4549            0.0000000000
     35900      4742  TIP3      OH2           -22.2450250584       11.0211794133       39.4829042907  TIP3      4550            0.0000000000
     35901      4742  TIP3      H1            -22.2630035475       10.8273305002       38.5177562079  TIP3      4550            0.0000000000
     35902      4742  TIP3      H2            -21.3878808378       11.4637392811       39.5390484218  TIP3      4550            0.0000000000
     35903      4743  TIP3      OH2           -26.6402049496        4.9373583923       39.9871817424  TIP3      4551            0.0000000000
     35904      4743  TIP3      H1            -26.9588371762        4.8756064547       40.9059305456  TIP3      4551            0.0000000000
     35905      4743  TIP3      H2            -26.9482505246        4.0599022269       39.6814401850  TIP3      4551            0.0000000000
     35906      4744  TIP3      OH2           -30.8373484189        7.6574250697       50.5675120409  TIP3      4552            0.0000000000
     35907      4744  TIP3      H1            -31.5638296068        7.6565338718       51.2209100698  TIP3      4552            0.0000000000
     35908      4744  TIP3      H2            -30.8567905357        8.5692243823       50.2017445144  TIP3      4552            0.0000000000
     35909      4745  TIP3      OH2           -30.8409347812        7.7803705365       45.4345789629  TIP3      4553            0.0000000000
     35910      4745  TIP3      H1            -31.7806003031        7.5328539899       45.2951579299  TIP3      4553            0.0000000000
     35911      4745  TIP3      H2            -30.4678888480        7.4806892954       44.5839787486  TIP3      4553            0.0000000000
     35912      4746  TIP3      OH2           -25.3428557349        8.2782001810       44.2143097900  TIP3      4554            0.0000000000
     35913      4746  TIP3      H1            -25.7365295094        9.1013452023       43.8419178610  TIP3      4554            0.0000000000
     35914      4746  TIP3      H2            -24.6559297052        8.1075580088       43.5480911231  TIP3      4554            0.0000000000
     35915      4747  TIP3      OH2           -26.2880906287        8.4859654165       55.6420962257  TIP3      4555            0.0000000000
     35916      4747  TIP3      H1            -26.8133737420        7.7101344944       55.9529415068  TIP3      4555            0.0000000000
     35917      4747  TIP3      H2            -25.4501548749        8.3649571767       56.1188892727  TIP3      4555            0.0000000000
     35918      4748  TIP3      OH2           -24.3065709993        7.7693456836       47.0504631149  TIP3      4556            0.0000000000
     35919      4748  TIP3      H1            -24.5921850637        8.3306677039       46.3105756554  TIP3      4556            0.0000000000
     35920      4748  TIP3      H2            -24.2129944110        6.9180948905       46.5824374410  TIP3      4556            0.0000000000
     35921      4749  TIP3      OH2           -33.1843558828        7.8912116305       52.2532653273  TIP3      4557            0.0000000000
     35922      4749  TIP3      H1            -33.1672733306        8.3142246508       53.1269520863  TIP3      4557            0.0000000000
     35923      4749  TIP3      H2            -33.6733750766        7.0781965372       52.4470411175  TIP3      4557            0.0000000000
     35924      4750  TIP3      OH2           -29.8281125526        5.3053397526       39.1023993299  TIP3      4558            0.0000000000
     35925      4750  TIP3      H1            -30.2768947204        4.8828888717       39.8621731251  TIP3      4558            0.0000000000
     35926      4750  TIP3      H2            -30.5415170324        5.7335458012       38.6136149964  TIP3      4558            0.0000000000
     35927      4751  TIP3      OH2           -36.1630136923        5.3405123036       46.0477660018  TIP3      4559            0.0000000000
     35928      4751  TIP3      H1            -35.8333308116        4.9914516951       46.9037214370  TIP3      4559            0.0000000000
     35929      4751  TIP3      H2            -36.0311204376        4.5831731735       45.4785136319  TIP3      4559            0.0000000000
     35930      4752  TIP3      OH2           -35.2902541700        5.8827546126       41.5615297113  TIP3      4560            0.0000000000
     35931      4752  TIP3      H1            -34.7323717664        6.4382324037       40.9786912447  TIP3      4560            0.0000000000
     35932      4752  TIP3      H2            -36.0172947747        6.4434750285       41.8051348506  TIP3      4560            0.0000000000
     35933      4753  TIP3      OH2           -25.1119435762        9.3494438956       51.6040651947  TIP3      4561            0.0000000000
     35934      4753  TIP3      H1            -24.7301426659        8.6632442256       51.0199648481  TIP3      4561            0.0000000000
     35935      4753  TIP3      H2            -25.5784174109        8.8221368417       52.2770438612  TIP3      4561            0.0000000000
     35936      4754  TIP3      OH2           -28.3079560838        5.3322035813       46.4409491966  TIP3      4562            0.0000000000
     35937      4754  TIP3      H1            -29.2415099669        5.3318686691       46.7348047972  TIP3      4562            0.0000000000
     35938      4754  TIP3      H2            -27.8258566846        5.1571377180       47.2635134940  TIP3      4562            0.0000000000
     35939      4755  TIP3      OH2           -33.4854029832        6.8705500235       45.3042589337  TIP3      4563            0.0000000000
     35940      4755  TIP3      H1            -34.3564478625        7.0472665394       44.9059890117  TIP3      4563            0.0000000000
     35941      4755  TIP3      H2            -33.2481237602        6.0226634738       44.8889089765  TIP3      4563            0.0000000000
     35942      4756  TIP3      OH2           -29.8575513484        6.9232930032       42.9366137076  TIP3      4564            0.0000000000
     35943      4756  TIP3      H1            -28.9010801655        7.0390931757       43.0935668132  TIP3      4564            0.0000000000
     35944      4756  TIP3      H2            -30.1090616688        7.6098335033       42.2893244638  TIP3      4564            0.0000000000
     35945      4757  TIP3      OH2           -23.9028465091        4.5626701644       49.6787653329  TIP3      4565            0.0000000000
     35946      4757  TIP3      H1            -24.5857555648        4.6117443830       50.3858869421  TIP3      4565            0.0000000000
     35947      4757  TIP3      H2            -24.4127076341        4.3069981148       48.8976512038  TIP3      4565            0.0000000000
     35948      4758  TIP3      OH2           -31.1364451429        8.0935771149       40.5128733685  TIP3      4566            0.0000000000
     35949      4758  TIP3      H1            -31.6764101277        7.7314962976       39.7921739839  TIP3      4566            0.0000000000
     35950      4758  TIP3      H2            -30.3155290408        8.3125722019       40.0458285635  TIP3      4566            0.0000000000
     35951      4759  TIP3      OH2           -20.7027143381       20.2037767791       56.0066871655  TIP3      4567            0.0000000000
     35952      4759  TIP3      H1            -20.4360584930       20.5878633218       55.1524398938  TIP3      4567            0.0000000000
     35953      4759  TIP3      H2            -19.9786843361       20.5240469561       56.5655156306  TIP3      4567            0.0000000000
     35954      4760  TIP3      OH2           -33.0485724689       12.6595106659       55.5887698702  TIP3      4568            0.0000000000
     35955      4760  TIP3      H1            -32.3062247054       12.9078736212       56.1741777513  TIP3      4568            0.0000000000
     35956      4760  TIP3      H2            -33.7961598128       12.7741542863       56.1990002417  TIP3      4568            0.0000000000
     35957      4761  TIP3      OH2           -27.0330097541        8.0815548775       48.3327243443  TIP3      4569            0.0000000000
     35958      4761  TIP3      H1            -26.4266771969        7.5527740382       47.8006646325  TIP3      4569            0.0000000000
     35959      4761  TIP3      H2            -27.1711063456        7.5339711399       49.1174082061  TIP3      4569            0.0000000000
     35960      4762  TIP3      OH2           -32.0262784593        4.2390095304       44.7646845157  TIP3      4570            0.0000000000
     35961      4762  TIP3      H1            -32.3360139363        3.3172652582       44.7646326285  TIP3      4570            0.0000000000
     35962      4762  TIP3      H2            -31.2281952582        4.1573884083       44.2279710019  TIP3      4570            0.0000000000
     35963      4763  TIP3      OH2           -28.3877599998        6.4109839791       50.7474541516  TIP3      4571            0.0000000000
     35964      4763  TIP3      H1            -29.2125483578        6.9297446660       50.8365931352  TIP3      4571            0.0000000000
     35965      4763  TIP3      H2            -27.8325156820        6.7634529358       51.4700919277  TIP3      4571            0.0000000000
     35966      4764  TIP3      OH2           -27.7975908220       12.6326364597       42.4451274429  TIP3      4572            0.0000000000
     35967      4764  TIP3      H1            -28.5943085525       12.1602235257       42.1105079483  TIP3      4572            0.0000000000
     35968      4764  TIP3      H2            -28.0250054378       12.7567850075       43.3896482308  TIP3      4572            0.0000000000
     35969      4765  TIP3      OH2           -20.6102612254       11.8373072292       51.2483268475  TIP3      4573            0.0000000000
     35970      4765  TIP3      H1            -20.0483347281       12.3208571919       50.6157300269  TIP3      4573            0.0000000000
     35971      4765  TIP3      H2            -21.4709845570       11.8820519656       50.7851821842  TIP3      4573            0.0000000000
     35972      4766  TIP3      OH2           -23.9694195859        5.4472569530       40.6200244419  TIP3      4574            0.0000000000
     35973      4766  TIP3      H1            -24.9211372186        5.6016349571       40.4856081000  TIP3      4574            0.0000000000
     35974      4766  TIP3      H2            -23.6293529557        6.2985894690       40.9710703605  TIP3      4574            0.0000000000
     35975      4767  TIP3      OH2           -26.3055460016       12.9056222040       53.6912829278  TIP3      4575            0.0000000000
     35976      4767  TIP3      H1            -26.6534513675       12.4750169133       54.4790679726  TIP3      4575            0.0000000000
     35977      4767  TIP3      H2            -26.5635422247       13.8265520580       53.7978023518  TIP3      4575            0.0000000000
     35978      4768  TIP3      OH2           -23.2322935856        7.3699577890       42.2437264879  TIP3      4576            0.0000000000
     35979      4768  TIP3      H1            -22.3509541973        7.2361032651       42.6534154233  TIP3      4576            0.0000000000
     35980      4768  TIP3      H2            -23.1263983444        8.1916642113       41.7355554527  TIP3      4576            0.0000000000
     35981      4769  TIP3      OH2           -32.6930653184       12.0319440817       48.2333145882  TIP3      4577            0.0000000000
     35982      4769  TIP3      H1            -32.0164381283       11.9479460926       47.5411198885  TIP3      4577            0.0000000000
     35983      4769  TIP3      H2            -32.5989055274       11.1912005000       48.7133383493  TIP3      4577            0.0000000000
     35984      4770  TIP3      OH2           -25.7033808448       14.0972298150       41.4742429647  TIP3      4578            0.0000000000
     35985      4770  TIP3      H1            -26.0431251902       14.9448576768       41.8285354283  TIP3      4578            0.0000000000
     35986      4770  TIP3      H2            -26.4400425412       13.4867514416       41.6945453515  TIP3      4578            0.0000000000
     35987      4771  TIP3      OH2           -35.7303128722       10.4107472475       53.5098958473  TIP3      4579            0.0000000000
     35988      4771  TIP3      H1            -35.4706300634        9.9708341537       54.3423246277  TIP3      4579            0.0000000000
     35989      4771  TIP3      H2            -36.3179017327        9.7704099137       53.0849164136  TIP3      4579            0.0000000000
     35990      4772  TIP3      OH2           -28.6862724994        9.9954356633       55.6816363101  TIP3      4580            0.0000000000
     35991      4772  TIP3      H1            -29.0055068800        9.6836517478       54.8234263613  TIP3      4580            0.0000000000
     35992      4772  TIP3      H2            -27.7631976549        9.6675722693       55.6814708583  TIP3      4580            0.0000000000
     35993      4773  TIP3      OH2           -23.9992283664       15.3277938516       53.6395259770  TIP3      4581            0.0000000000
     35994      4773  TIP3      H1            -24.9243018708       15.5059571737       53.4046755528  TIP3      4581            0.0000000000
     35995      4773  TIP3      H2            -24.0330302739       15.6212231813       54.5699635566  TIP3      4581            0.0000000000
     35996      4774  TIP3      OH2           -18.3192457771        7.4978424814       42.0320536090  TIP3      4582            0.0000000000
     35997      4774  TIP3      H1            -18.9067066829        7.2178641695       41.3054813106  TIP3      4582            0.0000000000
     35998      4774  TIP3      H2            -18.2565824096        8.4516015613       41.7898493708  TIP3      4582            0.0000000000
     35999      4775  TIP3      OH2           -18.3450849283       13.3711792633       54.8310690691  TIP3      4583            0.0000000000
     36000      4775  TIP3      H1            -19.2378818601       13.5906298177       54.4662686076  TIP3      4583            0.0000000000
     36001      4775  TIP3      H2            -17.7996543082       13.3179462159       54.0191681053  TIP3      4583            0.0000000000
     36002      4776  TIP3      OH2           -20.0820273440       16.3360811325       42.4145998844  TIP3      4584            0.0000000000
     36003      4776  TIP3      H1            -20.4052200326       15.4979843482       42.7694582630  TIP3      4584            0.0000000000
     36004      4776  TIP3      H2            -19.7123796130       16.1105324665       41.5449773280  TIP3      4584            0.0000000000
     36005      4777  TIP3      OH2           -22.8359797881       11.1534688415       49.5273142479  TIP3      4585            0.0000000000
     36006      4777  TIP3      H1            -23.7761106815       10.9437913803       49.4186124556  TIP3      4585            0.0000000000
     36007      4777  TIP3      H2            -22.4038668247       10.3937980614       49.0934064834  TIP3      4585            0.0000000000
     36008      4778  TIP3      OH2           -30.3392723931       15.4693681865       45.6333577886  TIP3      4586            0.0000000000
     36009      4778  TIP3      H1            -29.8215975296       16.2673406492       45.4586216085  TIP3      4586            0.0000000000
     36010      4778  TIP3      H2            -31.2263217096       15.6975377431       45.3275449361  TIP3      4586            0.0000000000
     36011      4779  TIP3      OH2           -34.6009240792       10.3238682114       40.2387239375  TIP3      4587            0.0000000000
     36012      4779  TIP3      H1            -33.9582894802       10.9835136605       40.5923377220  TIP3      4587            0.0000000000
     36013      4779  TIP3      H2            -35.4539547918       10.6818762349       40.5014284696  TIP3      4587            0.0000000000
     36014      4780  TIP3      OH2           -28.9018109984       13.1391526171       45.1376852547  TIP3      4588            0.0000000000
     36015      4780  TIP3      H1            -29.2132916038       14.0566250318       45.2476112531  TIP3      4588            0.0000000000
     36016      4780  TIP3      H2            -29.6129175116       12.6433782994       45.5929230909  TIP3      4588            0.0000000000
     36017      4781  TIP3      OH2           -28.4328434080       17.3149617384       51.5428410730  TIP3      4589            0.0000000000
     36018      4781  TIP3      H1            -28.0146989137       18.1501816133       51.2795076643  TIP3      4589            0.0000000000
     36019      4781  TIP3      H2            -27.8361156275       17.0056787304       52.2450722974  TIP3      4589            0.0000000000
     36020      4782  TIP3      OH2           -30.2368123043       18.1639229880       44.7181686227  TIP3      4590            0.0000000000
     36021      4782  TIP3      H1            -31.1944630997       18.1923680601       44.9694256870  TIP3      4590            0.0000000000
     36022      4782  TIP3      H2            -29.8636198862       18.9255471426       45.2148130224  TIP3      4590            0.0000000000
     36023      4783  TIP3      OH2           -24.9328622486       13.3259773824       51.1746950168  TIP3      4591            0.0000000000
     36024      4783  TIP3      H1            -25.2511287660       13.1376572154       52.0822169351  TIP3      4591            0.0000000000
     36025      4783  TIP3      H2            -24.2873519971       12.6200963826       51.0093415346  TIP3      4591            0.0000000000
     36026      4784  TIP3      OH2           -22.5796035414       14.3877197227       40.2511711422  TIP3      4592            0.0000000000
     36027      4784  TIP3      H1            -22.2829376084       13.9323016946       41.0670313782  TIP3      4592            0.0000000000
     36028      4784  TIP3      H2            -23.5359210400       14.2223035690       40.3437891467  TIP3      4592            0.0000000000
     36029      4785  TIP3      OH2           -22.1070813450       17.9123538995       53.6637261045  TIP3      4593            0.0000000000
     36030      4785  TIP3      H1            -22.8001496387       17.4190537390       53.1853848354  TIP3      4593            0.0000000000
     36031      4785  TIP3      H2            -21.9254589989       18.6129615919       53.0024231257  TIP3      4593            0.0000000000
     36032      4786  TIP3      OH2           -18.1285944426       18.7601282073       40.5187569450  TIP3      4594            0.0000000000
     36033      4786  TIP3      H1            -17.4417109545       19.4244151125       40.3133728376  TIP3      4594            0.0000000000
     36034      4786  TIP3      H2            -18.8424110906       19.3721820078       40.8060144383  TIP3      4594            0.0000000000
     36035      4787  TIP3      OH2           -34.0465667307        5.1708844640       53.0210228320  TIP3      4595            0.0000000000
     36036      4787  TIP3      H1            -34.9346251787        5.5428966421       53.1050093237  TIP3      4595            0.0000000000
     36037      4787  TIP3      H2            -34.1616621974        4.3329993156       53.5005494086  TIP3      4595            0.0000000000
     36038      4788  TIP3      OH2           -21.8117143136       13.0416610047       42.5096192180  TIP3      4596            0.0000000000
     36039      4788  TIP3      H1            -22.0481056337       12.2514819617       43.0444063800  TIP3      4596            0.0000000000
     36040      4788  TIP3      H2            -20.8557422048       13.0823355863       42.6843926001  TIP3      4596            0.0000000000
     36041      4789  TIP3      OH2           -34.2900345446       16.9737116472       51.4264233968  TIP3      4597            0.0000000000
     36042      4789  TIP3      H1            -34.1280623192       16.0289871972       51.5189293401  TIP3      4597            0.0000000000
     36043      4789  TIP3      H2            -34.1717617316       17.2796893338       52.3357235194  TIP3      4597            0.0000000000
     36044      4790  TIP3      OH2           -28.4659432094       15.4723047533       38.7608792432  TIP3      4598            0.0000000000
     36045      4790  TIP3      H1            -28.3577811713       14.7130032287       38.1669538887  TIP3      4598            0.0000000000
     36046      4790  TIP3      H2            -28.8996933538       15.0247167273       39.5177835677  TIP3      4598            0.0000000000
     36047      4791  TIP3      OH2           -29.7131198769       14.9940000830       41.2183958086  TIP3      4599            0.0000000000
     36048      4791  TIP3      H1            -29.4105220673       14.4666058734       41.9700929079  TIP3      4599            0.0000000000
     36049      4791  TIP3      H2            -29.5771801998       15.9150489273       41.5260139629  TIP3      4599            0.0000000000
     36050      4792  TIP3      OH2           -33.1949441357       12.2489931122       41.6888044765  TIP3      4600            0.0000000000
     36051      4792  TIP3      H1            -33.9040528197       12.6411688369       42.2420337812  TIP3      4600            0.0000000000
     36052      4792  TIP3      H2            -32.6712658484       13.0290343323       41.4191325348  TIP3      4600            0.0000000000
     36053      4793  TIP3      OH2           -25.3167474215        4.9396426944       52.0203431747  TIP3      4601            0.0000000000
     36054      4793  TIP3      H1            -24.6030005295        5.0003639222       52.6631907039  TIP3      4601            0.0000000000
     36055      4793  TIP3      H2            -25.6997191089        4.0631519480       52.2237999820  TIP3      4601            0.0000000000
     36056      4794  TIP3      OH2           -24.5747861974        4.5073401679       43.1052292217  TIP3      4602            0.0000000000
     36057      4794  TIP3      H1            -24.3418547125        4.9705565732       42.2759628971  TIP3      4602            0.0000000000
     36058      4794  TIP3      H2            -23.9956853884        4.9504489461       43.7383015632  TIP3      4602            0.0000000000
     36059      4795  TIP3      OH2           -26.8994430980       16.6148777454       41.9262406270  TIP3      4603            0.0000000000
     36060      4795  TIP3      H1            -27.6805432485       17.1814856059       41.9698489404  TIP3      4603            0.0000000000
     36061      4795  TIP3      H2            -26.3324504730       17.1932210300       41.3592637608  TIP3      4603            0.0000000000
     36062      4796  TIP3      OH2           -27.3406718506        6.2593184535       43.9245168857  TIP3      4604            0.0000000000
     36063      4796  TIP3      H1            -26.5595824461        6.8439144036       43.9729013347  TIP3      4604            0.0000000000
     36064      4796  TIP3      H2            -27.6098695780        6.1336681415       44.8543594488  TIP3      4604            0.0000000000
     36065      4797  TIP3      OH2           -26.7904923228        7.2851062674       53.1175718761  TIP3      4605            0.0000000000
     36066      4797  TIP3      H1            -26.7142305404        7.8431045933       53.9148515239  TIP3      4605            0.0000000000
     36067      4797  TIP3      H2            -26.1260532365        6.5911662666       53.2117590875  TIP3      4605            0.0000000000
     36068      4798  TIP3      OH2           -26.4948499406        3.3158405500       44.8037661821  TIP3      4606            0.0000000000
     36069      4798  TIP3      H1            -26.8162854671        3.9633986142       45.4551163205  TIP3      4606            0.0000000000
     36070      4798  TIP3      H2            -25.7995134162        3.8628645925       44.3640320029  TIP3      4606            0.0000000000
     36071      4799  TIP3      OH2           -29.5000159282       17.6274454549       41.8403361048  TIP3      4607            0.0000000000
     36072      4799  TIP3      H1            -29.2765173373       18.4417652935       41.3071826885  TIP3      4607            0.0000000000
     36073      4799  TIP3      H2            -29.5144173348       17.8447365566       42.7810296160  TIP3      4607            0.0000000000
     36074      4800  TIP3      OH2           -30.8235193760        4.4232025472       41.5135561428  TIP3      4608            0.0000000000
     36075      4800  TIP3      H1            -30.8837340889        5.3191342085       41.9027073940  TIP3      4608            0.0000000000
     36076      4800  TIP3      H2            -29.9183456073        4.1802693054       41.7809190296  TIP3      4608            0.0000000000
     36077      4801  TIP3      OH2           -20.6115082195        5.1544613464       53.9607547002  TIP3      4609            0.0000000000
     36078      4801  TIP3      H1            -21.5386764626        5.4707783101       53.8320516120  TIP3      4609            0.0000000000
     36079      4801  TIP3      H2            -20.3103774465        5.1410875567       53.0368448210  TIP3      4609            0.0000000000
     36080      4802  TIP3      OH2           -21.9952461663        8.9419826667       47.9656174834  TIP3      4610            0.0000000000
     36081      4802  TIP3      H1            -22.8200432963        8.4971852684       47.6925824490  TIP3      4610            0.0000000000
     36082      4802  TIP3      H2            -21.5149995398        8.2558452421       48.4824626873  TIP3      4610            0.0000000000
     36083      4803  TIP3      OH2           -32.6190767497       14.8826630908       40.5476077281  TIP3      4611            0.0000000000
     36084      4803  TIP3      H1            -31.9396822471       15.4943791357       40.8568066701  TIP3      4611            0.0000000000
     36085      4803  TIP3      H2            -32.0901956615       14.3928980274       39.8835499600  TIP3      4611            0.0000000000
     36086      4804  TIP3      OH2           -34.3033303706        7.5264345092       39.6910646425  TIP3      4612            0.0000000000
     36087      4804  TIP3      H1            -34.2329446834        8.4809539632       39.8921709488  TIP3      4612            0.0000000000
     36088      4804  TIP3      H2            -35.1871486020        7.3565707808       39.3489438125  TIP3      4612            0.0000000000
     36089      4805  TIP3      OH2           -20.9307119178       18.1983923581       49.6380107196  TIP3      4613            0.0000000000
     36090      4805  TIP3      H1            -21.0235726926       18.8825064779       48.9462916586  TIP3      4613            0.0000000000
     36091      4805  TIP3      H2            -19.9673046972       18.2550228722       49.8134860863  TIP3      4613            0.0000000000
     36092      4806  TIP3      OH2           -33.4152219296        2.3081447464       48.4259491571  TIP3      4614            0.0000000000
     36093      4806  TIP3      H1            -33.6338845055        2.3424300469       47.4675061103  TIP3      4614            0.0000000000
     36094      4806  TIP3      H2            -33.8616874222        1.4794425688       48.6925157920  TIP3      4614            0.0000000000
     36095      4807  TIP3      OH2           -34.4516211878       16.2786991216       44.6271836999  TIP3      4615            0.0000000000
     36096      4807  TIP3      H1            -35.3333599208       16.6580816117       44.5589631377  TIP3      4615            0.0000000000
     36097      4807  TIP3      H2            -34.0138144813       16.7094043885       43.8841296630  TIP3      4615            0.0000000000
     36098      4808  TIP3      OH2           -34.9766247534       18.9230911534       55.8620683366  TIP3      4616            0.0000000000
     36099      4808  TIP3      H1            -34.5479223940       18.6951392965       56.6997805438  TIP3      4616            0.0000000000
     36100      4808  TIP3      H2            -35.4911897445       18.1112451833       55.6937977242  TIP3      4616            0.0000000000
     36101      4809  TIP3      OH2           -30.5826497076       17.7887658191       57.4874694987  TIP3      4617            0.0000000000
     36102      4809  TIP3      H1            -29.8208060404       17.2971852812       57.8100899781  TIP3      4617            0.0000000000
     36103      4809  TIP3      H2            -30.6211177271       17.5457601201       56.5399095781  TIP3      4617            0.0000000000
     36104      4810  TIP3      OH2           -26.4635102012       17.3037543456       38.8601870532  TIP3      4618            0.0000000000
     36105      4810  TIP3      H1            -27.1501548935       16.6545574403       39.1040808100  TIP3      4618            0.0000000000
     36106      4810  TIP3      H2            -25.7295426768       16.7207317934       38.6423124108  TIP3      4618            0.0000000000
     36107      4811  TIP3      OH2           -24.0976355954       16.1992827616       56.2327984791  TIP3      4619            0.0000000000
     36108      4811  TIP3      H1            -24.4123733214       15.3118713601       56.5075234893  TIP3      4619            0.0000000000
     36109      4811  TIP3      H2            -23.3285072904       16.3180189849       56.8247430159  TIP3      4619            0.0000000000
     36110      4812  TIP3      OH2           -21.9008885499       17.0530056874       39.0584823662  TIP3      4620            0.0000000000
     36111      4812  TIP3      H1            -21.6041303214       16.2917039937       39.5774024606  TIP3      4620            0.0000000000
     36112      4812  TIP3      H2            -21.1376062947       17.2968602227       38.5190958884  TIP3      4620            0.0000000000
     36113      4813  TIP3      OH2           -35.4062760105       12.6728474041       56.8613404412  TIP3      4621            0.0000000000
     36114      4813  TIP3      H1            -35.1915617585       11.7772250435       56.5384504384  TIP3      4621            0.0000000000
     36115      4813  TIP3      H2            -36.1227705323       12.9468237492       56.2795160296  TIP3      4621            0.0000000000
     36116      4814  TIP3      OH2           -31.0225447439       13.0153181695       38.8884218518  TIP3      4622            0.0000000000
     36117      4814  TIP3      H1            -30.8844372964       12.2522694473       39.4691082094  TIP3      4622            0.0000000000
     36118      4814  TIP3      H2            -30.2685452200       12.9040998363       38.2775128632  TIP3      4622            0.0000000000
     36119      4815  TIP3      OH2           -28.6532924711       12.6554700369       56.2564564750  TIP3      4623            0.0000000000
     36120      4815  TIP3      H1            -28.9879830091       12.9701683310       55.3932170384  TIP3      4623            0.0000000000
     36121      4815  TIP3      H2            -28.5791432173       11.6771652611       56.1468776022  TIP3      4623            0.0000000000
     36122      4816  TIP3      OH2           -25.5908599444       14.1228966760       38.6674984379  TIP3      4624            0.0000000000
     36123      4816  TIP3      H1            -25.8608256363       14.2043874878       39.5959630661  TIP3      4624            0.0000000000
     36124      4816  TIP3      H2            -25.7790676429       13.1648743473       38.5232771635  TIP3      4624            0.0000000000
     36125      4817  TIP3      OH2           -22.9576092566       12.5163489471       53.6489738670  TIP3      4625            0.0000000000
     36126      4817  TIP3      H1            -22.1697186582       13.0991273877       53.5868010772  TIP3      4625            0.0000000000
     36127      4817  TIP3      H2            -23.6572123148       13.1843352885       53.6846189801  TIP3      4625            0.0000000000
     36128      4818  TIP3      OH2           -34.5140436258        9.8840233290       56.2433165962  TIP3      4626            0.0000000000
     36129      4818  TIP3      H1            -34.0300537383        9.0436085591       56.1599483956  TIP3      4626            0.0000000000
     36130      4818  TIP3      H2            -34.6880855557        9.8922994663       57.1972389037  TIP3      4626            0.0000000000
     36131      4819  TIP3      OH2           -29.8182504147       11.0316195920       41.3200131099  TIP3      4627            0.0000000000
     36132      4819  TIP3      H1            -30.3214316873       10.4920006772       41.9478912790  TIP3      4627            0.0000000000
     36133      4819  TIP3      H2            -29.5185228675       10.3584178427       40.6657751412  TIP3      4627            0.0000000000
     36134      4820  TIP3      OH2           -30.5528045057        8.8371377431       53.6072113505  TIP3      4628            0.0000000000
     36135      4820  TIP3      H1            -31.1584873212        9.5495875030       53.8688593975  TIP3      4628            0.0000000000
     36136      4820  TIP3      H2            -30.1556816724        9.2074803430       52.7998312931  TIP3      4628            0.0000000000
     36137      4821  TIP3      OH2           -28.7438477455        9.2552123798       39.5189559881  TIP3      4629            0.0000000000
     36138      4821  TIP3      H1            -28.8949544280        9.1650948512       38.5570889379  TIP3      4629            0.0000000000
     36139      4821  TIP3      H2            -27.7654800713        9.3063776026       39.5838897273  TIP3      4629            0.0000000000
     36140      4822  TIP3      OH2           -25.4770257848       11.4077033026       56.9421049817  TIP3      4630            0.0000000000
     36141      4822  TIP3      H1            -24.5202277577       11.3947370205       56.8188462064  TIP3      4630            0.0000000000
     36142      4822  TIP3      H2            -25.6485616601       10.6410696634       57.5120189516  TIP3      4630            0.0000000000
     36143      4823  TIP3      OH2           -19.3602874967       11.5802392211       38.9129513818  TIP3      4631            0.0000000000
     36144      4823  TIP3      H1            -19.6568256635       11.2141528446       38.0676391395  TIP3      4631            0.0000000000
     36145      4823  TIP3      H2            -19.3412016189       12.5550351878       38.7559541848  TIP3      4631            0.0000000000
     36146      4824  TIP3      OH2           -30.1155638481        6.2207056662       54.6625796752  TIP3      4632            0.0000000000
     36147      4824  TIP3      H1            -30.0275819690        5.5088657020       54.0028031912  TIP3      4632            0.0000000000
     36148      4824  TIP3      H2            -30.2119546390        7.0273919008       54.1154384795  TIP3      4632            0.0000000000
     36149      4825  TIP3      OH2           -29.7371414729        4.5987551585       52.2195346517  TIP3      4633            0.0000000000
     36150      4825  TIP3      H1            -29.2276099588        5.0642803176       51.5135777971  TIP3      4633            0.0000000000
     36151      4825  TIP3      H2            -30.6314210976        4.5200581170       51.8115618000  TIP3      4633            0.0000000000
     36152      4826  TIP3      OH2           -28.2042836081       10.0878895105       52.4606997133  TIP3      4634            0.0000000000
     36153      4826  TIP3      H1            -27.4495799982        9.9230798952       51.8884313717  TIP3      4634            0.0000000000
     36154      4826  TIP3      H2            -28.5680181521       10.9218622945       52.1222429495  TIP3      4634            0.0000000000
     36155      4827  TIP3      OH2           -23.8083580263        7.8390287068       57.4198586271  TIP3      4635            0.0000000000
     36156      4827  TIP3      H1            -23.5717697432        6.9041721521       57.3296042076  TIP3      4635            0.0000000000
     36157      4827  TIP3      H2            -22.9434205368        8.2828027367       57.4542151589  TIP3      4635            0.0000000000
     36158      4828  TIP3      OH2           -22.4645353689       10.6335203322       55.5874874003  TIP3      4636            0.0000000000
     36159      4828  TIP3      H1            -22.7175209578       11.3546513357       54.9704559444  TIP3      4636            0.0000000000
     36160      4828  TIP3      H2            -21.5079601503       10.6021853204       55.3985612964  TIP3      4636            0.0000000000
     36161      4829  TIP3      OH2           -31.7112309090        7.4810097350       56.5719444979  TIP3      4637            0.0000000000
     36162      4829  TIP3      H1            -32.4706671688        6.8784724002       56.4191753769  TIP3      4637            0.0000000000
     36163      4829  TIP3      H2            -31.0463519003        7.0982656746       55.9690907991  TIP3      4637            0.0000000000
     36164      4830  TIP3      OH2           -28.9534080996        2.0362760234       52.6047568941  TIP3      4638            0.0000000000
     36165      4830  TIP3      H1            -29.1362998850        2.9986393517       52.5082012193  TIP3      4638            0.0000000000
     36166      4830  TIP3      H2            -29.7014548878        1.6677345087       52.1029508650  TIP3      4638            0.0000000000
     36167      4831  TIP3      OH2           -27.6748390640        6.3638521258       56.2341597209  TIP3      4639            0.0000000000
     36168      4831  TIP3      H1            -27.9965960561        6.1318741982       57.1280710080  TIP3      4639            0.0000000000
     36169      4831  TIP3      H2            -28.4611939219        6.1628602712       55.6930740264  TIP3      4639            0.0000000000
     36170      4832  TIP3      OH2           -24.9607108851        5.5092979307       55.3244798680  TIP3      4640            0.0000000000
     36171      4832  TIP3      H1            -25.9260527683        5.5620359258       55.4324904688  TIP3      4640            0.0000000000
     36172      4832  TIP3      H2            -24.6970963466        4.8677417021       56.0119059885  TIP3      4640            0.0000000000
     36173      4833  TIP3      OH2           -23.3792501663        4.1273768671       57.2227447763  TIP3      4641            0.0000000000
     36174      4833  TIP3      H1            -23.4272644517        3.1495299165       57.2535520367  TIP3      4641            0.0000000000
     36175      4833  TIP3      H2            -23.6278796117        4.4197397761       58.1220476994  TIP3      4641            0.0000000000
     36176      4834  TIP3      OH2           -33.4548164651        5.3782881319       56.3728720381  TIP3      4642            0.0000000000
     36177      4834  TIP3      H1            -33.3528119050        4.6454523976       55.7393899157  TIP3      4642            0.0000000000
     36178      4834  TIP3      H2            -33.6723194096        4.9214135250       57.2059099409  TIP3      4642            0.0000000000
     36179      4835  TIP3      OH2           -28.7381027851        1.4287355157       55.3056488921  TIP3      4643            0.0000000000
     36180      4835  TIP3      H1            -28.0587121028        0.7250396262       55.2885290335  TIP3      4643            0.0000000000
     36181      4835  TIP3      H2            -28.8527477906        1.5712025030       54.3454627451  TIP3      4643            0.0000000000
     36182      4836  TIP3      OH2           -28.3763067914        3.0413024872       57.4226555947  TIP3      4644            0.0000000000
     36183      4836  TIP3      H1            -28.5497329577        2.5362494213       56.5895771061  TIP3      4644            0.0000000000
     36184      4836  TIP3      H2            -28.9755792230        3.8061769768       57.3215680856  TIP3      4644            0.0000000000
     36185      4837  TIP3      OH2           -28.9243174748       19.9784793037       40.6796070166  TIP3      4645            0.0000000000
     36186      4837  TIP3      H1            -27.9473176637       20.0665712812       40.6083759442  TIP3      4645            0.0000000000
     36187      4837  TIP3      H2            -29.0662700314       20.5163199935       39.8642458433  TIP3      4645            0.0000000000
     36188      4838  TIP3      OH2           -35.3150942039       14.5292391475       40.0804364218  TIP3      4646            0.0000000000
     36189      4838  TIP3      H1            -34.3541537308       14.6445061222       40.2531262871  TIP3      4646            0.0000000000
     36190      4838  TIP3      H2            -35.2706624938       13.8879968059       39.3464986647  TIP3      4646            0.0000000000
     36191      4839  TIP3      OH2            36.8621390130       20.0788242771       44.8686290374  TIP3      4647            0.0000000000
     36192      4839  TIP3      H1             35.9554761208       19.8702720512       44.5583069275  TIP3      4647            0.0000000000
     36193      4839  TIP3      H2             36.9501542036       19.4390044326       45.6152006611  TIP3      4647            0.0000000000
     36194      4840  TIP3      OH2           -35.7339881160       18.0806162319       46.8372538205  TIP3      4648            0.0000000000
     36195      4840  TIP3      H1            -36.0847941007       17.1955442741       47.0828091431  TIP3      4648            0.0000000000
     36196      4840  TIP3      H2            -35.4987315834       18.3667932454       47.7446257482  TIP3      4648            0.0000000000
     36197      4841  TIP3      OH2           -18.2130935970       18.8466221452       49.8359201579  TIP3      4649            0.0000000000
     36198      4841  TIP3      H1            -18.1824387346       19.0067862786       50.7950303880  TIP3      4649            0.0000000000
     36199      4841  TIP3      H2            -17.5093225682       19.4293110834       49.5327304178  TIP3      4649            0.0000000000
     36200      4842  TIP3      OH2           -18.6416708978       18.4413514154       52.7833986935  TIP3      4650            0.0000000000
     36201      4842  TIP3      H1            -19.1108354110       17.6716411559       52.4000574514  TIP3      4650            0.0000000000
     36202      4842  TIP3      H2            -18.1532274789       17.9945755275       53.4947110416  TIP3      4650            0.0000000000
     36203      4843  TIP3      OH2           -20.1945760814       14.1608673062       57.4553023940  TIP3      4651            0.0000000000
     36204      4843  TIP3      H1            -21.1013467205       14.1356158072       57.8188481129  TIP3      4651            0.0000000000
     36205      4843  TIP3      H2            -19.8233627840       14.9675766200       57.8650590733  TIP3      4651            0.0000000000
     36206      4844  TIP3      OH2           -18.9184300833       12.4868740993       42.8853737909  TIP3      4652            0.0000000000
     36207      4844  TIP3      H1            -18.0325109963       12.8919362332       43.0561075357  TIP3      4652            0.0000000000
     36208      4844  TIP3      H2            -18.8967135366       11.7792004402       43.5605416213  TIP3      4652            0.0000000000
     36209      4845  TIP3      OH2           -18.5343294961       10.5641285722       44.7677343200  TIP3      4653            0.0000000000
     36210      4845  TIP3      H1            -19.2658862898       10.0661225615       45.1836686359  TIP3      4653            0.0000000000
     36211      4845  TIP3      H2            -17.9052190429       10.7093356022       45.5091910827  TIP3      4653            0.0000000000
     36212      4846  TIP3      OH2           -18.7632673992       13.2647544936       49.7572597775  TIP3      4654            0.0000000000
     36213      4846  TIP3      H1            -17.9500133916       12.8860002875       49.3781151813  TIP3      4654            0.0000000000
     36214      4846  TIP3      H2            -18.6171136907       14.2172614184       49.5850911286  TIP3      4654            0.0000000000
     36215      4847  TIP3      OH2           -20.2036252076       16.1702686192       52.0240505700  TIP3      4655            0.0000000000
     36216      4847  TIP3      H1            -20.8941811180       16.5107779840       52.6129519297  TIP3      4655            0.0000000000
     36217      4847  TIP3      H2            -20.7524933228       15.7663322722       51.3168776457  TIP3      4655            0.0000000000
     36218      4848  TIP3      OH2           -18.2237571807       10.3639728461       41.1586399533  TIP3      4656            0.0000000000
     36219      4848  TIP3      H1            -18.7853891110       10.7446777373       40.4535287510  TIP3      4656            0.0000000000
     36220      4848  TIP3      H2            -18.2807291790       11.0871043727       41.8169356795  TIP3      4656            0.0000000000
     36221      4849  TIP3      OH2           -19.8360447874        7.6130880052       39.6773393420  TIP3      4657            0.0000000000
     36222      4849  TIP3      H1            -19.7769461124        8.2817849480       38.9845559792  TIP3      4657            0.0000000000
     36223      4849  TIP3      H2            -20.0409281114        6.7931854095       39.1888263431  TIP3      4657            0.0000000000
     36224      4850  TIP3      OH2           -20.7021297065        9.0398934908       45.3403321111  TIP3      4658            0.0000000000
     36225      4850  TIP3      H1            -20.8451060368        8.0855477696       45.3014229095  TIP3      4658            0.0000000000
     36226      4850  TIP3      H2            -21.0306006221        9.2558801195       46.2312021476  TIP3      4658            0.0000000000
     36227      4851  TIP3      OH2           -35.6771168496       11.1119813807       49.3211151095  TIP3      4659            0.0000000000
     36228      4851  TIP3      H1            -35.4740025351       11.0715788549       48.3629153501  TIP3      4659            0.0000000000
     36229      4851  TIP3      H2            -34.7973660122       11.0021871546       49.7407069843  TIP3      4659            0.0000000000
     36230      4852  TIP3      OH2           -19.8387088855       11.0090639937       55.0311318593  TIP3      4660            0.0000000000
     36231      4852  TIP3      H1            -19.2287037867       10.2521258956       55.1633166164  TIP3      4660            0.0000000000
     36232      4852  TIP3      H2            -19.2344741961       11.7819373249       55.0337532841  TIP3      4660            0.0000000000
     36233      4853  TIP3      OH2           -18.3370419135        8.8878677924       55.6818161108  TIP3      4661            0.0000000000
     36234      4853  TIP3      H1            -19.2200351181        8.4892410541       55.5267410461  TIP3      4661            0.0000000000
     36235      4853  TIP3      H2            -17.7667802896        8.1050178645       55.6049696952  TIP3      4661            0.0000000000
     36236      4854  TIP3      OH2           -20.5987899601        5.0901851816       38.8099099776  TIP3      4662            0.0000000000
     36237      4854  TIP3      H1            -20.0095389083        4.6567777506       39.4563751414  TIP3      4662            0.0000000000
     36238      4854  TIP3      H2            -21.4628253221        4.6770467836       38.9661588555  TIP3      4662            0.0000000000
     36239      4855  TIP3      OH2           -21.0545978961        6.6202889050       43.7530286505  TIP3      4663            0.0000000000
     36240      4855  TIP3      H1            -20.7369299477        5.7007102970       43.9173500947  TIP3      4663            0.0000000000
     36241      4855  TIP3      H2            -20.2305621337        7.0298712009       43.4547858098  TIP3      4663            0.0000000000
     36242      4856  TIP3      OH2           -20.3929585169        7.1683894986       49.2434692685  TIP3      4664            0.0000000000
     36243      4856  TIP3      H1            -19.4323495801        7.3982477509       49.2293618414  TIP3      4664            0.0000000000
     36244      4856  TIP3      H2            -20.5800342982        7.3083413464       50.1832361996  TIP3      4664            0.0000000000
     36245      4857  TIP3      OH2           -20.3248397059        7.8880249379       52.0312413169  TIP3      4665            0.0000000000
     36246      4857  TIP3      H1            -21.2101287889        8.1778844742       52.3400178346  TIP3      4665            0.0000000000
     36247      4857  TIP3      H2            -19.8925087420        8.7474609050       51.8019977831  TIP3      4665            0.0000000000
     36248      4858  TIP3      OH2           -35.8035492992        6.2973072110       55.5321767453  TIP3      4666            0.0000000000
     36249      4858  TIP3      H1            -34.9173722728        6.1121954229       55.8720056645  TIP3      4666            0.0000000000
     36250      4858  TIP3      H2            -36.3811497881        5.6143879715       55.9544427039  TIP3      4666            0.0000000000
     36251      4859  TIP3      OH2           -18.0543834904        1.9543608602       57.3627124733  TIP3      4667            0.0000000000
     36252      4859  TIP3      H1            -17.7020874835        1.2930576618       56.7421466262  TIP3      4667            0.0000000000
     36253      4859  TIP3      H2            -17.9525360596        2.7687809720       56.8305772039  TIP3      4667            0.0000000000
     36254      4860  TIP3      OH2           -20.3579288906        3.9125888076       43.8458639619  TIP3      4668            0.0000000000
     36255      4860  TIP3      H1            -20.1453862650        3.4756719617       44.6986571933  TIP3      4668            0.0000000000
     36256      4860  TIP3      H2            -20.9579951174        3.2728454370       43.4082135355  TIP3      4668            0.0000000000
     36257      4861  TIP3      OH2           -34.8346304026        4.6754849263       48.3618642530  TIP3      4669            0.0000000000
     36258      4861  TIP3      H1            -34.3755757325        3.8795942123       48.6885272857  TIP3      4669            0.0000000000
     36259      4861  TIP3      H2            -34.3331482851        5.3810397347       48.8070448087  TIP3      4669            0.0000000000
     36260      4862  TIP3      OH2           -36.0167601371        8.4742763323       49.7999136562  TIP3      4670            0.0000000000
     36261      4862  TIP3      H1            -35.9822438147        8.0448557318       48.9194190198  TIP3      4670            0.0000000000
     36262      4862  TIP3      H2            -35.9396454552        9.3893363990       49.5198842439  TIP3      4670            0.0000000000
     36263      4863  TIP3      OH2           -18.5340658526        4.0525531264       55.7177883846  TIP3      4671            0.0000000000
     36264      4863  TIP3      H1            -19.4725816561        4.3240687707       55.6660346424  TIP3      4671            0.0000000000
     36265      4863  TIP3      H2            -18.5006976465        3.5010866925       54.9212480794  TIP3      4671            0.0000000000
     36266      4864  TIP3      OH2           -18.5411692290        3.9207610868       40.4200690888  TIP3      4672            0.0000000000
     36267      4864  TIP3      H1            -18.1295518851        3.2262505575       39.8616136942  TIP3      4672            0.0000000000
     36268      4864  TIP3      H2            -17.8508326870        4.6026328991       40.4519623101  TIP3      4672            0.0000000000
     36269      4865  TIP3      OH2           -35.7603347874        3.9324664121       43.0799981559  TIP3      4673            0.0000000000
     36270      4865  TIP3      H1            -36.7052966189        4.1189304432       43.2062977821  TIP3      4673            0.0000000000
     36271      4865  TIP3      H2            -35.5364866098        4.6924622586       42.5049736737  TIP3      4673            0.0000000000
     36272      4866  TIP3      OH2           -21.4854238799       18.9239054883       45.4694750206  TIP3      4674            0.0000000000
     36273      4866  TIP3      H1            -20.8042452342       18.6278277104       44.8416589797  TIP3      4674            0.0000000000
     36274      4866  TIP3      H2            -20.9737160543       19.4287390267       46.1175935423  TIP3      4674            0.0000000000
     36275      4867  TIP3      OH2            37.0293701376        2.5997714031       52.0224850822  TIP3      4675            0.0000000000
     36276      4867  TIP3      H1             36.2416078740        2.3896253737       52.5484432139  TIP3      4675            0.0000000000
     36277      4867  TIP3      H2             36.5481739039        3.1142515219       51.3513311201  TIP3      4675            0.0000000000
     36278      4868  TIP3      OH2           -34.0744791961       15.8622386946       55.9828646556  TIP3      4676            0.0000000000
     36279      4868  TIP3      H1            -34.9210243771       16.0340176019       55.5527244175  TIP3      4676            0.0000000000
     36280      4868  TIP3      H2            -34.3297574370       15.7571602698       56.9003224783  TIP3      4676            0.0000000000
     36281      4869  TIP3      OH2           -31.1039994588       16.8575544538       52.2899326393  TIP3      4677            0.0000000000
     36282      4869  TIP3      H1            -31.5121901038       17.6884890825       51.9747592498  TIP3      4677            0.0000000000
     36283      4869  TIP3      H2            -30.2054528436       16.9630419439       51.9307030651  TIP3      4677            0.0000000000
     36284      4870  TIP3      OH2           -26.8213683196       18.2602982918       55.1499533151  TIP3      4678            0.0000000000
     36285      4870  TIP3      H1            -26.6838880708       17.9066351991       56.0594246967  TIP3      4678            0.0000000000
     36286      4870  TIP3      H2            -25.9174027762       18.5640704927       54.9113358902  TIP3      4678            0.0000000000
     36287      4871  TIP3      OH2           -24.5344328424       19.5272815011       54.4671160682  TIP3      4679            0.0000000000
     36288      4871  TIP3      H1            -23.8005417228       18.9468510816       54.2243621247  TIP3      4679            0.0000000000
     36289      4871  TIP3      H2            -24.1568991780       19.9680463204       55.2585060930  TIP3      4679            0.0000000000
     36290      4872  TIP3      OH2           -19.5163431080        2.1431234377       53.5747408190  TIP3      4680            0.0000000000
     36291      4872  TIP3      H1            -20.3435954155        2.4419626459       53.1593919146  TIP3      4680            0.0000000000
     36292      4872  TIP3      H2            -19.3459869284        1.3218031308       53.0559300057  TIP3      4680            0.0000000000
     36293      4873  TIP3      OH2           -34.1105978572       19.7043666892       52.1867020456  TIP3      4681            0.0000000000
     36294      4873  TIP3      H1            -34.4611188481       20.5742734833       51.8928734006  TIP3      4681            0.0000000000
     36295      4873  TIP3      H2            -33.9911475378       19.9085091681       53.1299500163  TIP3      4681            0.0000000000
     36296      4874  TIP3      OH2           -31.3652830374       19.3114947210       50.8890835780  TIP3      4682            0.0000000000
     36297      4874  TIP3      H1            -31.9682705377       19.6059466904       51.6090373145  TIP3      4682            0.0000000000
     36298      4874  TIP3      H2            -31.2297151045       20.2009183797       50.4993086049  TIP3      4682            0.0000000000
     36299      4875  TIP3      OH2           -26.5347371648       19.5730101949       50.4733424937  TIP3      4683            0.0000000000
     36300      4875  TIP3      H1            -27.0253562000       20.1360380751       49.8505624496  TIP3      4683            0.0000000000
     36301      4875  TIP3      H2            -26.4266745014       20.1885268002       51.2295576935  TIP3      4683            0.0000000000
     36302      4876  TIP3      OH2           -24.2555034551       18.3715524963       51.5203300600  TIP3      4684            0.0000000000
     36303      4876  TIP3      H1            -25.1065689696       18.6500858133       51.1446629187  TIP3      4684            0.0000000000
     36304      4876  TIP3      H2            -23.7739642582       19.2116764011       51.4287199211  TIP3      4684            0.0000000000
     36305      4877  TIP3      OH2           -21.6702740746       19.9429234552       51.7358762764  TIP3      4685            0.0000000000
     36306      4877  TIP3      H1            -21.7239238697       20.9024339559       51.5084106364  TIP3      4685            0.0000000000
     36307      4877  TIP3      H2            -21.4541434807       19.5690395107       50.8585316129  TIP3      4685            0.0000000000
     36308      4878  TIP3      OH2           -34.3334776274       18.6932797229       49.1366223634  TIP3      4686            0.0000000000
     36309      4878  TIP3      H1            -34.3075211186       18.3372469416       50.0523022951  TIP3      4686            0.0000000000
     36310      4878  TIP3      H2            -33.4772565619       18.3630870108       48.8087503678  TIP3      4686            0.0000000000
     36311      4879  TIP3      OH2           -32.1777330229       17.4447048971       47.8004514490  TIP3      4687            0.0000000000
     36312      4879  TIP3      H1            -32.3637145073       16.5235841325       48.0696356974  TIP3      4687            0.0000000000
     36313      4879  TIP3      H2            -31.3516579758       17.5966150203       48.3102299459  TIP3      4687            0.0000000000
     36314      4880  TIP3      OH2           -29.5657221260       17.9131508192       48.6896838656  TIP3      4688            0.0000000000
     36315      4880  TIP3      H1            -29.4213906534       16.9764105372       48.4591251286  TIP3      4688            0.0000000000
     36316      4880  TIP3      H2            -29.5614184793       17.8905852639       49.6556523363  TIP3      4688            0.0000000000
     36317      4881  TIP3      OH2           -26.1236430736        3.5680550588       47.8568811789  TIP3      4689            0.0000000000
     36318      4881  TIP3      H1            -26.8003852148        2.9280148121       48.1364042672  TIP3      4689            0.0000000000
     36319      4881  TIP3      H2            -25.5716741505        3.0352471337       47.2721115963  TIP3      4689            0.0000000000
     36320      4882  TIP3      OH2           -20.9874553069        1.6166028328       47.9172091039  TIP3      4690            0.0000000000
     36321      4882  TIP3      H1            -20.3754757266        2.2092432102       47.4118570288  TIP3      4690            0.0000000000
     36322      4882  TIP3      H2            -21.8694084595        1.9780014623       47.6888790964  TIP3      4690            0.0000000000
     36323      4883  TIP3      OH2           -19.3202863456        2.8653492907       46.1978513262  TIP3      4691            0.0000000000
     36324      4883  TIP3      H1            -18.6317307541        2.2907767404       45.7811861763  TIP3      4691            0.0000000000
     36325      4883  TIP3      H2            -18.8121331824        3.7022416418       46.3038802084  TIP3      4691            0.0000000000
     36326      4884  TIP3      OH2           -33.7433540150        2.1859079728       45.7313494407  TIP3      4692            0.0000000000
     36327      4884  TIP3      H1            -34.5229070025        1.9865822753       45.1669684061  TIP3      4692            0.0000000000
     36328      4884  TIP3      H2            -33.2537006525        1.3470975038       45.6307728946  TIP3      4692            0.0000000000
     36329      4885  TIP3      OH2           -34.9683755680        1.9257896632       41.3795847886  TIP3      4693            0.0000000000
     36330      4885  TIP3      H1            -34.4553096150        2.5966609131       40.8970624610  TIP3      4693            0.0000000000
     36331      4885  TIP3      H2            -35.5285470072        2.4952434576       41.9424750766  TIP3      4693            0.0000000000
     36332      4886  TIP3      OH2           -29.2829131026        2.1210468416       45.4891448383  TIP3      4694            0.0000000000
     36333      4886  TIP3      H1            -28.3816345166        2.4781161969       45.4118183084  TIP3      4694            0.0000000000
     36334      4886  TIP3      H2            -29.3154380210        1.9016320743       46.4196200026  TIP3      4694            0.0000000000
     36335      4887  TIP3      OH2           -23.5664082888        2.1386259403       47.1129841798  TIP3      4695            0.0000000000
     36336      4887  TIP3      H1            -23.6189013876        2.2524122298       46.1552107310  TIP3      4695            0.0000000000
     36337      4887  TIP3      H2            -23.9467385094        1.2351377101       47.2416241705  TIP3      4695            0.0000000000
     36338      4888  TIP3      OH2           -22.3008731671        2.1685307845       42.7984188664  TIP3      4696            0.0000000000
     36339      4888  TIP3      H1            -23.0497122150        2.7623062527       42.6395061819  TIP3      4696            0.0000000000
     36340      4888  TIP3      H2            -22.7404935184        1.3162056750       43.0315899404  TIP3      4696            0.0000000000
     36341      4889  TIP3      OH2           -35.0236639333       17.9473910426       42.4629035224  TIP3      4697            0.0000000000
     36342      4889  TIP3      H1            -35.6726149417       17.8907944852       41.7399106001  TIP3      4697            0.0000000000
     36343      4889  TIP3      H2            -35.0787795680       18.8973633922       42.6245565229  TIP3      4697            0.0000000000
     36344      4890  TIP3      OH2           -33.1653349401        3.8954516292       39.9680206378  TIP3      4698            0.0000000000
     36345      4890  TIP3      H1            -32.6401269640        3.2923174385       39.4108911854  TIP3      4698            0.0000000000
     36346      4890  TIP3      H2            -32.4633406824        4.2052048821       40.5695013871  TIP3      4698            0.0000000000
     36347      4891  TIP3      OH2           -28.1297560574        4.1340001217       42.3390804958  TIP3      4699            0.0000000000
     36348      4891  TIP3      H1            -27.8771538127        3.5545235127       43.0769816582  TIP3      4699            0.0000000000
     36349      4891  TIP3      H2            -28.0594257582        5.0000244246       42.7981628884  TIP3      4699            0.0000000000
     36350      4892  TIP3      OH2           -26.1011415790       18.9030679451       40.9683807958  TIP3      4700            0.0000000000
     36351      4892  TIP3      H1            -25.3827937052       19.4694455282       40.6099450667  TIP3      4700            0.0000000000
     36352      4892  TIP3      H2            -26.4259641891       18.7216904736       40.0541278593  TIP3      4700            0.0000000000
     36353      4893  TIP3      OH2           -19.4960614707       18.7066372907       43.5039148164  TIP3      4701            0.0000000000
     36354      4893  TIP3      H1            -19.6927088624       17.9250050125       42.9342738544  TIP3      4701            0.0000000000
     36355      4893  TIP3      H2            -19.5689699199       19.4436917620       42.8635744695  TIP3      4701            0.0000000000
     36356      4894  TIP3      OH2           -33.9230088578        2.7570599669       55.1953294653  TIP3      4702            0.0000000000
     36357      4894  TIP3      H1            -34.2578897541        1.9059644572       55.5383329844  TIP3      4702            0.0000000000
     36358      4894  TIP3      H2            -32.9946160328        2.6944065175       55.5273898154  TIP3      4702            0.0000000000
     36359      4895  TIP3      OH2           -31.8645933653        2.1109299292       56.7889465052  TIP3      4703            0.0000000000
     36360      4895  TIP3      H1            -30.9721080255        1.7715487109       56.5813063690  TIP3      4703            0.0000000000
     36361      4895  TIP3      H2            -32.2543984139        1.3099825031       57.1878839013  TIP3      4703            0.0000000000
     36362      4896  TIP3      OH2           -33.2617966354       18.8704039654       39.3681185039  TIP3      4704            0.0000000000
     36363      4896  TIP3      H1            -33.5278699036       19.1441015527       40.2559654836  TIP3      4704            0.0000000000
     36364      4896  TIP3      H2            -32.4789693895       18.3134501316       39.5302964956  TIP3      4704            0.0000000000
     36365      4897  TIP3      OH2           -23.4653753349        1.4052706653       56.9466033517  TIP3      4705            0.0000000000
     36366      4897  TIP3      H1            -23.3708293999        0.9335160609       57.7967442161  TIP3      4705            0.0000000000
     36367      4897  TIP3      H2            -22.5474444798        1.3726204124       56.6042006163  TIP3      4705            0.0000000000
     36368      4898  TIP3      OH2           -20.2543608033       17.4572095362       55.5793199977  TIP3      4706            0.0000000000
     36369      4898  TIP3      H1            -21.0585846538       17.3209827213       55.0326229606  TIP3      4706            0.0000000000
     36370      4898  TIP3      H2            -20.3706383338       18.4042380533       55.7963329013  TIP3      4706            0.0000000000
     36371      4899  TIP3      OH2            -5.8042318795       11.3352726679       45.5485882378  TIP3      4707            0.0000000000
     36372      4899  TIP3      H1             -5.8253414592       12.3157581457       45.5339567125  TIP3      4707            0.0000000000
     36373      4899  TIP3      H2             -6.5412724154       11.1079041161       44.9577090951  TIP3      4707            0.0000000000
     36374      4900  TIP3      OH2            -6.9526687921       10.5871756185       49.0607788104  TIP3      4708            0.0000000000
     36375      4900  TIP3      H1             -6.9723687515        9.9405345726       49.7810225018  TIP3      4708            0.0000000000
     36376      4900  TIP3      H2             -7.3062666437       10.0797045613       48.3095734616  TIP3      4708            0.0000000000
     36377      4901  TIP3      OH2           -14.5954601744       10.2635451011       50.6010471663  TIP3      4709            0.0000000000
     36378      4901  TIP3      H1            -14.5189816109        9.5813485429       51.3019004828  TIP3      4709            0.0000000000
     36379      4901  TIP3      H2            -13.8519434749       10.8384781319       50.8337044337  TIP3      4709            0.0000000000
     36380      4902  TIP3      OH2            -3.2707187559       13.5367472180       47.3457910141  TIP3      4710            0.0000000000
     36381      4902  TIP3      H1             -3.6738726464       12.8178024734       47.8424604564  TIP3      4710            0.0000000000
     36382      4902  TIP3      H2             -3.2443817864       14.2460704332       48.0150157136  TIP3      4710            0.0000000000
     36383      4903  TIP3      OH2           -13.6763515167       14.7117998168       49.1469303399  TIP3      4711            0.0000000000
     36384      4903  TIP3      H1            -13.9838367343       13.8573094479       48.7784255480  TIP3      4711            0.0000000000
     36385      4903  TIP3      H2            -12.7210867427       14.5267873775       49.1433366978  TIP3      4711            0.0000000000
     36386      4904  TIP3      OH2           -17.0550107637        8.2516830326       44.6261704358  TIP3      4712            0.0000000000
     36387      4904  TIP3      H1            -17.4445921349        9.1461845229       44.5367661919  TIP3      4712            0.0000000000
     36388      4904  TIP3      H2            -17.6020383612        7.7397622816       44.0217696140  TIP3      4712            0.0000000000
     36389      4905  TIP3      OH2           -16.3290820719       10.4882849470       46.7430439087  TIP3      4713            0.0000000000
     36390      4905  TIP3      H1            -16.0199256674        9.6791037976       47.1846901749  TIP3      4713            0.0000000000
     36391      4905  TIP3      H2            -15.6419839734       10.6572598222       46.0645098134  TIP3      4713            0.0000000000
     36392      4906  TIP3      OH2            -6.1439704705       18.6952034701       47.5820510658  TIP3      4714            0.0000000000
     36393      4906  TIP3      H1             -5.4953228402       18.0125998269       47.2856781226  TIP3      4714            0.0000000000
     36394      4906  TIP3      H2             -6.3591501253       18.3555002995       48.4495134057  TIP3      4714            0.0000000000
     36395      4907  TIP3      OH2            -8.5792386003       12.9857718391       49.5348910234  TIP3      4715            0.0000000000
     36396      4907  TIP3      H1             -8.2425070086       12.3620693345       48.8737681156  TIP3      4715            0.0000000000
     36397      4907  TIP3      H2             -7.7685197263       13.1464983932       50.0484075144  TIP3      4715            0.0000000000
     36398      4908  TIP3      OH2            -0.0275927163        4.7064673815       50.2225188929  TIP3      4716            0.0000000000
     36399      4908  TIP3      H1              0.1956324185        5.2033238753       51.0480690355  TIP3      4716            0.0000000000
     36400      4908  TIP3      H2              0.6690955946        5.0069957037       49.6426169871  TIP3      4716            0.0000000000
     36401      4909  TIP3      OH2            -5.4120137947        7.4588710168       49.8476201274  TIP3      4717            0.0000000000
     36402      4909  TIP3      H1             -5.2593747834        6.4974770127       49.8562291054  TIP3      4717            0.0000000000
     36403      4909  TIP3      H2             -5.5178773240        7.5963954606       48.8863149122  TIP3      4717            0.0000000000
     36404      4910  TIP3      OH2           -12.3002922375        5.5366451241       47.0682311908  TIP3      4718            0.0000000000
     36405      4910  TIP3      H1            -12.1852258071        6.3700396048       46.5741543070  TIP3      4718            0.0000000000
     36406      4910  TIP3      H2            -12.6979001480        4.9689925748       46.3736764776  TIP3      4718            0.0000000000
     36407      4911  TIP3      OH2            -4.5598882790        5.6311329486       45.4406549004  TIP3      4719            0.0000000000
     36408      4911  TIP3      H1             -3.9117714789        5.3005321304       46.0981185540  TIP3      4719            0.0000000000
     36409      4911  TIP3      H2             -4.0051589150        6.2025437061       44.8914328644  TIP3      4719            0.0000000000
     36410      4912  TIP3      OH2           -15.6860843139        7.9326577395       47.8124973065  TIP3      4720            0.0000000000
     36411      4912  TIP3      H1            -15.0093330146        7.3939351396       48.2633181609  TIP3      4720            0.0000000000
     36412      4912  TIP3      H2            -15.5605056146        7.6614914847       46.8875337178  TIP3      4720            0.0000000000
     36413      4913  TIP3      OH2           -10.4995035872        9.4989798295       47.1322373369  TIP3      4721            0.0000000000
     36414      4913  TIP3      H1             -9.8321708542        8.9077768542       47.5184042749  TIP3      4721            0.0000000000
     36415      4913  TIP3      H2            -11.0314224787        8.8689795146       46.6050025413  TIP3      4721            0.0000000000
     36416      4914  TIP3      OH2             0.4488624500        6.0560694736       52.5182178248  TIP3      4722            0.0000000000
     36417      4914  TIP3      H1             -0.1524801937        6.8285265217       52.4450941799  TIP3      4722            0.0000000000
     36418      4914  TIP3      H2              0.5045414034        5.9622866777       53.4805765103  TIP3      4722            0.0000000000
     36419      4915  TIP3      OH2           -13.3882366482        4.4467565445       51.1012853050  TIP3      4723            0.0000000000
     36420      4915  TIP3      H1            -13.6709382861        5.0180442560       50.3556612209  TIP3      4723            0.0000000000
     36421      4915  TIP3      H2            -14.0659484327        4.6748589971       51.7834980476  TIP3      4723            0.0000000000
     36422      4916  TIP3      OH2            -6.1003214638       13.9218716482       44.6448760395  TIP3      4724            0.0000000000
     36423      4916  TIP3      H1             -6.3639058711       13.6515528576       43.7575606280  TIP3      4724            0.0000000000
     36424      4916  TIP3      H2             -6.4082009188       14.8543885868       44.7010887639  TIP3      4724            0.0000000000
     36425      4917  TIP3      OH2           -10.8764034418       12.0887449392       51.3412078137  TIP3      4725            0.0000000000
     36426      4917  TIP3      H1            -11.5818079478       12.7335105787       51.5598151027  TIP3      4725            0.0000000000
     36427      4917  TIP3      H2            -10.1704410908       12.6872298663       51.0482938001  TIP3      4725            0.0000000000
     36428      4918  TIP3      OH2            -2.7225117718        4.9751292925       47.4231744293  TIP3      4726            0.0000000000
     36429      4918  TIP3      H1             -3.0055593030        4.1988791309       47.9275483114  TIP3      4726            0.0000000000
     36430      4918  TIP3      H2             -2.1102998064        5.3913267267       48.0359730442  TIP3      4726            0.0000000000
     36431      4919  TIP3      OH2           -13.8194635228        6.3022575633       49.1388930237  TIP3      4727            0.0000000000
     36432      4919  TIP3      H1            -13.1913429099        6.9916450778       49.4480968173  TIP3      4727            0.0000000000
     36433      4919  TIP3      H2            -13.3051365744        5.8917252547       48.3986228740  TIP3      4727            0.0000000000
     36434      4920  TIP3      OH2           -12.4278338343       14.0946484195       52.1616389849  TIP3      4728            0.0000000000
     36435      4920  TIP3      H1            -12.4769995881       15.0071861503       51.8224934605  TIP3      4728            0.0000000000
     36436      4920  TIP3      H2            -13.3109660301       14.0140608773       52.6030253375  TIP3      4728            0.0000000000
     36437      4921  TIP3      OH2           -16.6465291306       13.8242666329       42.8941778391  TIP3      4729            0.0000000000
     36438      4921  TIP3      H1            -16.5594978109       14.1119698021       41.9819701003  TIP3      4729            0.0000000000
     36439      4921  TIP3      H2            -16.2400457249       14.5222656799       43.4411621228  TIP3      4729            0.0000000000
     36440      4922  TIP3      OH2            -2.7400636080       15.3766519524       49.7138125801  TIP3      4730            0.0000000000
     36441      4922  TIP3      H1             -3.7089229282       15.4887907084       49.8319380665  TIP3      4730            0.0000000000
     36442      4922  TIP3      H2             -2.4709406504       16.2920201799       49.5090603940  TIP3      4730            0.0000000000
     36443      4923  TIP3      OH2            -2.4314129843        3.6636594093       51.1009070910  TIP3      4731            0.0000000000
     36444      4923  TIP3      H1             -3.1675893246        4.2829407978       51.0166290364  TIP3      4731            0.0000000000
     36445      4923  TIP3      H2             -1.7179106415        4.0775166773       50.5824354375  TIP3      4731            0.0000000000
     36446      4924  TIP3      OH2            -9.4640490522        1.7806917139       48.5498232637  TIP3      4732            0.0000000000
     36447      4924  TIP3      H1             -9.5776681802        0.8109512940       48.4969628769  TIP3      4732            0.0000000000
     36448      4924  TIP3      H2            -10.3366037203        2.0673800856       48.8820219947  TIP3      4732            0.0000000000
     36449      4925  TIP3      OH2            -4.4654545045       17.1491657900       46.3163035643  TIP3      4733            0.0000000000
     36450      4925  TIP3      H1             -4.0503350867       16.4419362200       45.7837564588  TIP3      4733            0.0000000000
     36451      4925  TIP3      H2             -4.0655101175       17.9513023725       45.9078908052  TIP3      4733            0.0000000000
     36452      4926  TIP3      OH2            -3.2647802391       15.0863522562       44.8201475161  TIP3      4734            0.0000000000
     36453      4926  TIP3      H1             -3.5685513786       14.3901012098       44.2161945110  TIP3      4734            0.0000000000
     36454      4926  TIP3      H2             -3.2329772143       14.5957229387       45.6611283882  TIP3      4734            0.0000000000
     36455      4927  TIP3      OH2            -1.6553063892       13.6850380905       53.3153451527  TIP3      4735            0.0000000000
     36456      4927  TIP3      H1             -1.5074083993       13.0325737480       52.5949667584  TIP3      4735            0.0000000000
     36457      4927  TIP3      H2             -1.4500691098       14.5301675398       52.8752723325  TIP3      4735            0.0000000000
     36458      4928  TIP3      OH2            -7.1344431687       10.5711553551       43.0833962534  TIP3      4736            0.0000000000
     36459      4928  TIP3      H1             -7.8348183663       11.1441384730       42.7143369589  TIP3      4736            0.0000000000
     36460      4928  TIP3      H2             -6.4371489144       10.6641553334       42.4111899911  TIP3      4736            0.0000000000
     36461      4929  TIP3      OH2            -7.0723438257        9.1401552221       40.0843481992  TIP3      4737            0.0000000000
     36462      4929  TIP3      H1             -6.3676801912        9.1212996954       40.7494693090  TIP3      4737            0.0000000000
     36463      4929  TIP3      H2             -6.7664852646        8.4214112759       39.5161590053  TIP3      4737            0.0000000000
     36464      4930  TIP3      OH2             0.1943396801        9.9689128321       51.2981129797  TIP3      4738            0.0000000000
     36465      4930  TIP3      H1             -0.4208836545       10.7245068032       51.4098436010  TIP3      4738            0.0000000000
     36466      4930  TIP3      H2              0.7532428700       10.2801435341       50.5649347782  TIP3      4738            0.0000000000
     36467      4931  TIP3      OH2            -3.6968964375       10.7783525822       43.9953081702  TIP3      4739            0.0000000000
     36468      4931  TIP3      H1             -4.4466820458       11.0249965932       44.5916998702  TIP3      4739            0.0000000000
     36469      4931  TIP3      H2             -3.2342772608       10.1058367521       44.5180487379  TIP3      4739            0.0000000000
     36470      4932  TIP3      OH2            -3.7728638213        8.9464273630       53.1239814208  TIP3      4740            0.0000000000
     36471      4932  TIP3      H1             -3.7701299734        9.7677023731       53.6432681410  TIP3      4740            0.0000000000
     36472      4932  TIP3      H2             -4.4027496687        9.2358845857       52.4306944298  TIP3      4740            0.0000000000
     36473      4933  TIP3      OH2           -12.0261185837       11.4327437150       45.9487870171  TIP3      4741            0.0000000000
     36474      4933  TIP3      H1            -12.4453588538       11.1113589114       45.1194765387  TIP3      4741            0.0000000000
     36475      4933  TIP3      H2            -11.4563358436       10.6990711534       46.2475950435  TIP3      4741            0.0000000000
     36476      4934  TIP3      OH2           -10.7816148211       14.8181671326       48.5856277752  TIP3      4742            0.0000000000
     36477      4934  TIP3      H1            -10.7948144557       14.2926182511       47.7731080978  TIP3      4742            0.0000000000
     36478      4934  TIP3      H2             -9.9956258989       14.4662219823       49.0455116238  TIP3      4742            0.0000000000
     36479      4935  TIP3      OH2           -11.7642909151       10.1860038631       49.5763574721  TIP3      4743            0.0000000000
     36480      4935  TIP3      H1            -11.2200709943       10.2917977722       48.7707275479  TIP3      4743            0.0000000000
     36481      4935  TIP3      H2            -11.3747246845       10.8526607056       50.1851307260  TIP3      4743            0.0000000000
     36482      4936  TIP3      OH2            -5.3436729295       15.7595907696       50.2843509826  TIP3      4744            0.0000000000
     36483      4936  TIP3      H1             -5.6356706871       16.3969253393       50.9418733703  TIP3      4744            0.0000000000
     36484      4936  TIP3      H2             -5.6027522072       14.9072562134       50.7057041111  TIP3      4744            0.0000000000
     36485      4937  TIP3      OH2           -10.8115717826       14.6186208507       54.2718406085  TIP3      4745            0.0000000000
     36486      4937  TIP3      H1            -11.2266037218       15.3574463032       54.7621552506  TIP3      4745            0.0000000000
     36487      4937  TIP3      H2            -11.4840294372       14.4186063872       53.5745999371  TIP3      4745            0.0000000000
     36488      4938  TIP3      OH2            -4.8269372704        9.9854974516       41.6614028476  TIP3      4746            0.0000000000
     36489      4938  TIP3      H1             -4.2713599009       10.1589145503       42.4616067544  TIP3      4746            0.0000000000
     36490      4938  TIP3      H2             -4.3756475985       10.4791055178       40.9399967523  TIP3      4746            0.0000000000
     36491      4939  TIP3      OH2           -13.8698509541       10.7773255740       53.4239981971  TIP3      4747            0.0000000000
     36492      4939  TIP3      H1            -13.8164490110       11.4462542646       54.1324628969  TIP3      4747            0.0000000000
     36493      4939  TIP3      H2            -14.8121854048       10.8661779473       53.2126649061  TIP3      4747            0.0000000000
     36494      4940  TIP3      OH2            -7.1379191291       16.6959189301       45.1519897083  TIP3      4748            0.0000000000
     36495      4940  TIP3      H1             -6.6807589555       17.0305324568       45.9296763304  TIP3      4748            0.0000000000
     36496      4940  TIP3      H2             -7.6748890010       17.4564464101       44.8924238393  TIP3      4748            0.0000000000
     36497      4941  TIP3      OH2           -12.5647513802       16.6523403356       55.0189131558  TIP3      4749            0.0000000000
     36498      4941  TIP3      H1            -12.6263223638       16.5538299625       54.0533577458  TIP3      4749            0.0000000000
     36499      4941  TIP3      H2            -13.4945438821       16.5188014851       55.2866858794  TIP3      4749            0.0000000000
     36500      4942  TIP3      OH2            -1.1041442846        1.7151977372       41.5682369373  TIP3      4750            0.0000000000
     36501      4942  TIP3      H1             -2.0515245627        1.8291476918       41.8060171787  TIP3      4750            0.0000000000
     36502      4942  TIP3      H2             -0.9021191088        2.5546038279       41.1214929412  TIP3      4750            0.0000000000
     36503      4943  TIP3      OH2           -12.8633719707       10.1312863703       43.2032202025  TIP3      4751            0.0000000000
     36504      4943  TIP3      H1            -13.1704932787       11.0722522423       43.1372330928  TIP3      4751            0.0000000000
     36505      4943  TIP3      H2            -13.7322742827        9.7564460499       43.3662721431  TIP3      4751            0.0000000000
     36506      4944  TIP3      OH2             0.0059688043       16.0725680045       39.9155723335  TIP3      4752            0.0000000000
     36507      4944  TIP3      H1              0.1640266318       17.0176332653       40.0935908147  TIP3      4752            0.0000000000
     36508      4944  TIP3      H2              0.9303056034       15.7605205157       39.9121788287  TIP3      4752            0.0000000000
     36509      4945  TIP3      OH2           -17.0403188334       12.8929572487       52.4324941940  TIP3      4753            0.0000000000
     36510      4945  TIP3      H1            -17.4786448797       12.8119162975       51.5650847415  TIP3      4753            0.0000000000
     36511      4945  TIP3      H2            -16.9540675590       11.9438774958       52.6446772127  TIP3      4753            0.0000000000
     36512      4946  TIP3      OH2           -17.2750495224       15.6283067874       49.2036362276  TIP3      4754            0.0000000000
     36513      4946  TIP3      H1            -16.3166995951       15.5128942901       49.1852256639  TIP3      4754            0.0000000000
     36514      4946  TIP3      H2            -17.3571901350       16.4464220336       49.7086583995  TIP3      4754            0.0000000000
     36515      4947  TIP3      OH2             0.9658774045       16.3329682277       54.8968344355  TIP3      4755            0.0000000000
     36516      4947  TIP3      H1              0.8471607711       15.3741140951       54.8665581252  TIP3      4755            0.0000000000
     36517      4947  TIP3      H2              0.0916377039       16.5812637490       55.2800732951  TIP3      4755            0.0000000000
     36518      4948  TIP3      OH2            -8.0787778125       15.8717639087       53.7552630540  TIP3      4756            0.0000000000
     36519      4948  TIP3      H1             -8.0197920973       16.7142892701       54.2640331289  TIP3      4756            0.0000000000
     36520      4948  TIP3      H2             -8.9511414678       15.5125867509       54.0074562211  TIP3      4756            0.0000000000
     36521      4949  TIP3      OH2            -7.7780538094       19.5712569156       43.5512633752  TIP3      4757            0.0000000000
     36522      4949  TIP3      H1             -7.7165508584       19.5402756092       42.5825801571  TIP3      4757            0.0000000000
     36523      4949  TIP3      H2             -7.5472025260       20.5191746586       43.7016118118  TIP3      4757            0.0000000000
     36524      4950  TIP3      OH2           -13.9997426723       18.4948036692       45.3713000240  TIP3      4758            0.0000000000
     36525      4950  TIP3      H1            -13.8495224546       18.0888748361       46.2516342036  TIP3      4758            0.0000000000
     36526      4950  TIP3      H2            -14.8384208873       18.0578587738       45.1301082240  TIP3      4758            0.0000000000
     36527      4951  TIP3      OH2            -4.5751685314       18.8329232532       40.5168668076  TIP3      4759            0.0000000000
     36528      4951  TIP3      H1             -4.1209150325       18.0714027397       40.0975703099  TIP3      4759            0.0000000000
     36529      4951  TIP3      H2             -4.5365406006       18.5738837967       41.4646652751  TIP3      4759            0.0000000000
     36530      4952  TIP3      OH2            -4.8702348039       18.6635589678       43.2526027400  TIP3      4760            0.0000000000
     36531      4952  TIP3      H1             -5.7952939136       18.8957946152       43.4819577021  TIP3      4760            0.0000000000
     36532      4952  TIP3      H2             -4.6591488394       18.0026200996       43.9183924057  TIP3      4760            0.0000000000
     36533      4953  TIP3      OH2            -1.8882747262        7.8001487586       55.3651107275  TIP3      4761            0.0000000000
     36534      4953  TIP3      H1             -2.3671344922        8.2490702111       54.6483817945  TIP3      4761            0.0000000000
     36535      4953  TIP3      H2             -1.9081099518        6.8779323397       55.0692892768  TIP3      4761            0.0000000000
     36536      4954  TIP3      OH2           -14.7480876663       14.2082994941       53.3693688992  TIP3      4762            0.0000000000
     36537      4954  TIP3      H1            -14.5267620732       13.8437449605       54.2512957801  TIP3      4762            0.0000000000
     36538      4954  TIP3      H2            -15.6176185078       13.8109288291       53.1560565215  TIP3      4762            0.0000000000
     36539      4955  TIP3      OH2           -12.0679618848        2.6828042614       49.3183259193  TIP3      4763            0.0000000000
     36540      4955  TIP3      H1            -12.9709291835        2.5560726022       48.9510867553  TIP3      4763            0.0000000000
     36541      4955  TIP3      H2            -12.2027057959        3.5134906212       49.8034216487  TIP3      4763            0.0000000000
     36542      4956  TIP3      OH2            -7.4248578246        2.3502268940       52.6794945949  TIP3      4764            0.0000000000
     36543      4956  TIP3      H1             -7.0329897438        1.9244558647       53.4652635121  TIP3      4764            0.0000000000
     36544      4956  TIP3      H2             -8.3970252846        2.2326050869       52.8256980463  TIP3      4764            0.0000000000
     36545      4957  TIP3      OH2            -4.1363216204        6.1958281452       53.5745336525  TIP3      4765            0.0000000000
     36546      4957  TIP3      H1             -4.7000850712        5.9824534009       54.3589291529  TIP3      4765            0.0000000000
     36547      4957  TIP3      H2             -4.3219672676        7.1236139431       53.3500765485  TIP3      4765            0.0000000000
     36548      4958  TIP3      OH2            -3.3740150372       11.0075870819       39.4812924869  TIP3      4766            0.0000000000
     36549      4958  TIP3      H1             -3.4008242523       10.8218938259       38.5143237848  TIP3      4766            0.0000000000
     36550      4958  TIP3      H2             -2.5202603725       11.4610525192       39.5282063346  TIP3      4766            0.0000000000
     36551      4959  TIP3      OH2            -7.7843283885        4.9373153329       39.9883809128  TIP3      4767            0.0000000000
     36552      4959  TIP3      H1             -8.0956724898        4.8726115591       40.9100545941  TIP3      4767            0.0000000000
     36553      4959  TIP3      H2             -8.0913596150        4.0595031040       39.6823764696  TIP3      4767            0.0000000000
     36554      4960  TIP3      OH2           -11.9608206161        7.6581205487       50.5888987448  TIP3      4768            0.0000000000
     36555      4960  TIP3      H1            -12.7066747085        7.6478657287       51.2116446781  TIP3      4768            0.0000000000
     36556      4960  TIP3      H2            -12.0132260281        8.5634608313       50.2003761078  TIP3      4768            0.0000000000
     36557      4961  TIP3      OH2           -11.9944101882        7.7267741787       45.4535916312  TIP3      4769            0.0000000000
     36558      4961  TIP3      H1            -12.9424307935        7.5399595192       45.3014574720  TIP3      4769            0.0000000000
     36559      4961  TIP3      H2            -11.6355039998        7.5055487826       44.5722201855  TIP3      4769            0.0000000000
     36560      4962  TIP3      OH2            -6.4880662676        8.2778808782       44.2149681841  TIP3      4770            0.0000000000
     36561      4962  TIP3      H1             -6.8830490987        9.1007966824       43.8429891805  TIP3      4770            0.0000000000
     36562      4962  TIP3      H2             -5.8010966788        8.1081221139       43.5484261014  TIP3      4770            0.0000000000
     36563      4963  TIP3      OH2            -7.4318449646        8.4854790621       55.6418359467  TIP3      4771            0.0000000000
     36564      4963  TIP3      H1             -7.9575803278        7.7104427504       55.9531558660  TIP3      4771            0.0000000000
     36565      4963  TIP3      H2             -6.5943150801        8.3652064760       56.1190740540  TIP3      4771            0.0000000000
     36566      4964  TIP3      OH2            -5.4533278404        7.7698579826       47.0507389892  TIP3      4772            0.0000000000
     36567      4964  TIP3      H1             -5.7347666739        8.3321837445       46.3110084658  TIP3      4772            0.0000000000
     36568      4964  TIP3      H2             -5.3717351493        6.9183399734       46.5796770395  TIP3      4772            0.0000000000
     36569      4965  TIP3      OH2           -14.3452897401        7.9066045946       52.2496133049  TIP3      4773            0.0000000000
     36570      4965  TIP3      H1            -14.2618011096        8.3140387411       53.1293809005  TIP3      4773            0.0000000000
     36571      4965  TIP3      H2            -14.7859474414        7.0680352228       52.4594104553  TIP3      4773            0.0000000000
     36572      4966  TIP3      OH2           -10.9740137932        5.3047143589       39.1055994109  TIP3      4774            0.0000000000
     36573      4966  TIP3      H1            -11.4262478985        4.8824415574       39.8642330029  TIP3      4774            0.0000000000
     36574      4966  TIP3      H2            -11.6836608711        5.7333738882       38.6148475719  TIP3      4774            0.0000000000
     36575      4967  TIP3      OH2           -17.6876934338        5.0124531169       46.2430482659  TIP3      4775            0.0000000000
     36576      4967  TIP3      H1            -17.0015000009        4.9778196374       46.9400235700  TIP3      4775            0.0000000000
     36577      4967  TIP3      H2            -17.2383674155        4.6428524485       45.4592236866  TIP3      4775            0.0000000000
     36578      4968  TIP3      OH2           -16.4307206414        5.7088774813       41.5949789836  TIP3      4776            0.0000000000
     36579      4968  TIP3      H1            -15.9004593261        6.3152432585       41.0500864651  TIP3      4776            0.0000000000
     36580      4968  TIP3      H2            -17.1103923783        6.3465093120       41.9064648986  TIP3      4776            0.0000000000
     36581      4969  TIP3      OH2            -6.2562128047        9.3496221917       51.6042946191  TIP3      4777            0.0000000000
     36582      4969  TIP3      H1             -5.8756446421        8.6636159936       51.0193590779  TIP3      4777            0.0000000000
     36583      4969  TIP3      H2             -6.7226406627        8.8221842846       52.2770989100  TIP3      4777            0.0000000000
     36584      4970  TIP3      OH2            -9.4547500459        5.3339538140       46.4419207698  TIP3      4778            0.0000000000
     36585      4970  TIP3      H1            -10.3886196849        5.3316644455       46.7354477091  TIP3      4778            0.0000000000
     36586      4970  TIP3      H2             -8.9712176422        5.1568065449       47.2631328349  TIP3      4778            0.0000000000
     36587      4971  TIP3      OH2           -14.6505601347        6.8584624647       45.3341335940  TIP3      4779            0.0000000000
     36588      4971  TIP3      H1            -15.5161298988        7.0498350967       44.9145091704  TIP3      4779            0.0000000000
     36589      4971  TIP3      H2            -14.3611805199        6.0373247080       44.8972406051  TIP3      4779            0.0000000000
     36590      4972  TIP3      OH2           -10.9979043791        6.9233485334       42.9347554007  TIP3      4780            0.0000000000
     36591      4972  TIP3      H1            -10.0445892091        7.0419616003       43.0926925682  TIP3      4780            0.0000000000
     36592      4972  TIP3      H2            -11.2459678023        7.6187403854       42.2931595930  TIP3      4780            0.0000000000
     36593      4973  TIP3      OH2            -5.0483329971        4.5646771520       49.6787232452  TIP3      4781            0.0000000000
     36594      4973  TIP3      H1             -5.7281504689        4.6113719402       50.3860384202  TIP3      4781            0.0000000000
     36595      4973  TIP3      H2             -5.5570737156        4.3062516785       48.8975951326  TIP3      4781            0.0000000000
     36596      4974  TIP3      OH2           -12.2776381599        8.0761698116       40.5203847884  TIP3      4782            0.0000000000
     36597      4974  TIP3      H1            -12.8148537574        7.7110412521       39.8027978381  TIP3      4782            0.0000000000
     36598      4974  TIP3      H2            -11.4643392386        8.3041261485       40.0437487915  TIP3      4782            0.0000000000
     36599      4975  TIP3      OH2            -1.8467662331       20.2038932218       56.0067486144  TIP3      4783            0.0000000000
     36600      4975  TIP3      H1             -1.5800845749       20.5877881703       55.1525182526  TIP3      4783            0.0000000000
     36601      4975  TIP3      H2             -1.1226644438       20.5240725403       56.5655508933  TIP3      4783            0.0000000000
     36602      4976  TIP3      OH2           -14.1695599705       12.6735638923       55.5789122919  TIP3      4784            0.0000000000
     36603      4976  TIP3      H1            -13.4492136542       12.9190707727       56.1823128218  TIP3      4784            0.0000000000
     36604      4976  TIP3      H2            -14.9422259945       12.7537319901       56.1800369990  TIP3      4784            0.0000000000
     36605      4977  TIP3      OH2            -8.1701945180        8.0839607680       48.3344374961  TIP3      4785            0.0000000000
     36606      4977  TIP3      H1             -7.5702065463        7.5508631083       47.7997930768  TIP3      4785            0.0000000000
     36607      4977  TIP3      H2             -8.3158974413        7.5340361184       49.1160107762  TIP3      4785            0.0000000000
     36608      4978  TIP3      OH2           -13.1596712665        4.2293547389       44.7690932045  TIP3      4786            0.0000000000
     36609      4978  TIP3      H1            -13.4692315597        3.3052987979       44.7636223327  TIP3      4786            0.0000000000
     36610      4978  TIP3      H2            -12.3680533392        4.1610146582       44.2220123808  TIP3      4786            0.0000000000
     36611      4979  TIP3      OH2            -9.5294903574        6.4145563445       50.7553626312  TIP3      4787            0.0000000000
     36612      4979  TIP3      H1            -10.3562267796        6.9325439745       50.8383162735  TIP3      4787            0.0000000000
     36613      4979  TIP3      H2             -8.9751622752        6.7673874641       51.4746136811  TIP3      4787            0.0000000000
     36614      4980  TIP3      OH2            -8.9412830492       12.6290444141       42.4478715713  TIP3      4788            0.0000000000
     36615      4980  TIP3      H1             -9.7505561091       12.1695581295       42.1139405050  TIP3      4788            0.0000000000
     36616      4980  TIP3      H2             -9.1819351253       12.7597964912       43.3879181308  TIP3      4788            0.0000000000
     36617      4981  TIP3      OH2            -1.7539994939       11.8372620421       51.2484434852  TIP3      4789            0.0000000000
     36618      4981  TIP3      H1             -1.1932094436       12.3240918353       50.6175880489  TIP3      4789            0.0000000000
     36619      4981  TIP3      H2             -2.6146165431       11.8814111348       50.7849586594  TIP3      4789            0.0000000000
     36620      4982  TIP3      OH2            -5.1151746228        5.4472184845       40.6223787406  TIP3      4790            0.0000000000
     36621      4982  TIP3      H1             -6.0654343560        5.6018461583       40.4854714421  TIP3      4790            0.0000000000
     36622      4982  TIP3      H2             -4.7733977126        6.2988943548       40.9701346813  TIP3      4790            0.0000000000
     36623      4983  TIP3      OH2            -7.4499653203       12.9055935094       53.6908433132  TIP3      4791            0.0000000000
     36624      4983  TIP3      H1             -7.7999169218       12.4753255346       54.4778564176  TIP3      4791            0.0000000000
     36625      4983  TIP3      H2             -7.7068124793       13.8267013070       53.7976322838  TIP3      4791            0.0000000000
     36626      4984  TIP3      OH2            -4.3733550047        7.3691271289       42.2459514245  TIP3      4792            0.0000000000
     36627      4984  TIP3      H1             -3.4916956758        7.2368528288       42.6556241838  TIP3      4792            0.0000000000
     36628      4984  TIP3      H2             -4.2712939320        8.1894862574       41.7343593272  TIP3      4792            0.0000000000
     36629      4985  TIP3      OH2           -13.8093978114       12.0345886111       48.2827988741  TIP3      4793            0.0000000000
     36630      4985  TIP3      H1            -13.1774353181       11.9542012753       47.5382705316  TIP3      4793            0.0000000000
     36631      4985  TIP3      H2            -13.7729869702       11.1555566423       48.6840499800  TIP3      4793            0.0000000000
     36632      4986  TIP3      OH2            -6.8458286437       14.1008734973       41.4779232199  TIP3      4794            0.0000000000
     36633      4986  TIP3      H1             -7.1905928794       14.9474980268       41.8320929070  TIP3      4794            0.0000000000
     36634      4986  TIP3      H2             -7.5780796071       13.4850044845       41.6960263582  TIP3      4794            0.0000000000
     36635      4987  TIP3      OH2           -16.8425669212       10.4306533016       53.5070372888  TIP3      4795            0.0000000000
     36636      4987  TIP3      H1            -16.6726998740        9.9864725734       54.3605330596  TIP3      4795            0.0000000000
     36637      4987  TIP3      H2            -17.4632674619        9.8219331298       53.0680018831  TIP3      4795            0.0000000000
     36638      4988  TIP3      OH2            -9.8300084118        9.9920693084       55.6828276888  TIP3      4796            0.0000000000
     36639      4988  TIP3      H1            -10.1498707660        9.6828431819       54.8231146018  TIP3      4796            0.0000000000
     36640      4988  TIP3      H2             -8.9073050923        9.6673452654       55.6813592347  TIP3      4796            0.0000000000
     36641      4989  TIP3      OH2            -5.1431992424       15.3278723311       53.6393365230  TIP3      4797            0.0000000000
     36642      4989  TIP3      H1             -6.0683912593       15.5060577985       53.4048572002  TIP3      4797            0.0000000000
     36643      4989  TIP3      H2             -5.1768606176       15.6211676188       54.5698571525  TIP3      4797            0.0000000000
     36644      4990  TIP3      OH2             0.5284498182        7.5006422483       42.0295808112  TIP3      4798            0.0000000000
     36645      4990  TIP3      H1             -0.0412873177        7.2198228969       41.2862950757  TIP3      4798            0.0000000000
     36646      4990  TIP3      H2              0.6019317754        8.4506503244       41.7768981377  TIP3      4798            0.0000000000
     36647      4991  TIP3      OH2             0.5104507707       13.3696454894       54.8316511293  TIP3      4799            0.0000000000
     36648      4991  TIP3      H1             -0.3818003020       13.5909297898       54.4665742944  TIP3      4799            0.0000000000
     36649      4991  TIP3      H2              1.0556253185       13.3181896259       54.0194969316  TIP3      4799            0.0000000000
     36650      4992  TIP3      OH2            -1.2314987858       16.3421421713       42.4163387865  TIP3      4800            0.0000000000
     36651      4992  TIP3      H1             -1.5528715396       15.5017166259       42.7680143218  TIP3      4800            0.0000000000
     36652      4992  TIP3      H2             -0.8673282184       16.1199888437       41.5430669319  TIP3      4800            0.0000000000
     36653      4993  TIP3      OH2            -3.9819325174       11.1574944126       49.5364673460  TIP3      4801            0.0000000000
     36654      4993  TIP3      H1             -4.9237778642       10.9472920590       49.4217800158  TIP3      4801            0.0000000000
     36655      4993  TIP3      H2             -3.5585592525       10.4044174759       49.0946966795  TIP3      4801            0.0000000000
     36656      4994  TIP3      OH2           -11.4807698600       15.4578804904       45.6200797789  TIP3      4802            0.0000000000
     36657      4994  TIP3      H1            -10.9855208385       16.2691924387       45.4148649097  TIP3      4802            0.0000000000
     36658      4994  TIP3      H2            -12.3608814702       15.6750727389       45.2855505919  TIP3      4802            0.0000000000
     36659      4995  TIP3      OH2           -15.7310489289       10.3099813230       40.1461431546  TIP3      4803            0.0000000000
     36660      4995  TIP3      H1            -15.1257892792       10.9605862301       40.5893947720  TIP3      4803            0.0000000000
     36661      4995  TIP3      H2            -16.5812425412       10.6349663264       40.5013483492  TIP3      4803            0.0000000000
     36662      4996  TIP3      OH2           -10.0222186755       13.1532396714       45.1661027537  TIP3      4804            0.0000000000
     36663      4996  TIP3      H1            -10.3805475090       14.0593239571       45.2307437342  TIP3      4804            0.0000000000
     36664      4996  TIP3      H2            -10.7694444120       12.6537161925       45.5658989333  TIP3      4804            0.0000000000
     36665      4997  TIP3      OH2            -9.5944177477       17.3340596916       51.5611620105  TIP3      4805            0.0000000000
     36666      4997  TIP3      H1             -9.1328191479       18.1384804490       51.2717547621  TIP3      4805            0.0000000000
     36667      4997  TIP3      H2             -8.9775326520       16.9909008746       52.2335833599  TIP3      4805            0.0000000000
     36668      4998  TIP3      OH2           -11.3636207385       18.1370124361       44.6732125405  TIP3      4806            0.0000000000
     36669      4998  TIP3      H1            -12.3238217946       18.2934913393       44.8080618720  TIP3      4806            0.0000000000
     36670      4998  TIP3      H2            -10.9965362361       18.9736527580       45.0151792507  TIP3      4806            0.0000000000
     36671      4999  TIP3      OH2            -6.0766613751       13.3262540090       51.1749092426  TIP3      4807            0.0000000000
     36672      4999  TIP3      H1             -6.3950292076       13.1375295517       52.0822899162  TIP3      4807            0.0000000000
     36673      4999  TIP3      H2             -5.4313560678       12.6201964014       51.0092144126  TIP3      4807            0.0000000000
     36674      5000  TIP3      OH2            -3.7295371861       14.4077953625       40.2649789904  TIP3      4808            0.0000000000
     36675      5000  TIP3      H1             -3.4361801653       13.9342476275       41.0695159901  TIP3      4808            0.0000000000
     36676      5000  TIP3      H2             -4.6836077853       14.2242944009       40.3465282191  TIP3      4808            0.0000000000
     36677      5001  TIP3      OH2            -3.2508968193       17.9123887391       53.6636493502  TIP3      4809            0.0000000000
     36678      5001  TIP3      H1             -3.9441611602       17.4190192251       53.1856326322  TIP3      4809            0.0000000000
     36679      5001  TIP3      H2             -3.0694673326       18.6130483154       53.0024400537  TIP3      4809            0.0000000000
     36680      5002  TIP3      OH2             0.7279734977       18.7593002139       40.5188372667  TIP3      4810            0.0000000000
     36681      5002  TIP3      H1              1.4197547441       19.4219698442       40.3144110023  TIP3      4810            0.0000000000
     36682      5002  TIP3      H2              0.0149064257       19.3736844481       40.8085500328  TIP3      4810            0.0000000000
     36683      5003  TIP3      OH2           -15.1926196722        5.1661707869       53.0533254458  TIP3      4811            0.0000000000
     36684      5003  TIP3      H1            -16.0989433178        5.5183940797       53.0352889785  TIP3      4811            0.0000000000
     36685      5003  TIP3      H2            -15.3039974720        4.3207758486       53.5164092443  TIP3      4811            0.0000000000
     36686      5004  TIP3      OH2            -2.9572355652       13.0344037325       42.5063790530  TIP3      4812            0.0000000000
     36687      5004  TIP3      H1             -3.1952459939       12.2504555844       43.0445937862  TIP3      4812            0.0000000000
     36688      5004  TIP3      H2             -2.0037275251       13.0836486111       42.6861566085  TIP3      4812            0.0000000000
     36689      5005  TIP3      OH2           -15.5809826898       16.9493541768       51.4828236394  TIP3      4813            0.0000000000
     36690      5005  TIP3      H1            -15.2735913373       16.0305131313       51.4901963013  TIP3      4813            0.0000000000
     36691      5005  TIP3      H2            -15.3171786514       17.2412402656       52.3624874293  TIP3      4813            0.0000000000
     36692      5006  TIP3      OH2            -9.6034434123       15.4775009013       38.7612706023  TIP3      4814            0.0000000000
     36693      5006  TIP3      H1             -9.5041035963       14.7130568230       38.1714927320  TIP3      4814            0.0000000000
     36694      5006  TIP3      H2            -10.0474239338       15.0487804382       39.5245093366  TIP3      4814            0.0000000000
     36695      5007  TIP3      OH2           -10.8578625582       15.0007794460       41.2159436030  TIP3      4815            0.0000000000
     36696      5007  TIP3      H1            -10.5713800944       14.4837248912       41.9814732197  TIP3      4815            0.0000000000
     36697      5007  TIP3      H2            -10.7471958466       15.9253989159       41.5435950094  TIP3      4815            0.0000000000
     36698      5008  TIP3      OH2           -14.4221781448       12.3469262286       41.2749694280  TIP3      4816            0.0000000000
     36699      5008  TIP3      H1            -14.8897029679       12.5087995175       42.1302531985  TIP3      4816            0.0000000000
     36700      5008  TIP3      H2            -13.7306426819       13.0153286039       41.3742114554  TIP3      4816            0.0000000000
     36701      5009  TIP3      OH2            -6.4602443128        4.9395982335       52.0199706375  TIP3      4817            0.0000000000
     36702      5009  TIP3      H1             -5.7450432675        4.9996979033       52.6623406960  TIP3      4817            0.0000000000
     36703      5009  TIP3      H2             -6.8436242654        4.0630794343       52.2236892889  TIP3      4817            0.0000000000
     36704      5010  TIP3      OH2            -5.7164066099        4.5062757114       43.1054099257  TIP3      4818            0.0000000000
     36705      5010  TIP3      H1             -5.4863437251        4.9706746245       42.2760023258  TIP3      4818            0.0000000000
     36706      5010  TIP3      H2             -5.1395838863        4.9509623411       43.7385855155  TIP3      4818            0.0000000000
     36707      5011  TIP3      OH2            -8.0447193511       16.6439286705       41.8789930117  TIP3      4819            0.0000000000
     36708      5011  TIP3      H1             -8.8321006390       17.2139407440       41.9940844275  TIP3      4819            0.0000000000
     36709      5011  TIP3      H2             -7.4806457394       17.2308896781       41.3469862624  TIP3      4819            0.0000000000
     36710      5012  TIP3      OH2            -8.4554878391        6.2291490666       43.9262272656  TIP3      4820            0.0000000000
     36711      5012  TIP3      H1             -7.7005388543        6.8466170246       43.9743346674  TIP3      4820            0.0000000000
     36712      5012  TIP3      H2             -8.7651167468        6.1454815714       44.8480473986  TIP3      4820            0.0000000000
     36713      5013  TIP3      OH2            -7.9339481571        7.2860517411       53.1169239778  TIP3      4821            0.0000000000
     36714      5013  TIP3      H1             -7.8579157677        7.8435707174       53.9153879269  TIP3      4821            0.0000000000
     36715      5013  TIP3      H2             -7.2703200505        6.5912717437       53.2118060985  TIP3      4821            0.0000000000
     36716      5014  TIP3      OH2            -7.6396830625        3.3161006246       44.8035521235  TIP3      4822            0.0000000000
     36717      5014  TIP3      H1             -7.9605691371        3.9623220336       45.4548934016  TIP3      4822            0.0000000000
     36718      5014  TIP3      H2             -6.9458041122        3.8654955717       44.3619118848  TIP3      4822            0.0000000000
     36719      5015  TIP3      OH2           -10.6330926644       17.7016150449       41.9410320470  TIP3      4823            0.0000000000
     36720      5015  TIP3      H1            -10.5349023120       18.5149405418       41.3884885294  TIP3      4823            0.0000000000
     36721      5015  TIP3      H2            -10.8998827576       18.0691467609       42.8118055883  TIP3      4823            0.0000000000
     36722      5016  TIP3      OH2           -11.9795840350        4.4218571506       41.5165895343  TIP3      4824            0.0000000000
     36723      5016  TIP3      H1            -12.0270307996        5.3194308319       41.9011089354  TIP3      4824            0.0000000000
     36724      5016  TIP3      H2            -11.0705596161        4.1781103872       41.7801303417  TIP3      4824            0.0000000000
     36725      5017  TIP3      OH2            -1.7592252261        5.1540419062       53.9707149522  TIP3      4825            0.0000000000
     36726      5017  TIP3      H1             -2.6854393934        5.4697420204       53.8338842170  TIP3      4825            0.0000000000
     36727      5017  TIP3      H2             -1.4567390854        5.1316178525       53.0497842802  TIP3      4825            0.0000000000
     36728      5018  TIP3      OH2            -3.1320690200        8.9218420186       47.9569505390  TIP3      4826            0.0000000000
     36729      5018  TIP3      H1             -3.9787400686        8.5131395687       47.6953084969  TIP3      4826            0.0000000000
     36730      5018  TIP3      H2             -2.7017424859        8.2426523168       48.5065849716  TIP3      4826            0.0000000000
     36731      5019  TIP3      OH2           -13.7481305008       14.9364134564       40.5142860739  TIP3      4827            0.0000000000
     36732      5019  TIP3      H1            -13.0525078569       15.4843241481       40.8949127653  TIP3      4827            0.0000000000
     36733      5019  TIP3      H2            -13.2275181339       14.3875745345       39.8956768204  TIP3      4827            0.0000000000
     36734      5020  TIP3      OH2           -15.3904404217        7.5701194356       39.6104196371  TIP3      4828            0.0000000000
     36735      5020  TIP3      H1            -15.3759490097        8.4885328142       39.9645252312  TIP3      4828            0.0000000000
     36736      5020  TIP3      H2            -16.3103048979        7.3586559866       39.4549947954  TIP3      4828            0.0000000000
     36737      5021  TIP3      OH2            -2.0760892204       18.2012613461       49.6391340373  TIP3      4829            0.0000000000
     36738      5021  TIP3      H1             -2.1653425389       18.8832248495       48.9458265018  TIP3      4829            0.0000000000
     36739      5021  TIP3      H2             -1.1119427222       18.2562919960       49.8132608990  TIP3      4829            0.0000000000
     36740      5022  TIP3      OH2           -14.5857270014        2.3233882471       48.4486147048  TIP3      4830            0.0000000000
     36741      5022  TIP3      H1            -14.7794288940        2.3415281427       47.4854553714  TIP3      4830            0.0000000000
     36742      5022  TIP3      H2            -14.9992793522        1.4703756338       48.6991119842  TIP3      4830            0.0000000000
     36743      5023  TIP3      OH2           -15.6159847163       16.3000465410       44.6310419162  TIP3      4831            0.0000000000
     36744      5023  TIP3      H1            -16.4926102147       16.6858954100       44.5232635877  TIP3      4831            0.0000000000
     36745      5023  TIP3      H2            -15.1492519587       16.6787275165       43.8798977622  TIP3      4831            0.0000000000
     36746      5024  TIP3      OH2           -16.4277936236       18.8969450421       55.8735622757  TIP3      4832            0.0000000000
     36747      5024  TIP3      H1            -15.8214242264       18.6962876644       56.6139194082  TIP3      4832            0.0000000000
     36748      5024  TIP3      H2            -16.8262273101       18.0272478367       55.6934083839  TIP3      4832            0.0000000000
     36749      5025  TIP3      OH2           -11.7436411742       17.8165241780       57.4823484418  TIP3      4833            0.0000000000
     36750      5025  TIP3      H1            -10.9875905417       17.3158281796       57.8160167017  TIP3      4833            0.0000000000
     36751      5025  TIP3      H2            -11.7705745839       17.5361134567       56.5463049052  TIP3      4833            0.0000000000
     36752      5026  TIP3      OH2            -7.6100930316       17.3282117042       38.8780348538  TIP3      4834            0.0000000000
     36753      5026  TIP3      H1             -8.3014167047       16.6696826828       39.1145907304  TIP3      4834            0.0000000000
     36754      5026  TIP3      H2             -6.8908686718       16.7279870498       38.6380091003  TIP3      4834            0.0000000000
     36755      5027  TIP3      OH2            -5.2414762461       16.1992395261       56.2329384857  TIP3      4835            0.0000000000
     36756      5027  TIP3      H1             -5.5564193758       15.3118959420       56.5075258096  TIP3      4835            0.0000000000
     36757      5027  TIP3      H2             -4.4725127839       16.3179949734       56.8250830724  TIP3      4835            0.0000000000
     36758      5028  TIP3      OH2            -3.0519463950       17.0716399788       39.0707507970  TIP3      4836            0.0000000000
     36759      5028  TIP3      H1             -2.7553117500       16.2973724249       39.5759428622  TIP3      4836            0.0000000000
     36760      5028  TIP3      H2             -2.2889926083       17.2994656946       38.5204736614  TIP3      4836            0.0000000000
     36761      5029  TIP3      OH2           -16.5158604229       12.6684832324       56.8718653051  TIP3      4837            0.0000000000
     36762      5029  TIP3      H1            -16.3492460343       11.7570720394       56.5702215355  TIP3      4837            0.0000000000
     36763      5029  TIP3      H2            -17.2553855273       12.9264484595       56.2971030402  TIP3      4837            0.0000000000
     36764      5030  TIP3      OH2           -12.1639563342       13.0277555149       38.8837087135  TIP3      4838            0.0000000000
     36765      5030  TIP3      H1            -12.0597997466       12.2635037752       39.4729840091  TIP3      4838            0.0000000000
     36766      5030  TIP3      H2            -11.4124143987       12.8841814887       38.2789079419  TIP3      4838            0.0000000000
     36767      5031  TIP3      OH2            -9.7978714392       12.6570881841       56.2562853393  TIP3      4839            0.0000000000
     36768      5031  TIP3      H1            -10.1329988865       12.9697051313       55.3928325810  TIP3      4839            0.0000000000
     36769      5031  TIP3      H2             -9.7238215420       11.6796765826       56.1480902370  TIP3      4839            0.0000000000
     36770      5032  TIP3      OH2            -6.7330427188       14.1222863613       38.6680589871  TIP3      4840            0.0000000000
     36771      5032  TIP3      H1             -7.0047926617       14.2042203568       39.5958638170  TIP3      4840            0.0000000000
     36772      5032  TIP3      H2             -6.9236208371       13.1649017813       38.5235643153  TIP3      4840            0.0000000000
     36773      5033  TIP3      OH2            -4.1013818037       12.5163025015       53.6495679295  TIP3      4841            0.0000000000
     36774      5033  TIP3      H1             -3.3138918935       13.0994657475       53.5868792191  TIP3      4841            0.0000000000
     36775      5033  TIP3      H2             -4.8017059288       13.1839972649       53.6843495624  TIP3      4841            0.0000000000
     36776      5034  TIP3      OH2           -15.5926472485        9.8936125440       56.2511737190  TIP3      4842            0.0000000000
     36777      5034  TIP3      H1            -15.1757011778        9.0304762565       56.1608842157  TIP3      4842            0.0000000000
     36778      5034  TIP3      H2            -15.8269337405        9.8994475452       57.1932160374  TIP3      4842            0.0000000000
     36779      5035  TIP3      OH2           -10.9317659820       11.0258795015       41.3224945938  TIP3      4843            0.0000000000
     36780      5035  TIP3      H1            -11.4684418836       10.5005039179       41.9539569033  TIP3      4843            0.0000000000
     36781      5035  TIP3      H2            -10.6753738477       10.3461299916       40.6654173202  TIP3      4843            0.0000000000
     36782      5036  TIP3      OH2           -11.6954719402        8.8379274492       53.6047829818  TIP3      4844            0.0000000000
     36783      5036  TIP3      H1            -12.2917028518        9.5593158305       53.8617277058  TIP3      4844            0.0000000000
     36784      5036  TIP3      H2            -11.2976858935        9.2059454015       52.7973049248  TIP3      4844            0.0000000000
     36785      5037  TIP3      OH2            -9.8853494085        9.2508341995       39.5157221672  TIP3      4845            0.0000000000
     36786      5037  TIP3      H1            -10.0391049108        9.1651769670       38.5547868406  TIP3      4845            0.0000000000
     36787      5037  TIP3      H2             -8.9086751405        9.3066846136       39.5836792442  TIP3      4845            0.0000000000
     36788      5038  TIP3      OH2            -6.6210068524       11.4076474964       56.9423491405  TIP3      4846            0.0000000000
     36789      5038  TIP3      H1             -5.6643295532       11.3945762158       56.8184642218  TIP3      4846            0.0000000000
     36790      5038  TIP3      H2             -6.7922453891       10.6400323314       57.5113272616  TIP3      4846            0.0000000000
     36791      5039  TIP3      OH2            -0.5555131663       11.5718365391       38.9281730881  TIP3      4847            0.0000000000
     36792      5039  TIP3      H1             -0.7474977996       11.1929982202       38.0575694447  TIP3      4847            0.0000000000
     36793      5039  TIP3      H2             -0.4679381558       12.5359306448       38.7423159632  TIP3      4847            0.0000000000
     36794      5040  TIP3      OH2           -11.2893308914        6.2159778137       54.6624484204  TIP3      4848            0.0000000000
     36795      5040  TIP3      H1            -11.1724645066        5.5073011723       54.0030774811  TIP3      4848            0.0000000000
     36796      5040  TIP3      H2            -11.3335959559        7.0271061650       54.1135610517  TIP3      4848            0.0000000000
     36797      5041  TIP3      OH2           -10.8847605294        4.5987355990       52.2168953265  TIP3      4849            0.0000000000
     36798      5041  TIP3      H1            -10.3768051943        5.0639227807       51.5098397032  TIP3      4849            0.0000000000
     36799      5041  TIP3      H2            -11.7780872520        4.5192893484       51.8107852596  TIP3      4849            0.0000000000
     36800      5042  TIP3      OH2            -9.3465889128       10.0904349041       52.4592941650  TIP3      4850            0.0000000000
     36801      5042  TIP3      H1             -8.5928556150        9.9232753807       51.8875535793  TIP3      4850            0.0000000000
     36802      5042  TIP3      H2             -9.7121976673       10.9230073484       52.1219691030  TIP3      4850            0.0000000000
     36803      5043  TIP3      OH2            -4.9481855343        7.8366221812       57.4346943073  TIP3      4851            0.0000000000
     36804      5043  TIP3      H1             -4.7140408492        6.9031774706       57.3296857456  TIP3      4851            0.0000000000
     36805      5043  TIP3      H2             -4.0846813365        8.2826987566       57.4546081395  TIP3      4851            0.0000000000
     36806      5044  TIP3      OH2            -3.6108484089       10.6344104314       55.5893588826  TIP3      4852            0.0000000000
     36807      5044  TIP3      H1             -3.8620846118       11.3547698625       54.9704740537  TIP3      4852            0.0000000000
     36808      5044  TIP3      H2             -2.6532968453       10.6026863387       55.3991826072  TIP3      4852            0.0000000000
     36809      5045  TIP3      OH2           -12.8268078133        7.4671718604       56.5829892591  TIP3      4853            0.0000000000
     36810      5045  TIP3      H1            -13.5965145528        6.8897608776       56.4151083099  TIP3      4853            0.0000000000
     36811      5045  TIP3      H2            -12.1730911765        7.0977685299       55.9614024081  TIP3      4853            0.0000000000
     36812      5046  TIP3      OH2           -10.0960818889        2.0358891188       52.6062950548  TIP3      4854            0.0000000000
     36813      5046  TIP3      H1            -10.2814793402        2.9986942832       52.5088248719  TIP3      4854            0.0000000000
     36814      5046  TIP3      H2            -10.8441942278        1.6652608506       52.1058754871  TIP3      4854            0.0000000000
     36815      5047  TIP3      OH2            -8.8272845558        6.3649890599       56.2341170207  TIP3      4855            0.0000000000
     36816      5047  TIP3      H1             -9.1416234737        6.1313891608       57.1293282313  TIP3      4855            0.0000000000
     36817      5047  TIP3      H2             -9.6083086435        6.1613903374       55.6921986934  TIP3      4855            0.0000000000
     36818      5048  TIP3      OH2            -6.1048300415        5.5089887544       55.3248038953  TIP3      4856            0.0000000000
     36819      5048  TIP3      H1             -7.0699184272        5.5619379672       55.4338840915  TIP3      4856            0.0000000000
     36820      5048  TIP3      H2             -5.8411224677        4.8670977793       56.0120520635  TIP3      4856            0.0000000000
     36821      5049  TIP3      OH2            -4.5232710044        4.1274269192       57.2226200989  TIP3      4857            0.0000000000
     36822      5049  TIP3      H1             -4.5713219298        3.1494899288       57.2535916656  TIP3      4857            0.0000000000
     36823      5049  TIP3      H2             -4.7721310086        4.4195128202       58.1218657462  TIP3      4857            0.0000000000
     36824      5050  TIP3      OH2           -14.7508289543        5.4043742807       56.3387679801  TIP3      4858            0.0000000000
     36825      5050  TIP3      H1            -14.5012050028        4.6688860881       55.7522133097  TIP3      4858            0.0000000000
     36826      5050  TIP3      H2            -14.8385480310        4.9559736949       57.2027260857  TIP3      4858            0.0000000000
     36827      5051  TIP3      OH2            -9.8814796770        1.4301502712       55.3061428642  TIP3      4859            0.0000000000
     36828      5051  TIP3      H1             -9.2035129039        0.7249615156       55.2882545350  TIP3      4859            0.0000000000
     36829      5051  TIP3      H2             -9.9973364793        1.5696316271       54.3453535457  TIP3      4859            0.0000000000
     36830      5052  TIP3      OH2            -9.5201911556        3.0414321510       57.4225998525  TIP3      4860            0.0000000000
     36831      5052  TIP3      H1             -9.6934751984        2.5359575033       56.5896657164  TIP3      4860            0.0000000000
     36832      5052  TIP3      H2            -10.1195328400        3.8060470187       57.3217122588  TIP3      4860            0.0000000000
     36833      5053  TIP3      OH2           -10.0605477400       19.9374404660       40.5714779560  TIP3      4861            0.0000000000
     36834      5053  TIP3      H1             -9.0953165405       20.0439512557       40.6802762853  TIP3      4861            0.0000000000
     36835      5053  TIP3      H2            -10.1933920866       20.5687444964       39.8576581306  TIP3      4861            0.0000000000
     36836      5054  TIP3      OH2           -16.5066890132       14.5843420270       40.0343436180  TIP3      4862            0.0000000000
     36837      5054  TIP3      H1            -15.5445706799       14.6185721622       40.2643960439  TIP3      4862            0.0000000000
     36838      5054  TIP3      H2            -16.4337499753       13.8932548827       39.3457628644  TIP3      4862            0.0000000000
     36839      5055  TIP3      OH2           -17.7192036397       19.9134890747       45.0294494618  TIP3      4863            0.0000000000
     36840      5055  TIP3      H1            -18.4395128911       19.4276688481       44.5710674786  TIP3      4863            0.0000000000
     36841      5055  TIP3      H2            -17.4380683282       19.2595156371       45.6952400652  TIP3      4863            0.0000000000
     36842      5056  TIP3      OH2           -16.8991457404       18.0521987429       46.9082343339  TIP3      4864            0.0000000000
     36843      5056  TIP3      H1            -17.2481875181       17.1710385083       47.1031069339  TIP3      4864            0.0000000000
     36844      5056  TIP3      H2            -16.6700953483       18.3797223936       47.7933959314  TIP3      4864            0.0000000000
     36845      5057  TIP3      OH2             0.6434124060       18.8456616658       49.8361065032  TIP3      4865            0.0000000000
     36846      5057  TIP3      H1              0.6733443061       19.0071422046       50.7949889648  TIP3      4865            0.0000000000
     36847      5057  TIP3      H2              1.3460216727       19.4296028817       49.5325296534  TIP3      4865            0.0000000000
     36848      5058  TIP3      OH2             0.2146878966       18.4420183317       52.7832308685  TIP3      4866            0.0000000000
     36849      5058  TIP3      H1             -0.2550475750       17.6716398344       52.4004094602  TIP3      4866            0.0000000000
     36850      5058  TIP3      H2              0.7027099258       17.9947381948       53.4945386823  TIP3      4866            0.0000000000
     36851      5059  TIP3      OH2            -1.3387351870       14.1609270410       57.4551347851  TIP3      4867            0.0000000000
     36852      5059  TIP3      H1             -2.2454012897       14.1356059269       57.8188830279  TIP3      4867            0.0000000000
     36853      5059  TIP3      H2             -0.9674012548       14.9675066728       57.8650964370  TIP3      4867            0.0000000000
     36854      5060  TIP3      OH2            -0.0250849523       12.4918087000       42.8841515604  TIP3      4868            0.0000000000
     36855      5060  TIP3      H1              0.8426016545       12.8819179712       43.0693799505  TIP3      4868            0.0000000000
     36856      5060  TIP3      H2             -0.0404601725       11.7722034256       43.5522307285  TIP3      4868            0.0000000000
     36857      5061  TIP3      OH2             0.3448337025       10.5531012808       44.7695917987  TIP3      4869            0.0000000000
     36858      5061  TIP3      H1             -0.4271525022       10.0846445501       45.1566985568  TIP3      4869            0.0000000000
     36859      5061  TIP3      H2              0.9329135044       10.7136938590       45.5315149079  TIP3      4869            0.0000000000
     36860      5062  TIP3      OH2             0.0942595415       13.2636173279       49.7576932781  TIP3      4870            0.0000000000
     36861      5062  TIP3      H1              0.9059731226       12.8912506226       49.3738748912  TIP3      4870            0.0000000000
     36862      5062  TIP3      H2              0.2350235973       14.2181124699       49.5850916166  TIP3      4870            0.0000000000
     36863      5063  TIP3      OH2            -1.3474427009       16.1651224888       52.0278664545  TIP3      4871            0.0000000000
     36864      5063  TIP3      H1             -2.0381981184       16.5107910803       52.6134824062  TIP3      4871            0.0000000000
     36865      5063  TIP3      H2             -1.8953406687       15.7673571594       51.3178834166  TIP3      4871            0.0000000000
     36866      5064  TIP3      OH2             0.6363027974       10.3916532177       41.1634776366  TIP3      4872            0.0000000000
     36867      5064  TIP3      H1              0.0698485585       10.7334353391       40.4394959275  TIP3      4872            0.0000000000
     36868      5064  TIP3      H2              0.5372570690       11.1043416446       41.8222757373  TIP3      4872            0.0000000000
     36869      5065  TIP3      OH2            -0.9873436643        7.6171403275       39.6736902411  TIP3      4873            0.0000000000
     36870      5065  TIP3      H1             -0.9127460702        8.2843971278       38.9806584948  TIP3      4873            0.0000000000
     36871      5065  TIP3      H2             -1.1755358018        6.7958770174       39.1786533833  TIP3      4873            0.0000000000
     36872      5066  TIP3      OH2            -1.7966471981        9.0218937768       45.3764540731  TIP3      4874            0.0000000000
     36873      5066  TIP3      H1             -2.0327887698        8.0915300577       45.2673895697  TIP3      4874            0.0000000000
     36874      5066  TIP3      H2             -2.2137300322        9.2602582998       46.2223459200  TIP3      4874            0.0000000000
     36875      5067  TIP3      OH2           -16.8396153447       11.1203953584       49.4061261233  TIP3      4875            0.0000000000
     36876      5067  TIP3      H1            -16.6594298983       11.0554054946       48.4382092031  TIP3      4875            0.0000000000
     36877      5067  TIP3      H2            -15.9390563000       10.9529856154       49.7451715046  TIP3      4875            0.0000000000
     36878      5068  TIP3      OH2            -0.9848213061       11.0112211832       55.0292627377  TIP3      4876            0.0000000000
     36879      5068  TIP3      H1             -0.3789633661       10.2542797310       55.1725290917  TIP3      4876            0.0000000000
     36880      5068  TIP3      H2             -0.3791473258       11.7832651730       55.0342942564  TIP3      4876            0.0000000000
     36881      5069  TIP3      OH2             0.5204298847        8.8876569506       55.6726251618  TIP3      4877            0.0000000000
     36882      5069  TIP3      H1             -0.3641286597        8.4892489300       55.5272292926  TIP3      4877            0.0000000000
     36883      5069  TIP3      H2              1.0903584830        8.1053054539       55.5844678227  TIP3      4877            0.0000000000
     36884      5070  TIP3      OH2            -1.7391001729        5.0951207925       38.8116447630  TIP3      4878            0.0000000000
     36885      5070  TIP3      H1             -1.1528246554        4.6548829375       39.4548851088  TIP3      4878            0.0000000000
     36886      5070  TIP3      H2             -2.6050108636        4.6773142485       38.9634821650  TIP3      4878            0.0000000000
     36887      5071  TIP3      OH2            -2.1865916741        6.6325729454       43.7897978027  TIP3      4879            0.0000000000
     36888      5071  TIP3      H1             -1.8888301698        5.6973576449       43.8923006894  TIP3      4879            0.0000000000
     36889      5071  TIP3      H2             -1.3853712768        7.0314091923       43.4225769840  TIP3      4879            0.0000000000
     36890      5072  TIP3      OH2            -1.4966707190        7.1630549223       49.2632650462  TIP3      4880            0.0000000000
     36891      5072  TIP3      H1             -0.6371583049        7.5567573445       49.4227073594  TIP3      4880            0.0000000000
     36892      5072  TIP3      H2             -1.8241946304        7.2944952219       50.1818656774  TIP3      4880            0.0000000000
     36893      5073  TIP3      OH2            -1.4858233465        7.8945445619       51.9494419376  TIP3      4881            0.0000000000
     36894      5073  TIP3      H1             -2.3435589902        8.1708156287       52.3482520656  TIP3      4881            0.0000000000
     36895      5073  TIP3      H2             -1.0376829037        8.7673644412       51.8284753396  TIP3      4881            0.0000000000
     36896      5074  TIP3      OH2           -17.2180492104        6.4305558040       55.5614547731  TIP3      4882            0.0000000000
     36897      5074  TIP3      H1            -16.2811351772        6.2152714492       55.7472642564  TIP3      4882            0.0000000000
     36898      5074  TIP3      H2            -17.6763385215        5.6041330229       55.8282232652  TIP3      4882            0.0000000000
     36899      5075  TIP3      OH2             0.8016132684        1.9544169270       57.3626193547  TIP3      4883            0.0000000000
     36900      5075  TIP3      H1              1.1540215920        1.2930647087       56.7421935167  TIP3      4883            0.0000000000
     36901      5075  TIP3      H2              0.9036757945        2.7688767445       56.8307788899  TIP3      4883            0.0000000000
     36902      5076  TIP3      OH2            -1.5047450687        3.9214168476       43.8608792157  TIP3      4884            0.0000000000
     36903      5076  TIP3      H1             -1.2938823403        3.4554193919       44.6949412608  TIP3      4884            0.0000000000
     36904      5076  TIP3      H2             -2.0971563783        3.2862238463       43.4067837206  TIP3      4884            0.0000000000
     36905      5077  TIP3      OH2           -16.0212078458        4.7169023002       48.4053379216  TIP3      4885            0.0000000000
     36906      5077  TIP3      H1            -15.5595760806        3.8911777853       48.6595871184  TIP3      4885            0.0000000000
     36907      5077  TIP3      H2            -15.4689590685        5.4076464458       48.7924015998  TIP3      4885            0.0000000000
     36908      5078  TIP3      OH2           -17.7408556147        7.7209229210       49.4419776161  TIP3      4886            0.0000000000
     36909      5078  TIP3      H1            -17.1752151417        7.4690001743       48.6816880689  TIP3      4886            0.0000000000
     36910      5078  TIP3      H2            -17.2701507094        8.5234570118       49.7093513603  TIP3      4886            0.0000000000
     36911      5079  TIP3      OH2             0.3229511194        4.0531531520       55.7163609518  TIP3      4887            0.0000000000
     36912      5079  TIP3      H1             -0.6148806079        4.3232663232       55.6646432867  TIP3      4887            0.0000000000
     36913      5079  TIP3      H2              0.3554497885        3.4983915481       54.9224783686  TIP3      4887            0.0000000000
     36914      5080  TIP3      OH2             0.3131262125        3.9419455435       40.4171461276  TIP3      4888            0.0000000000
     36915      5080  TIP3      H1              0.7198029698        3.2368589753       39.8650739416  TIP3      4888            0.0000000000
     36916      5080  TIP3      H2              1.0165767866        4.6098214677       40.4461397346  TIP3      4888            0.0000000000
     36917      5081  TIP3      OH2           -17.3680476938        3.9968231380       43.5266747120  TIP3      4889            0.0000000000
     36918      5081  TIP3      H1            -18.3114599036        4.1527606451       43.3595958319  TIP3      4889            0.0000000000
     36919      5081  TIP3      H2            -16.9521857520        4.4702601598       42.7869087079  TIP3      4889            0.0000000000
     36920      5082  TIP3      OH2            -2.6449369611       18.9350159198       45.4639936160  TIP3      4890            0.0000000000
     36921      5082  TIP3      H1             -1.9617919053       18.6406269931       44.8350255911  TIP3      4890            0.0000000000
     36922      5082  TIP3      H2             -2.1366602306       19.4498990138       46.1044831613  TIP3      4890            0.0000000000
     36923      5083  TIP3      OH2           -17.4247327413        2.6294637763       51.8071346526  TIP3      4891            0.0000000000
     36924      5083  TIP3      H1            -18.0917765621        2.4394065258       52.4896141918  TIP3      4891            0.0000000000
     36925      5083  TIP3      H2            -17.8815905144        3.3058293013       51.2674096426  TIP3      4891            0.0000000000
     36926      5084  TIP3      OH2           -15.1831502892       15.8235964547       55.9710014637  TIP3      4892            0.0000000000
     36927      5084  TIP3      H1            -16.0203870636       16.0505626205       55.5322022616  TIP3      4892            0.0000000000
     36928      5084  TIP3      H2            -15.4530229195       15.7557504941       56.8903174738  TIP3      4892            0.0000000000
     36929      5085  TIP3      OH2           -12.2843297404       16.8403215086       52.2516516523  TIP3      4893            0.0000000000
     36930      5085  TIP3      H1            -12.6135203800       17.7070113185       51.9768288806  TIP3      4893            0.0000000000
     36931      5085  TIP3      H2            -11.3581739177       16.9226629394       51.9447396219  TIP3      4893            0.0000000000
     36932      5086  TIP3      OH2            -7.9645466272       18.2616609830       55.1520557686  TIP3      4894            0.0000000000
     36933      5086  TIP3      H1             -7.8261145621       17.9080288645       56.0611706961  TIP3      4894            0.0000000000
     36934      5086  TIP3      H2             -7.0615951878       18.5644867928       54.9108555127  TIP3      4894            0.0000000000
     36935      5087  TIP3      OH2            -5.6775998367       19.5289456734       54.4646095166  TIP3      4895            0.0000000000
     36936      5087  TIP3      H1             -4.9454045358       18.9446643805       54.2258618407  TIP3      4895            0.0000000000
     36937      5087  TIP3      H2             -5.3016432112       19.9676360273       55.2583237024  TIP3      4895            0.0000000000
     36938      5088  TIP3      OH2            -0.6516077968        2.1419474380       53.5672410967  TIP3      4896            0.0000000000
     36939      5088  TIP3      H1             -1.4863084982        2.4381048944       53.1640551860  TIP3      4896            0.0000000000
     36940      5088  TIP3      H2             -0.4894798700        1.3173298240       53.0534537144  TIP3      4896            0.0000000000
     36941      5089  TIP3      OH2           -14.8615851753       20.0735915225       52.2420768638  TIP3      4897            0.0000000000
     36942      5089  TIP3      H1            -15.5913147845       20.5746776004       51.8474605330  TIP3      4897            0.0000000000
     36943      5089  TIP3      H2            -15.1704285171       19.8838614748       53.1395181440  TIP3      4897            0.0000000000
     36944      5090  TIP3      OH2           -12.3919594023       19.6507521591       51.3163693702  TIP3      4898            0.0000000000
     36945      5090  TIP3      H1            -13.2838879348       19.8050637779       51.7083779489  TIP3      4898            0.0000000000
     36946      5090  TIP3      H2            -12.4441697332       20.2410952110       50.5409353361  TIP3      4898            0.0000000000
     36947      5091  TIP3      OH2            -7.6832562944       19.5644537797       50.4848315043  TIP3      4899            0.0000000000
     36948      5091  TIP3      H1             -8.1507308373       20.1201147903       49.8447924535  TIP3      4899            0.0000000000
     36949      5091  TIP3      H2             -7.5530389366       20.1950357082       51.2236980118  TIP3      4899            0.0000000000
     36950      5092  TIP3      OH2            -5.3989998929       18.3717187844       51.5204471587  TIP3      4900            0.0000000000
     36951      5092  TIP3      H1             -6.2507239681       18.6501754541       51.1461059831  TIP3      4900            0.0000000000
     36952      5092  TIP3      H2             -4.9111310401       19.2081080873       51.4244552666  TIP3      4900            0.0000000000
     36953      5093  TIP3      OH2            -2.8156774583       19.9411818017       51.7353823459  TIP3      4901            0.0000000000
     36954      5093  TIP3      H1             -2.8672761723       20.9024626856       51.5082395748  TIP3      4901            0.0000000000
     36955      5093  TIP3      H2             -2.5965907099       19.5687343817       50.8586367227  TIP3      4901            0.0000000000
     36956      5094  TIP3      OH2           -15.3986347470       18.7233584831       49.1871295635  TIP3      4902            0.0000000000
     36957      5094  TIP3      H1            -15.4821041245       18.2626314181       50.0490364039  TIP3      4902            0.0000000000
     36958      5094  TIP3      H2            -14.5853670053       18.3427141372       48.7985870962  TIP3      4902            0.0000000000
     36959      5095  TIP3      OH2           -13.3268514770       17.4260533697       47.8335495302  TIP3      4903            0.0000000000
     36960      5095  TIP3      H1            -13.4897983481       16.4880211084       48.0544490504  TIP3      4903            0.0000000000
     36961      5095  TIP3      H2            -12.4745563799       17.5853362189       48.2913038637  TIP3      4903            0.0000000000
     36962      5096  TIP3      OH2           -10.7176638327       17.9224818875       48.7197682445  TIP3      4904            0.0000000000
     36963      5096  TIP3      H1            -10.5673015536       16.9961650651       48.4562266204  TIP3      4904            0.0000000000
     36964      5096  TIP3      H2            -10.6760030541       17.8629524468       49.6852231448  TIP3      4904            0.0000000000
     36965      5097  TIP3      OH2            -7.2675031447        3.5679236230       47.8570295942  TIP3      4905            0.0000000000
     36966      5097  TIP3      H1             -7.9447130373        2.9271375728       48.1367488321  TIP3      4905            0.0000000000
     36967      5097  TIP3      H2             -6.7157710227        3.0347005676       47.2722460776  TIP3      4905            0.0000000000
     36968      5098  TIP3      OH2            -2.1254409597        1.6353390439       47.9310763923  TIP3      4906            0.0000000000
     36969      5098  TIP3      H1             -1.5177040452        2.2005773542       47.3986611546  TIP3      4906            0.0000000000
     36970      5098  TIP3      H2             -3.0144834766        1.9695815332       47.6857575420  TIP3      4906            0.0000000000
     36971      5099  TIP3      OH2            -0.4539334533        2.8724118030       46.2040073225  TIP3      4907            0.0000000000
     36972      5099  TIP3      H1              0.2073573074        2.2725923297       45.7752189376  TIP3      4907            0.0000000000
     36973      5099  TIP3      H2              0.0601271576        3.6970270839       46.2811971488  TIP3      4907            0.0000000000
     36974      5100  TIP3      OH2           -14.8992980679        2.1988417022       45.6970173853  TIP3      4908            0.0000000000
     36975      5100  TIP3      H1            -15.6963338478        1.9978042457       45.1742311252  TIP3      4908            0.0000000000
     36976      5100  TIP3      H2            -14.4374941715        1.3366741310       45.6451776692  TIP3      4908            0.0000000000
     36977      5101  TIP3      OH2           -16.1282463311        1.9459894053       41.4259742638  TIP3      4909            0.0000000000
     36978      5101  TIP3      H1            -15.6368834482        2.5977037691       40.8910149055  TIP3      4909            0.0000000000
     36979      5101  TIP3      H2            -16.6962505589        2.5207453248       41.9615615057  TIP3      4909            0.0000000000
     36980      5102  TIP3      OH2           -10.4268252309        2.1184418383       45.4888893049  TIP3      4910            0.0000000000
     36981      5102  TIP3      H1             -9.5273632012        2.4787472173       45.4159299234  TIP3      4910            0.0000000000
     36982      5102  TIP3      H2            -10.4617729008        1.9059045136       46.4200501170  TIP3      4910            0.0000000000
     36983      5103  TIP3      OH2            -4.7101042316        2.1339594728       47.1146188710  TIP3      4911            0.0000000000
     36984      5103  TIP3      H1             -4.7644747365        2.2479404418       46.1566258226  TIP3      4911            0.0000000000
     36985      5103  TIP3      H2             -5.1021098117        1.2305722325       47.2499325957  TIP3      4911            0.0000000000
     36986      5104  TIP3      OH2            -3.4440646461        2.1692005652       42.7983285095  TIP3      4912            0.0000000000
     36987      5104  TIP3      H1             -4.1936314631        2.7622097635       42.6396586099  TIP3      4912            0.0000000000
     36988      5104  TIP3      H2             -3.8838109932        1.3166379334       43.0318517111  TIP3      4912            0.0000000000
     36989      5105  TIP3      OH2           -16.2209833778       17.9131202955       42.4607805974  TIP3      4913            0.0000000000
     36990      5105  TIP3      H1            -16.8735770857       17.8878310589       41.7367109666  TIP3      4913            0.0000000000
     36991      5105  TIP3      H2            -16.2227948605       18.8671992778       42.6266875197  TIP3      4913            0.0000000000
     36992      5106  TIP3      OH2           -14.2989504983        3.8942498725       39.9355561310  TIP3      4914            0.0000000000
     36993      5106  TIP3      H1            -13.7696996043        3.2733393939       39.4081651119  TIP3      4914            0.0000000000
     36994      5106  TIP3      H2            -13.6328657815        4.2055734217       40.5759911195  TIP3      4914            0.0000000000
     36995      5107  TIP3      OH2            -9.2765974590        4.1339197566       42.3388610927  TIP3      4915            0.0000000000
     36996      5107  TIP3      H1             -9.0260011179        3.5586288905       43.0805801347  TIP3      4915            0.0000000000
     36997      5107  TIP3      H2             -9.2028694827        5.0015068627       42.7961676304  TIP3      4915            0.0000000000
     36998      5108  TIP3      OH2            -7.3512827259       19.1770746661       40.7732770355  TIP3      4916            0.0000000000
     36999      5108  TIP3      H1             -6.4337914639       19.4442650665       40.5865354003  TIP3      4916            0.0000000000
     37000      5108  TIP3      H2             -7.5499750256       18.6663608700       39.9619696935  TIP3      4916            0.0000000000
     37001      5109  TIP3      OH2            -0.6079283269       18.6950587876       43.4978169935  TIP3      4917            0.0000000000
     37002      5109  TIP3      H1             -0.8410535567       17.9229609736       42.9324803218  TIP3      4917            0.0000000000
     37003      5109  TIP3      H2             -0.7361697992       19.4432887415       42.8745010147  TIP3      4917            0.0000000000
     37004      5110  TIP3      OH2           -15.0119450894        2.7374943013       55.1525902986  TIP3      4918            0.0000000000
     37005      5110  TIP3      H1            -15.4006494567        1.9422171252       55.5589410954  TIP3      4918            0.0000000000
     37006      5110  TIP3      H2            -14.1029801113        2.6950805338       55.5353070433  TIP3      4918            0.0000000000
     37007      5111  TIP3      OH2           -13.0110662371        2.1195743562       56.7979704673  TIP3      4919            0.0000000000
     37008      5111  TIP3      H1            -12.1180318079        1.7827641299       56.5809069557  TIP3      4919            0.0000000000
     37009      5111  TIP3      H2            -13.3847875596        1.3123390499       57.2008400350  TIP3      4919            0.0000000000
     37010      5112  TIP3      OH2           -14.4197529709       18.8846839347       39.3951710505  TIP3      4920            0.0000000000
     37011      5112  TIP3      H1            -14.6797505795       19.1410454072       40.2918014005  TIP3      4920            0.0000000000
     37012      5112  TIP3      H2            -13.6386894337       18.3152383525       39.5483192811  TIP3      4920            0.0000000000
     37013      5113  TIP3      OH2            -4.6082408144        1.4066340537       56.9478446446  TIP3      4921            0.0000000000
     37014      5113  TIP3      H1             -4.5150055101        0.9333459493       57.7970371715  TIP3      4921            0.0000000000
     37015      5113  TIP3      H2             -3.6915851860        1.3726656259       56.6043423169  TIP3      4921            0.0000000000
     37016      5114  TIP3      OH2            -1.3983647318       17.4572370990       55.5793184599  TIP3      4922            0.0000000000
     37017      5114  TIP3      H1             -2.2025870290       17.3209538489       55.0326503074  TIP3      4922            0.0000000000
     37018      5114  TIP3      H2             -1.5146465909       18.4042411735       55.7963662375  TIP3      4922            0.0000000000
     37019      5115  TIP3      OH2            13.0527638691       11.3353812631       45.5467418005  TIP3      4923            0.0000000000
     37020      5115  TIP3      H1             13.0293893746       12.3157143554       45.5333046252  TIP3      4923            0.0000000000
     37021      5115  TIP3      H2             12.3165023153       11.1014925685       44.9576135380  TIP3      4923            0.0000000000
     37022      5116  TIP3      OH2            11.8863863527       10.5980912389       49.0403698360  TIP3      4924            0.0000000000
     37023      5116  TIP3      H1             11.9061282786        9.9697692575       49.7942505715  TIP3      4924            0.0000000000
     37024      5116  TIP3      H2             11.5415118879       10.0595561956       48.3151332684  TIP3      4924            0.0000000000
     37025      5117  TIP3      OH2             4.2426771009       10.2527454276       50.6057336962  TIP3      4925            0.0000000000
     37026      5117  TIP3      H1              4.3423098811        9.5786752589       51.3111091645  TIP3      4925            0.0000000000
     37027      5117  TIP3      H2              4.9911035166       10.8295405624       50.8249802770  TIP3      4925            0.0000000000
     37028      5118  TIP3      OH2            15.5858424829       13.5392974764       47.3451042595  TIP3      4926            0.0000000000
     37029      5118  TIP3      H1             15.1725836171       12.8204349707       47.8353401931  TIP3      4926            0.0000000000
     37030      5118  TIP3      H2             15.6112704935       14.2449856007       48.0178274224  TIP3      4926            0.0000000000
     37031      5119  TIP3      OH2             5.1805426311       14.7156911488       49.1137793824  TIP3      4927            0.0000000000
     37032      5119  TIP3      H1              4.8723815260       13.8450570364       48.7979045948  TIP3      4927            0.0000000000
     37033      5119  TIP3      H2              6.1361053302       14.5324134039       49.1600393560  TIP3      4927            0.0000000000
     37034      5120  TIP3      OH2             1.7809234113        8.2446011787       44.6572358691  TIP3      4928            0.0000000000
     37035      5120  TIP3      H1              1.4133474155        9.1447612337       44.5239249412  TIP3      4928            0.0000000000
     37036      5120  TIP3      H2              1.2656342897        7.7404156511       44.0094722842  TIP3      4928            0.0000000000
     37037      5121  TIP3      OH2             2.5322105058       10.4875803840       46.7436210766  TIP3      4929            0.0000000000
     37038      5121  TIP3      H1              2.8429722239        9.6897676692       47.2007151063  TIP3      4929            0.0000000000
     37039      5121  TIP3      H2              3.2265626952       10.6289831671       46.0808611364  TIP3      4929            0.0000000000
     37040      5122  TIP3      OH2            12.7057408584       18.6967609128       47.5832295631  TIP3      4930            0.0000000000
     37041      5122  TIP3      H1             13.3549379885       18.0083969591       47.2956232736  TIP3      4930            0.0000000000
     37042      5122  TIP3      H2             12.4901987905       18.3596347022       48.4525129399  TIP3      4930            0.0000000000
     37043      5123  TIP3      OH2            10.2805177902       13.0103753300       49.5095299138  TIP3      4931            0.0000000000
     37044      5123  TIP3      H1             10.6130197507       12.3581387076       48.8740317019  TIP3      4931            0.0000000000
     37045      5123  TIP3      H2             11.0776358979       13.1301532754       50.0602641498  TIP3      4931            0.0000000000
     37046      5124  TIP3      OH2            18.8708483977        4.6528847698       50.2564163674  TIP3      4932            0.0000000000
     37047      5124  TIP3      H1             19.0487667413        5.2394416779       51.0233249086  TIP3      4932            0.0000000000
     37048      5124  TIP3      H2             19.4405654764        5.0720244192       49.5958435687  TIP3      4932            0.0000000000
     37049      5125  TIP3      OH2            13.4900205494        7.4375697936       49.8276145942  TIP3      4933            0.0000000000
     37050      5125  TIP3      H1             13.6122311055        6.4793873964       49.8468620899  TIP3      4933            0.0000000000
     37051      5125  TIP3      H2             13.3374048418        7.5957045192       48.8799149785  TIP3      4933            0.0000000000
     37052      5126  TIP3      OH2             6.5595561323        5.5466059952       47.0618692010  TIP3      4934            0.0000000000
     37053      5126  TIP3      H1              6.6646752552        6.3807494008       46.5685970449  TIP3      4934            0.0000000000
     37054      5126  TIP3      H2              6.1576187717        4.9737828346       46.3731403916  TIP3      4934            0.0000000000
     37055      5127  TIP3      OH2            14.2941359662        5.6222570152       45.4324910902  TIP3      4935            0.0000000000
     37056      5127  TIP3      H1             14.9446590782        5.3107640950       46.1038506165  TIP3      4935            0.0000000000
     37057      5127  TIP3      H2             14.8583291049        6.2043053594       44.9024704396  TIP3      4935            0.0000000000
     37058      5128  TIP3      OH2             3.0773606635        7.8655759278       47.7830682022  TIP3      4936            0.0000000000
     37059      5128  TIP3      H1              3.8481403913        7.4524961685       48.2403916683  TIP3      4936            0.0000000000
     37060      5128  TIP3      H2              3.3351178168        7.6622466295       46.8639201904  TIP3      4936            0.0000000000
     37061      5129  TIP3      OH2             8.3312365176        9.5132890197       47.1076895622  TIP3      4937            0.0000000000
     37062      5129  TIP3      H1              9.0141161278        8.9401616319       47.5074757884  TIP3      4937            0.0000000000
     37063      5129  TIP3      H2              7.8211107628        8.8499264540       46.6059136594  TIP3      4937            0.0000000000
     37064      5130  TIP3      OH2            19.3143614686        6.0547223615       52.5351194181  TIP3      4938            0.0000000000
     37065      5130  TIP3      H1             18.7075154381        6.8206059524       52.4207113060  TIP3      4938            0.0000000000
     37066      5130  TIP3      H2             19.3491905580        5.9717752862       53.4943734266  TIP3      4938            0.0000000000
     37067      5131  TIP3      OH2             5.4735624244        4.4426791380       51.1053214779  TIP3      4939            0.0000000000
     37068      5131  TIP3      H1              5.2012306286        5.0153070838       50.3624425617  TIP3      4939            0.0000000000
     37069      5131  TIP3      H2              4.7917617427        4.6743086500       51.7833390687  TIP3      4939            0.0000000000
     37070      5132  TIP3      OH2            12.7528424219       13.9272302037       44.6420419772  TIP3      4940            0.0000000000
     37071      5132  TIP3      H1             12.4913370699       13.6538056043       43.7559966756  TIP3      4940            0.0000000000
     37072      5132  TIP3      H2             12.4470628403       14.8603154225       44.6985779107  TIP3      4940            0.0000000000
     37073      5133  TIP3      OH2             7.9534497175       12.0952835630       51.3104180957  TIP3      4941            0.0000000000
     37074      5133  TIP3      H1              7.2682481653       12.7480141157       51.5563434751  TIP3      4941            0.0000000000
     37075      5133  TIP3      H2              8.6920377037       12.6746758920       51.0671583150  TIP3      4941            0.0000000000
     37076      5134  TIP3      OH2            16.0988134004        4.9831132496       47.4327134975  TIP3      4942            0.0000000000
     37077      5134  TIP3      H1             15.8862404240        4.2064165439       47.9581925281  TIP3      4942            0.0000000000
     37078      5134  TIP3      H2             16.7781599414        5.4110503271       47.9806948010  TIP3      4942            0.0000000000
     37079      5135  TIP3      OH2             5.0156945296        6.3292089641       49.1102033961  TIP3      4943            0.0000000000
     37080      5135  TIP3      H1              5.6699213403        6.9830962041       49.4562126142  TIP3      4943            0.0000000000
     37081      5135  TIP3      H2              5.5604763481        5.8896182432       48.4071170256  TIP3      4943            0.0000000000
     37082      5136  TIP3      OH2             6.4204153509       14.0831958713       52.1510304595  TIP3      4944            0.0000000000
     37083      5136  TIP3      H1              6.3795291207       15.0015671520       51.8233231471  TIP3      4944            0.0000000000
     37084      5136  TIP3      H2              5.5486175339       14.0102488886       52.6094680240  TIP3      4944            0.0000000000
     37085      5137  TIP3      OH2             2.5076513302       13.7024870256       42.9528007002  TIP3      4945            0.0000000000
     37086      5137  TIP3      H1              2.2574461369       14.0424072413       42.0758216421  TIP3      4945            0.0000000000
     37087      5137  TIP3      H2              2.5875337931       14.5302709666       43.4680226483  TIP3      4945            0.0000000000
     37088      5138  TIP3      OH2            16.1163334404       15.3765859660       49.7131207800  TIP3      4946            0.0000000000
     37089      5138  TIP3      H1             15.1474760348       15.4871528958       49.8333377441  TIP3      4946            0.0000000000
     37090      5138  TIP3      H2             16.3848931439       16.2921486808       49.5097946291  TIP3      4946            0.0000000000
     37091      5139  TIP3      OH2            16.4386631424        3.6594566296       51.0999783299  TIP3      4947            0.0000000000
     37092      5139  TIP3      H1             15.7148933839        4.2919253982       51.0080591062  TIP3      4947            0.0000000000
     37093      5139  TIP3      H2             17.1531055836        4.0783170123       50.5789166281  TIP3      4947            0.0000000000
     37094      5140  TIP3      OH2             9.4035617548        1.7807424141       48.5671761152  TIP3      4948            0.0000000000
     37095      5140  TIP3      H1              9.2607830533        0.8171677790       48.4914958343  TIP3      4948            0.0000000000
     37096      5140  TIP3      H2              8.5256379100        2.0860502826       48.8739066757  TIP3      4948            0.0000000000
     37097      5141  TIP3      OH2            14.3771793687       17.1611814367       46.2991152143  TIP3      4949            0.0000000000
     37098      5141  TIP3      H1             14.8038989623       16.4405171757       45.7914582919  TIP3      4949            0.0000000000
     37099      5141  TIP3      H2             14.8113412137       17.9492746167       45.9087781242  TIP3      4949            0.0000000000
     37100      5142  TIP3      OH2            15.5909871117       15.0863316325       44.8206424392  TIP3      4950            0.0000000000
     37101      5142  TIP3      H1             15.2877160656       14.3900495108       44.2164965962  TIP3      4950            0.0000000000
     37102      5142  TIP3      H2             15.6229301791       14.5954888500       45.6614273281  TIP3      4950            0.0000000000
     37103      5143  TIP3      OH2            17.2422790959       13.7019633408       53.3135146038  TIP3      4951            0.0000000000
     37104      5143  TIP3      H1             17.3328089930       13.0269048375       52.6023832806  TIP3      4951            0.0000000000
     37105      5143  TIP3      H2             17.4236078172       14.5351369099       52.8497569141  TIP3      4951            0.0000000000
     37106      5144  TIP3      OH2            11.7000048988       10.5671345996       43.0732966370  TIP3      4952            0.0000000000
     37107      5144  TIP3      H1             11.0097603451       11.1484843303       42.7115629870  TIP3      4952            0.0000000000
     37108      5144  TIP3      H2             12.4126820352       10.6651236107       42.4130752570  TIP3      4952            0.0000000000
     37109      5145  TIP3      OH2            11.7834896680        9.1399730480       40.0842782458  TIP3      4953            0.0000000000
     37110      5145  TIP3      H1             12.4880183146        9.1213335860       40.7495915557  TIP3      4953            0.0000000000
     37111      5145  TIP3      H2             12.0889801200        8.4215071699       39.5158301960  TIP3      4953            0.0000000000
     37112      5146  TIP3      OH2            19.0969180759        9.9975193984       51.3581608365  TIP3      4954            0.0000000000
     37113      5146  TIP3      H1             18.4473512106       10.7262338965       51.3966286231  TIP3      4954            0.0000000000
     37114      5146  TIP3      H2             19.5799211913       10.2346118612       50.5483102475  TIP3      4954            0.0000000000
     37115      5147  TIP3      OH2            15.1593712315       10.7739336998       43.9926804515  TIP3      4955            0.0000000000
     37116      5147  TIP3      H1             14.4166467886       11.0224549134       44.5906622391  TIP3      4955            0.0000000000
     37117      5147  TIP3      H2             15.6279705152       10.1029219491       44.5184580425  TIP3      4955            0.0000000000
     37118      5148  TIP3      OH2            15.2166500459        8.9389724943       53.0188243563  TIP3      4956            0.0000000000
     37119      5148  TIP3      H1             15.0351862625        9.6859462417       53.6324327419  TIP3      4956            0.0000000000
     37120      5148  TIP3      H2             14.4540070023        9.2097998369       52.4683327170  TIP3      4956            0.0000000000
     37121      5149  TIP3      OH2             6.7493136549       11.4359165346       45.9124505550  TIP3      4957            0.0000000000
     37122      5149  TIP3      H1              6.4400044969       11.0477287620       45.0604661878  TIP3      4957            0.0000000000
     37123      5149  TIP3      H2              7.3737377193       10.7509651002       46.2464030154  TIP3      4957            0.0000000000
     37124      5150  TIP3      OH2             8.0803178716       14.8235619550       48.5946555938  TIP3      4958            0.0000000000
     37125      5150  TIP3      H1              8.0773865374       14.3005263016       47.7837895566  TIP3      4958            0.0000000000
     37126      5150  TIP3      H2              8.8644427458       14.4680072277       49.0533995922  TIP3      4958            0.0000000000
     37127      5151  TIP3      OH2             7.0778232633       10.1864229259       49.5734352435  TIP3      4959            0.0000000000
     37128      5151  TIP3      H1              7.6392092512       10.2802954258       48.7784773573  TIP3      4959            0.0000000000
     37129      5151  TIP3      H2              7.4824972979       10.8436342859       50.1872681977  TIP3      4959            0.0000000000
     37130      5152  TIP3      OH2            13.5122304071       15.7550205691       50.2886325243  TIP3      4960            0.0000000000
     37131      5152  TIP3      H1             13.2161612865       16.3978094165       50.9410839950  TIP3      4960            0.0000000000
     37132      5152  TIP3      H2             13.2580491775       14.8995278880       50.7156103009  TIP3      4960            0.0000000000
     37133      5153  TIP3      OH2             8.0441957889       14.6189973460       54.2696526937  TIP3      4961            0.0000000000
     37134      5153  TIP3      H1              7.6293257561       15.3564843264       54.7620337509  TIP3      4961            0.0000000000
     37135      5153  TIP3      H2              7.3713065435       14.4182389626       53.5742611662  TIP3      4961            0.0000000000
     37136      5154  TIP3      OH2            14.0284051597        9.9859670352       41.6612004594  TIP3      4962            0.0000000000
     37137      5154  TIP3      H1             14.5844367518       10.1582925783       42.4618352678  TIP3      4962            0.0000000000
     37138      5154  TIP3      H2             14.4797368975       10.4804400503       40.9406721582  TIP3      4962            0.0000000000
     37139      5155  TIP3      OH2             5.0011009639       10.7932944259       53.4375346645  TIP3      4963            0.0000000000
     37140      5155  TIP3      H1              5.0402832158       11.4564380701       54.1482584391  TIP3      4963            0.0000000000
     37141      5155  TIP3      H2              4.0575903406       10.8701723907       53.2216717880  TIP3      4963            0.0000000000
     37142      5156  TIP3      OH2            11.7399626447       16.7063963527       45.1356265533  TIP3      4964            0.0000000000
     37143      5156  TIP3      H1             12.1711771213       17.0128887320       45.9410337221  TIP3      4964            0.0000000000
     37144      5156  TIP3      H2             11.1825930288       17.4554081100       44.8962699826  TIP3      4964            0.0000000000
     37145      5157  TIP3      OH2             6.2913756020       16.6522765472       55.0188661989  TIP3      4965            0.0000000000
     37146      5157  TIP3      H1              6.2295025069       16.5540692659       54.0533395256  TIP3      4965            0.0000000000
     37147      5157  TIP3      H2              5.3615589095       16.5188042280       55.2867785536  TIP3      4965            0.0000000000
     37148      5158  TIP3      OH2            17.7505342198        1.7146264517       41.5685857078  TIP3      4966            0.0000000000
     37149      5158  TIP3      H1             16.8032552321        1.8243738659       41.8158976683  TIP3      4966            0.0000000000
     37150      5158  TIP3      H2             17.9495810407        2.5549421074       41.1227718026  TIP3      4966            0.0000000000
     37151      5159  TIP3      OH2             5.7218225461       10.4589195643       43.5458879495  TIP3      4967            0.0000000000
     37152      5159  TIP3      H1              5.4450018514       11.2439881636       43.0258685999  TIP3      4967            0.0000000000
     37153      5159  TIP3      H2              5.0763907473        9.7947227331       43.2949981661  TIP3      4967            0.0000000000
     37154      5160  TIP3      OH2            18.8652068198       16.0674587294       39.9149848195  TIP3      4968            0.0000000000
     37155      5160  TIP3      H1             19.0312124843       17.0105188663       40.0844672384  TIP3      4968            0.0000000000
     37156      5160  TIP3      H2             19.7886184586       15.7545197490       39.9117751385  TIP3      4968            0.0000000000
     37157      5161  TIP3      OH2             1.8099249869       12.9033470012       52.4420112499  TIP3      4969            0.0000000000
     37158      5161  TIP3      H1              1.3724126426       12.8211965649       51.5757515819  TIP3      4969            0.0000000000
     37159      5161  TIP3      H2              1.9046103364       11.9526692996       52.6490845379  TIP3      4969            0.0000000000
     37160      5162  TIP3      OH2             1.5805819038       15.6289489350       49.2039395702  TIP3      4970            0.0000000000
     37161      5162  TIP3      H1              2.5388885751       15.5139604117       49.1842297580  TIP3      4970            0.0000000000
     37162      5162  TIP3      H2              1.4985308153       16.4472209035       49.7087776923  TIP3      4970            0.0000000000
     37163      5163  TIP3      OH2            19.8188776068       16.3339997303       54.8989395341  TIP3      4971            0.0000000000
     37164      5163  TIP3      H1             19.7045004438       15.3732919105       54.8648805361  TIP3      4971            0.0000000000
     37165      5163  TIP3      H2             18.9364043926       16.5701691353       55.2733456104  TIP3      4971            0.0000000000
     37166      5164  TIP3      OH2            10.7634361511       15.9022862598       53.7435627106  TIP3      4972            0.0000000000
     37167      5164  TIP3      H1             10.8306219836       16.7301076377       54.2707610706  TIP3      4972            0.0000000000
     37168      5164  TIP3      H2              9.9026644994       15.5232884110       54.0078223840  TIP3      4972            0.0000000000
     37169      5165  TIP3      OH2            11.2221781272       19.6139087868       43.5453456323  TIP3      4973            0.0000000000
     37170      5165  TIP3      H1             11.1102107907       19.5359777742       42.5803338856  TIP3      4973            0.0000000000
     37171      5165  TIP3      H2             11.2230426800       20.5762222674       43.7016225294  TIP3      4973            0.0000000000
     37172      5166  TIP3      OH2             4.8553028934       18.4929730078       45.3700162763  TIP3      4974            0.0000000000
     37173      5166  TIP3      H1              5.0026929477       18.0787191645       46.2472335989  TIP3      4974            0.0000000000
     37174      5166  TIP3      H2              4.0053244619       18.0847597160       45.1311980490  TIP3      4974            0.0000000000
     37175      5167  TIP3      OH2            14.2748818859       18.8280498497       40.5297568960  TIP3      4975            0.0000000000
     37176      5167  TIP3      H1             14.7291911947       18.0705282771       40.0958649162  TIP3      4975            0.0000000000
     37177      5167  TIP3      H2             14.3146066656       18.5667387053       41.4733870066  TIP3      4975            0.0000000000
     37178      5168  TIP3      OH2            13.9724655333       18.7636143813       43.3053022633  TIP3      4976            0.0000000000
     37179      5168  TIP3      H1             13.0099030608       18.8384854989       43.4748666415  TIP3      4976            0.0000000000
     37180      5168  TIP3      H2             14.2043771023       18.0202637347       43.8825259788  TIP3      4976            0.0000000000
     37181      5169  TIP3      OH2            16.9736332068        7.8033334664       55.3447673224  TIP3      4977            0.0000000000
     37182      5169  TIP3      H1             16.4720510619        8.2622610474       54.6480177301  TIP3      4977            0.0000000000
     37183      5169  TIP3      H2             16.9312486250        6.8844019031       55.0488045707  TIP3      4977            0.0000000000
     37184      5170  TIP3      OH2             4.1089060615       14.2094396599       53.3696671183  TIP3      4978            0.0000000000
     37185      5170  TIP3      H1              4.3300308190       13.8444536014       54.2513460724  TIP3      4978            0.0000000000
     37186      5170  TIP3      H2              3.2397036022       13.8109289909       53.1573879537  TIP3      4978            0.0000000000
     37187      5171  TIP3      OH2             6.7869438749        2.6829705945       49.3158645983  TIP3      4979            0.0000000000
     37188      5171  TIP3      H1              5.8844750849        2.5568492016       48.9512122923  TIP3      4979            0.0000000000
     37189      5171  TIP3      H2              6.6537524617        3.5121255706       49.8042600038  TIP3      4979            0.0000000000
     37190      5172  TIP3      OH2            11.4312447353        2.3465449618       52.6770682339  TIP3      4980            0.0000000000
     37191      5172  TIP3      H1             11.8235040920        1.9313344157       53.4670550179  TIP3      4980            0.0000000000
     37192      5172  TIP3      H2             10.4592464437        2.2333608205       52.8254898257  TIP3      4980            0.0000000000
     37193      5173  TIP3      OH2            14.7168688618        6.1915126256       53.5753892904  TIP3      4981            0.0000000000
     37194      5173  TIP3      H1             14.1482254408        5.9907649331       54.3568335912  TIP3      4981            0.0000000000
     37195      5173  TIP3      H2             14.5340293603        7.1231142297       53.3509067751  TIP3      4981            0.0000000000
     37196      5174  TIP3      OH2            15.4768254256       11.0142232207       39.4763078134  TIP3      4982            0.0000000000
     37197      5174  TIP3      H1             15.4555079383       10.8247610586       38.5098795810  TIP3      4982            0.0000000000
     37198      5174  TIP3      H2             16.3350659969       11.4597364367       39.5287148357  TIP3      4982            0.0000000000
     37199      5175  TIP3      OH2            11.0717237081        4.9372502151       39.9878743891  TIP3      4983            0.0000000000
     37200      5175  TIP3      H1             10.7571553052        4.8742619071       40.9080772468  TIP3      4983            0.0000000000
     37201      5175  TIP3      H2             10.7637884334        4.0597510509       39.6819097220  TIP3      4983            0.0000000000
     37202      5176  TIP3      OH2             6.8722723548        7.6487348171       50.5677839968  TIP3      4984            0.0000000000
     37203      5176  TIP3      H1              6.1424793694        7.6489267281       51.2135956060  TIP3      4984            0.0000000000
     37204      5176  TIP3      H2              6.8392056783        8.5613367868       50.2016533982  TIP3      4984            0.0000000000
     37205      5177  TIP3      OH2             6.8462595973        7.7705083530       45.4371878083  TIP3      4985            0.0000000000
     37206      5177  TIP3      H1              5.9110758621        7.5213731619       45.3048449458  TIP3      4985            0.0000000000
     37207      5177  TIP3      H2              7.2289180223        7.4819195015       44.5840250156  TIP3      4985            0.0000000000
     37208      5178  TIP3      OH2            12.3695378504        8.2772132060       44.2148328922  TIP3      4986            0.0000000000
     37209      5178  TIP3      H1             11.9763350263        9.1005225490       43.8445047059  TIP3      4986            0.0000000000
     37210      5178  TIP3      H2             13.0560753455        8.1076967376       43.5480307368  TIP3      4986            0.0000000000
     37211      5179  TIP3      OH2            11.3187116561        8.4555126419       55.7800241714  TIP3      4987            0.0000000000
     37212      5179  TIP3      H1             10.8888918784        7.6142968020       56.0028978767  TIP3      4987            0.0000000000
     37213      5179  TIP3      H2             12.2456483519        8.3817888856       56.0708922988  TIP3      4987            0.0000000000
     37214      5180  TIP3      OH2            13.4067320580        7.7699374845       47.0484112521  TIP3      4988            0.0000000000
     37215      5180  TIP3      H1             13.1188443569        8.3315647911       46.3100340367  TIP3      4988            0.0000000000
     37216      5180  TIP3      H2             13.4980888878        6.9181257302       46.5816149562  TIP3      4988            0.0000000000
     37217      5181  TIP3      OH2             4.4944408587        7.9070928716       52.2399828121  TIP3      4989            0.0000000000
     37218      5181  TIP3      H1              4.5937665622        8.3142949216       53.1164582601  TIP3      4989            0.0000000000
     37219      5181  TIP3      H2              4.0785081687        7.0613631852       52.4688610053  TIP3      4989            0.0000000000
     37220      5182  TIP3      OH2             7.8827023951        5.3034721129       39.1056954024  TIP3      4990            0.0000000000
     37221      5182  TIP3      H1              7.4286755602        4.8823205534       39.8637712695  TIP3      4990            0.0000000000
     37222      5182  TIP3      H2              7.1729578006        5.7352118892       38.6145934458  TIP3      4990            0.0000000000
     37223      5183  TIP3      OH2             1.1808200907        5.0848025088       46.2775190831  TIP3      4991            0.0000000000
     37224      5183  TIP3      H1              1.9032158001        4.9232332376       46.9199558731  TIP3      4991            0.0000000000
     37225      5183  TIP3      H2              1.5650898075        4.6630834293       45.4681983448  TIP3      4991            0.0000000000
     37226      5184  TIP3      OH2             2.4339110511        5.7340074666       41.5838832915  TIP3      4992            0.0000000000
     37227      5184  TIP3      H1              2.9459880616        6.3449091857       41.0232840688  TIP3      4992            0.0000000000
     37228      5184  TIP3      H2              1.7471514483        6.3561423404       41.9072755170  TIP3      4992            0.0000000000
     37229      5185  TIP3      OH2            12.4398585510        9.2687555913       51.3598611844  TIP3      4993            0.0000000000
     37230      5185  TIP3      H1             13.0118575304        8.5719022731       50.9851032810  TIP3      4993            0.0000000000
     37231      5185  TIP3      H2             12.2328960842        8.9616812359       52.2692284220  TIP3      4993            0.0000000000
     37232      5186  TIP3      OH2             9.4103061272        5.3321025586       46.4394094129  TIP3      4994            0.0000000000
     37233      5186  TIP3      H1              8.4779851139        5.3252672552       46.7308698366  TIP3      4994            0.0000000000
     37234      5186  TIP3      H2              9.8884328225        5.1569253107       47.2636236531  TIP3      4994            0.0000000000
     37235      5187  TIP3      OH2             4.1824894416        6.8543628246       45.3418160150  TIP3      4995            0.0000000000
     37236      5187  TIP3      H1              3.3374139504        7.0294747285       44.8829665998  TIP3      4995            0.0000000000
     37237      5187  TIP3      H2              4.5262376799        6.0595858643       44.8837959694  TIP3      4995            0.0000000000
     37238      5188  TIP3      OH2             7.8564819347        6.9256508499       42.9362340612  TIP3      4996            0.0000000000
     37239      5188  TIP3      H1              8.8126986259        7.0362075985       43.0964370743  TIP3      4996            0.0000000000
     37240      5188  TIP3      H2              7.6200133665        7.6081870352       42.2802141516  TIP3      4996            0.0000000000
     37241      5189  TIP3      OH2            13.8103149954        4.5632252353       49.6786459569  TIP3      4997            0.0000000000
     37242      5189  TIP3      H1             13.1279832700        4.6096777367       50.3861210619  TIP3      4997            0.0000000000
     37243      5189  TIP3      H2             13.2990405823        4.3078382306       48.8971855812  TIP3      4997            0.0000000000
     37244      5190  TIP3      OH2             6.5627336264        8.1017580397       40.5245839294  TIP3      4998            0.0000000000
     37245      5190  TIP3      H1              6.0297279702        7.7227875937       39.8046596540  TIP3      4998            0.0000000000
     37246      5190  TIP3      H2              7.3832117162        8.3093785192       40.0509124160  TIP3      4998            0.0000000000
     37247      5191  TIP3      OH2            17.0091734988       20.2044183530       56.0069553551  TIP3      4999            0.0000000000
     37248      5191  TIP3      H1             17.2757933654       20.5876392782       55.1523267233  TIP3      4999            0.0000000000
     37249      5191  TIP3      H2             17.7344894062       20.5243274097       56.5639987840  TIP3      4999            0.0000000000
     37250      5192  TIP3      OH2             4.6868445940       12.6755086142       55.5797961298  TIP3      5000            0.0000000000
     37251      5192  TIP3      H1              5.4079434625       12.9199691053       56.1834167618  TIP3      5000            0.0000000000
     37252      5192  TIP3      H2              3.9137733687       12.7542032237       56.1805563562  TIP3      5000            0.0000000000
     37253      5193  TIP3      OH2            10.6782423485        8.0807881069       48.3281453523  TIP3      5001            0.0000000000
     37254      5193  TIP3      H1             11.2876717864        7.5516357356       47.8010597182  TIP3      5001            0.0000000000
     37255      5193  TIP3      H2             10.5424957005        7.5398569130       49.1179524824  TIP3      5001            0.0000000000
     37256      5194  TIP3      OH2             5.6970453249        4.2302916947       44.7703175607  TIP3      5002            0.0000000000
     37257      5194  TIP3      H1              5.3865819880        3.3064001834       44.7632223090  TIP3      5002            0.0000000000
     37258      5194  TIP3      H2              6.4884261875        4.1620000582       44.2234427863  TIP3      5002            0.0000000000
     37259      5195  TIP3      OH2             9.3300733003        6.4135286931       50.7590391858  TIP3      5003            0.0000000000
     37260      5195  TIP3      H1              8.5037942502        6.9315494685       50.8385070707  TIP3      5003            0.0000000000
     37261      5195  TIP3      H2              9.8883571277        6.7817480220       51.4758052047  TIP3      5003            0.0000000000
     37262      5196  TIP3      OH2             9.9137001564       12.6351536306       42.4449488644  TIP3      5004            0.0000000000
     37263      5196  TIP3      H1              9.1139970068       12.1692962738       42.1097166938  TIP3      5004            0.0000000000
     37264      5196  TIP3      H2              9.6870219683       12.7592137322       43.3892286003  TIP3      5004            0.0000000000
     37265      5197  TIP3      OH2            17.1306738326       11.8404967554       51.2337589574  TIP3      5005            0.0000000000
     37266      5197  TIP3      H1             17.6765014705       12.3354270480       50.5975527303  TIP3      5005            0.0000000000
     37267      5197  TIP3      H2             16.2461620791       11.8791317745       50.8065034996  TIP3      5005            0.0000000000
     37268      5198  TIP3      OH2            13.7424965520        5.4476324627       40.6189598404  TIP3      5006            0.0000000000
     37269      5198  TIP3      H1             12.7906929802        5.6017779870       40.4857234690  TIP3      5006            0.0000000000
     37270      5198  TIP3      H2             14.0825529815        6.2984437833       40.9714533047  TIP3      5006            0.0000000000
     37271      5199  TIP3      OH2            11.2840517521       12.9844913172       53.6184964025  TIP3      5007            0.0000000000
     37272      5199  TIP3      H1             11.1287309747       12.4585519438       54.4253928236  TIP3      5007            0.0000000000
     37273      5199  TIP3      H2             11.1314394042       13.8882675917       53.8603347098  TIP3      5007            0.0000000000
     37274      5200  TIP3      OH2            14.4796196889        7.3700520174       42.2434138700  TIP3      5008            0.0000000000
     37275      5200  TIP3      H1             15.3608385398        7.2362812529       42.6533425633  TIP3      5008            0.0000000000
     37276      5200  TIP3      H2             14.5847418081        8.1912535068       41.7348681912  TIP3      5008            0.0000000000
     37277      5201  TIP3      OH2             5.0245184724       12.0311269366       48.2447715973  TIP3      5009            0.0000000000
     37278      5201  TIP3      H1              5.7068794488       11.9524710280       47.5474919074  TIP3      5009            0.0000000000
     37279      5201  TIP3      H2              5.0867923045       11.1723492682       48.7016386116  TIP3      5009            0.0000000000
     37280      5202  TIP3      OH2            12.0079515912       14.1023522889       41.4767248688  TIP3      5010            0.0000000000
     37281      5202  TIP3      H1             11.6646661687       14.9476459738       41.8338325359  TIP3      5010            0.0000000000
     37282      5202  TIP3      H2             11.2761417179       13.4857106206       41.6954930851  TIP3      5010            0.0000000000
     37283      5203  TIP3      OH2             2.0113067565       10.4386952960       53.5105924890  TIP3      5011            0.0000000000
     37284      5203  TIP3      H1              2.1865141658        9.9965781285       54.3659148765  TIP3      5011            0.0000000000
     37285      5203  TIP3      H2              1.3949088465        9.8201893235       53.0823615505  TIP3      5011            0.0000000000
     37286      5204  TIP3      OH2             9.0051022705        9.9836185235       55.6879978585  TIP3      5012            0.0000000000
     37287      5204  TIP3      H1              8.7310679398        9.6904306139       54.8109183456  TIP3      5012            0.0000000000
     37288      5204  TIP3      H2              9.9442974831        9.6806040914       55.6806209107  TIP3      5012            0.0000000000
     37289      5205  TIP3      OH2            13.7143737508       15.3693149680       53.6257735717  TIP3      5013            0.0000000000
     37290      5205  TIP3      H1             12.7774984004       15.4822215327       53.4057158340  TIP3      5013            0.0000000000
     37291      5205  TIP3      H2             13.6739122543       15.6042314826       54.5702462955  TIP3      5013            0.0000000000
     37292      5206  TIP3      OH2            19.3829452274        7.4996353468       42.0225615052  TIP3      5014            0.0000000000
     37293      5206  TIP3      H1             18.8155759647        7.2187067791       41.2806649297  TIP3      5014            0.0000000000
     37294      5206  TIP3      H2             19.4580526438        8.4499220637       41.7731453277  TIP3      5014            0.0000000000
     37295      5207  TIP3      OH2            19.3744243862       13.3694932341       54.8443057873  TIP3      5015            0.0000000000
     37296      5207  TIP3      H1             18.4835593528       13.5890146784       54.4700796015  TIP3      5015            0.0000000000
     37297      5207  TIP3      H2             19.9211761921       13.3105068774       54.0327922938  TIP3      5015            0.0000000000
     37298      5208  TIP3      OH2            17.6336304377       16.3361410705       42.4178961687  TIP3      5016            0.0000000000
     37299      5208  TIP3      H1             17.3036572214       15.4986653911       42.7677017753  TIP3      5016            0.0000000000
     37300      5208  TIP3      H2             17.9895832627       16.1167328022       41.5411516391  TIP3      5016            0.0000000000
     37301      5209  TIP3      OH2            14.8843703486       11.1727609005       49.4946570496  TIP3      5017            0.0000000000
     37302      5209  TIP3      H1             13.9419015657       10.9416543110       49.4364170031  TIP3      5017            0.0000000000
     37303      5209  TIP3      H2             15.3045009697       10.3832316385       49.1118715765  TIP3      5017            0.0000000000
     37304      5210  TIP3      OH2             7.3995474882       15.4869499926       45.6308889713  TIP3      5018            0.0000000000
     37305      5210  TIP3      H1              7.8967719303       16.2932102299       45.4239125587  TIP3      5018            0.0000000000
     37306      5210  TIP3      H2              6.5197059024       15.7153499588       45.3000547571  TIP3      5018            0.0000000000
     37307      5211  TIP3      OH2             3.1635170292       10.3216884395       40.2022460244  TIP3      5019            0.0000000000
     37308      5211  TIP3      H1              3.7430395871       10.9878672898       40.6106521359  TIP3      5019            0.0000000000
     37309      5211  TIP3      H2              2.2732818337       10.6363326434       40.4491690819  TIP3      5019            0.0000000000
     37310      5212  TIP3      OH2             8.8039644661       13.1517200031       45.1386359779  TIP3      5020            0.0000000000
     37311      5212  TIP3      H1              8.4943632022       14.0712244139       45.2437262055  TIP3      5020            0.0000000000
     37312      5212  TIP3      H2              8.0946201256       12.6557783270       45.5920584381  TIP3      5020            0.0000000000
     37313      5213  TIP3      OH2             9.2607056942       17.3309841239       51.5632998009  TIP3      5021            0.0000000000
     37314      5213  TIP3      H1              9.7290338349       18.1290050469       51.2751655180  TIP3      5021            0.0000000000
     37315      5213  TIP3      H2              9.8780338354       16.9871845385       52.2354946247  TIP3      5021            0.0000000000
     37316      5214  TIP3      OH2             7.4876648613       18.1382775204       44.6714343407  TIP3      5022            0.0000000000
     37317      5214  TIP3      H1              6.5246020775       18.2814537654       44.8080363344  TIP3      5022            0.0000000000
     37318      5214  TIP3      H2              7.8537668492       18.9740017677       45.0173304267  TIP3      5022            0.0000000000
     37319      5215  TIP3      OH2            12.7876189181       13.3373882227       51.1709709640  TIP3      5023            0.0000000000
     37320      5215  TIP3      H1             12.4600165311       13.1339966332       52.0754323238  TIP3      5023            0.0000000000
     37321      5215  TIP3      H2             13.4146792671       12.6085634081       51.0286641053  TIP3      5023            0.0000000000
     37322      5216  TIP3      OH2            15.1226139705       14.4116646947       40.2632223417  TIP3      5024            0.0000000000
     37323      5216  TIP3      H1             15.4196934849       13.9352301107       41.0663115044  TIP3      5024            0.0000000000
     37324      5216  TIP3      H2             14.1708018794       14.2235280943       40.3455481660  TIP3      5024            0.0000000000
     37325      5217  TIP3      OH2            15.6055082623       17.9131440258       53.6639461317  TIP3      5025            0.0000000000
     37326      5217  TIP3      H1             14.9113534721       17.4180145046       53.1873796445  TIP3      5025            0.0000000000
     37327      5217  TIP3      H2             15.7859831855       18.6129671829       53.0017007082  TIP3      5025            0.0000000000
     37328      5218  TIP3      OH2            19.5870904614       18.7587659978       40.5211496300  TIP3      5026            0.0000000000
     37329      5218  TIP3      H1             20.2749318566       19.4236440546       40.3154993559  TIP3      5026            0.0000000000
     37330      5218  TIP3      H2             18.8721969907       19.3701246842       40.8066183645  TIP3      5026            0.0000000000
     37331      5219  TIP3      OH2             3.6681340513        5.1598329369       53.0572701039  TIP3      5027            0.0000000000
     37332      5219  TIP3      H1              2.7654347941        5.5186935948       53.0561194002  TIP3      5027            0.0000000000
     37333      5219  TIP3      H2              3.5574451322        4.3170812963       53.5254473988  TIP3      5027            0.0000000000
     37334      5220  TIP3      OH2            15.8998169782       13.0415518668       42.5080394368  TIP3      5028            0.0000000000
     37335      5220  TIP3      H1             15.6618989869       12.2539929046       43.0445388832  TIP3      5028            0.0000000000
     37336      5220  TIP3      H2             16.8525986991       13.0840041464       42.6857624561  TIP3      5028            0.0000000000
     37337      5221  TIP3      OH2             3.2743900046       16.9505450741       51.4836584387  TIP3      5029            0.0000000000
     37338      5221  TIP3      H1              3.5837882196       16.0327849698       51.4922781111  TIP3      5029            0.0000000000
     37339      5221  TIP3      H2              3.5382479352       17.2426047879       52.3630132721  TIP3      5029            0.0000000000
     37340      5222  TIP3      OH2             9.2524334729       15.4779316900       38.7620833494  TIP3      5030            0.0000000000
     37341      5222  TIP3      H1              9.3514823684       14.7139423386       38.1713739222  TIP3      5030            0.0000000000
     37342      5222  TIP3      H2              8.8100961522       15.0474673793       39.5260857145  TIP3      5030            0.0000000000
     37343      5223  TIP3      OH2             8.0221628366       15.0055576117       41.2148401723  TIP3      5031            0.0000000000
     37344      5223  TIP3      H1              8.2943863785       14.4904810853       41.9839802503  TIP3      5031            0.0000000000
     37345      5223  TIP3      H2              8.1160258466       15.9315221852       41.5374115002  TIP3      5031            0.0000000000
     37346      5224  TIP3      OH2             4.5680077049       12.2505499446       41.7006392763  TIP3      5032            0.0000000000
     37347      5224  TIP3      H1              3.8525553397       12.6469468285       42.2372658030  TIP3      5032            0.0000000000
     37348      5224  TIP3      H2              5.0721982725       13.0306738380       41.4056363005  TIP3      5032            0.0000000000
     37349      5225  TIP3      OH2            12.4053195610        4.9102214809       52.0021880678  TIP3      5033            0.0000000000
     37350      5225  TIP3      H1             13.0983746322        5.0162204559       52.6645429242  TIP3      5033            0.0000000000
     37351      5225  TIP3      H2             12.0126442455        4.0469627873       52.2318226414  TIP3      5033            0.0000000000
     37352      5226  TIP3      OH2            13.1367730688        4.5070552131       43.1053357048  TIP3      5034            0.0000000000
     37353      5226  TIP3      H1             13.3702986482        4.9706868287       42.2762948597  TIP3      5034            0.0000000000
     37354      5226  TIP3      H2             13.7121303626        4.9500160092       43.7429221508  TIP3      5034            0.0000000000
     37355      5227  TIP3      OH2            10.8293106186       16.6676298422       41.9090282993  TIP3      5035            0.0000000000
     37356      5227  TIP3      H1             10.0113463738       17.2002876843       41.9815897638  TIP3      5035            0.0000000000
     37357      5227  TIP3      H2             11.3681877847       17.2183947612       41.3228511599  TIP3      5035            0.0000000000
     37358      5228  TIP3      OH2            10.3713704717        6.2595804649       43.9241845118  TIP3      5036            0.0000000000
     37359      5228  TIP3      H1             11.1518821234        6.8449431848       43.9726325649  TIP3      5036            0.0000000000
     37360      5228  TIP3      H2             10.1024799601        6.1335446083       44.8542658594  TIP3      5036            0.0000000000
     37361      5229  TIP3      OH2            10.8835790320        7.2349244539       53.1472180263  TIP3      5037            0.0000000000
     37362      5229  TIP3      H1             11.0267240984        7.8795699266       53.8744477968  TIP3      5037            0.0000000000
     37363      5229  TIP3      H2             11.6044375756        6.6034717317       53.2082566581  TIP3      5037            0.0000000000
     37364      5230  TIP3      OH2            11.2168163013        3.3160836790       44.8035214741  TIP3      5038            0.0000000000
     37365      5230  TIP3      H1             10.8955031279        3.9635754437       45.4551261269  TIP3      5038            0.0000000000
     37366      5230  TIP3      H2             11.9124199199        3.8628998275       44.3640843038  TIP3      5038            0.0000000000
     37367      5231  TIP3      OH2             8.2316434929       17.7023292897       41.9400560350  TIP3      5039            0.0000000000
     37368      5231  TIP3      H1              8.3228377098       18.5169772016       41.3887904731  TIP3      5039            0.0000000000
     37369      5231  TIP3      H2              7.9567823258       18.0667241403       42.8098393691  TIP3      5039            0.0000000000
     37370      5232  TIP3      OH2             6.8759876714        4.4234253737       41.5174255225  TIP3      5040            0.0000000000
     37371      5232  TIP3      H1              6.8266732790        5.3218182873       41.9015176809  TIP3      5040            0.0000000000
     37372      5232  TIP3      H2              7.7855740658        4.1789889179       41.7802373850  TIP3      5040            0.0000000000
     37373      5233  TIP3      OH2            17.0954893439        5.1589001816       53.9631110009  TIP3      5041            0.0000000000
     37374      5233  TIP3      H1             16.1720566101        5.4851416116       53.8278469200  TIP3      5041            0.0000000000
     37375      5233  TIP3      H2             17.4067269032        5.1371995766       53.0420222853  TIP3      5041            0.0000000000
     37376      5234  TIP3      OH2            15.7210017479        8.9399117276       47.9641700752  TIP3      5042            0.0000000000
     37377      5234  TIP3      H1             14.8922909130        8.4980606598       47.6939089992  TIP3      5042            0.0000000000
     37378      5234  TIP3      H2             16.1958279457        8.2531477143       48.4839692836  TIP3      5042            0.0000000000
     37379      5235  TIP3      OH2             5.1088544418       14.8646313183       40.5588127108  TIP3      5043            0.0000000000
     37380      5235  TIP3      H1              5.7761503235       15.4911142079       40.8761148850  TIP3      5043            0.0000000000
     37381      5235  TIP3      H2              5.6325281544       14.4002400402       39.8752366842  TIP3      5043            0.0000000000
     37382      5236  TIP3      OH2             3.4537430428        7.5386049460       39.7034859394  TIP3      5044            0.0000000000
     37383      5236  TIP3      H1              3.4722434931        8.4971527924       39.9110010108  TIP3      5044            0.0000000000
     37384      5236  TIP3      H2              2.5618900816        7.3641922966       39.3955759161  TIP3      5044            0.0000000000
     37385      5237  TIP3      OH2            16.7787942614       18.2047016462       49.6398366959  TIP3      5045            0.0000000000
     37386      5237  TIP3      H1             16.6899541064       18.8845101307       48.9435756758  TIP3      5045            0.0000000000
     37387      5237  TIP3      H2             17.7427860525       18.2576006627       49.8131528027  TIP3      5045            0.0000000000
     37388      5238  TIP3      OH2             4.2511741548        2.3402659607       48.4482282044  TIP3      5046            0.0000000000
     37389      5238  TIP3      H1              4.0905403782        2.3252218465       47.4797686281  TIP3      5046            0.0000000000
     37390      5238  TIP3      H2              3.8580291036        1.4761734604       48.7008984005  TIP3      5046            0.0000000000
     37391      5239  TIP3      OH2             3.2238447820       16.2468493879       44.5937573308  TIP3      5047            0.0000000000
     37392      5239  TIP3      H1              2.3704969589       16.6991555537       44.5430697504  TIP3      5047            0.0000000000
     37393      5239  TIP3      H2              3.7023960362       16.7099107837       43.8928897523  TIP3      5047            0.0000000000
     37394      5240  TIP3      OH2             2.4281040057       18.8967879539       55.8734826392  TIP3      5048            0.0000000000
     37395      5240  TIP3      H1              3.0345335979       18.6963897189       56.6138616749  TIP3      5048            0.0000000000
     37396      5240  TIP3      H2              2.0300930395       18.0268878411       55.6933818025  TIP3      5048            0.0000000000
     37397      5241  TIP3      OH2             7.1122504645       17.8153661739       57.4827162308  TIP3      5049            0.0000000000
     37398      5241  TIP3      H1              7.8680617775       17.3158378745       57.8158962708  TIP3      5049            0.0000000000
     37399      5241  TIP3      H2              7.0854547598       17.5359149184       56.5463484628  TIP3      5049            0.0000000000
     37400      5242  TIP3      OH2            11.2465270316       17.3287978351       38.8855734017  TIP3      5050            0.0000000000
     37401      5242  TIP3      H1             10.5536682747       16.6696234188       39.1129791331  TIP3      5050            0.0000000000
     37402      5242  TIP3      H2             11.9645481279       16.7301539654       38.6374043211  TIP3      5050            0.0000000000
     37403      5243  TIP3      OH2            13.6113330114       16.1907914848       56.2310142069  TIP3      5051            0.0000000000
     37404      5243  TIP3      H1             13.2983252524       15.2972326887       56.4907694460  TIP3      5051            0.0000000000
     37405      5243  TIP3      H2             14.3800852021       16.3137805140       56.8242959351  TIP3      5051            0.0000000000
     37406      5244  TIP3      OH2            15.8049833784       17.0725226987       39.0721602362  TIP3      5052            0.0000000000
     37407      5244  TIP3      H1             16.0996774240       16.2963275144       39.5753703532  TIP3      5052            0.0000000000
     37408      5244  TIP3      H2             16.5688286277       17.2915261058       38.5194967992  TIP3      5052            0.0000000000
     37409      5245  TIP3      OH2             2.3410051570       12.6701919451       56.8729449605  TIP3      5053            0.0000000000
     37410      5245  TIP3      H1              2.5099626606       11.7580664514       56.5776192867  TIP3      5053            0.0000000000
     37411      5245  TIP3      H2              1.6011076534       12.9257363585       56.2971773252  TIP3      5053            0.0000000000
     37412      5246  TIP3      OH2             6.6924128924       13.0127513408       38.8910258554  TIP3      5054            0.0000000000
     37413      5246  TIP3      H1              6.8335018458       12.2518975270       39.4773955810  TIP3      5054            0.0000000000
     37414      5246  TIP3      H2              7.4400566655       12.8944513705       38.2723505646  TIP3      5054            0.0000000000
     37415      5247  TIP3      OH2             9.0336014785       12.6656627738       56.2631679327  TIP3      5055            0.0000000000
     37416      5247  TIP3      H1              8.7446832599       12.9642304900       55.3801578209  TIP3      5055            0.0000000000
     37417      5247  TIP3      H2              9.1614049842       11.6925031605       56.1442598148  TIP3      5055            0.0000000000
     37418      5248  TIP3      OH2            12.1221294710       14.1225202197       38.6679528280  TIP3      5056            0.0000000000
     37419      5248  TIP3      H1             11.8517328084       14.2037480105       39.5961429250  TIP3      5056            0.0000000000
     37420      5248  TIP3      H2             11.9326204608       13.1649757543       38.5233240381  TIP3      5056            0.0000000000
     37421      5249  TIP3      OH2            14.8184722866       12.5707855988       53.6123629306  TIP3      5057            0.0000000000
     37422      5249  TIP3      H1             15.5689281869       13.1806835678       53.5838597990  TIP3      5057            0.0000000000
     37423      5249  TIP3      H2             14.0514366523       13.1466599613       53.6909881918  TIP3      5057            0.0000000000
     37424      5250  TIP3      OH2             3.2631444292        9.8911188444       56.2508023577  TIP3      5058            0.0000000000
     37425      5250  TIP3      H1              3.6862788588        9.0294248004       56.1692739158  TIP3      5058            0.0000000000
     37426      5250  TIP3      H2              3.0281954206        9.8997046160       57.1925158397  TIP3      5058            0.0000000000
     37427      5251  TIP3      OH2             7.8940919339       11.0320487256       41.3193838474  TIP3      5059            0.0000000000
     37428      5251  TIP3      H1              7.3890925465       10.4927243190       41.9452005922  TIP3      5059            0.0000000000
     37429      5251  TIP3      H2              8.1927628969       10.3586271739       40.6649881432  TIP3      5059            0.0000000000
     37430      5252  TIP3      OH2             7.1208320007        8.8228855926       53.5869287978  TIP3      5060            0.0000000000
     37431      5252  TIP3      H1              6.5585914801        9.5651561225       53.8604352963  TIP3      5060            0.0000000000
     37432      5252  TIP3      H2              7.5813276726        9.2080573905       52.8168927609  TIP3      5060            0.0000000000
     37433      5253  TIP3      OH2             8.9705164151        9.2543815171       39.5169857136  TIP3      5061            0.0000000000
     37434      5253  TIP3      H1              8.8187729004        9.1639980466       38.5540096569  TIP3      5061            0.0000000000
     37435      5253  TIP3      H2              9.9466273803        9.3064284841       39.5836631427  TIP3      5061            0.0000000000
     37436      5254  TIP3      OH2            12.2586741519       11.4749402348       57.1008722072  TIP3      5062            0.0000000000
     37437      5254  TIP3      H1             13.1498231592       11.3691696410       56.7322390837  TIP3      5062            0.0000000000
     37438      5254  TIP3      H2             12.0586858190       10.6044112884       57.4678054303  TIP3      5062            0.0000000000
     37439      5255  TIP3      OH2            18.2825171582       11.5959479072       38.9358818499  TIP3      5063            0.0000000000
     37440      5255  TIP3      H1             18.1080214344       11.2055257798       38.0671158448  TIP3      5063            0.0000000000
     37441      5255  TIP3      H2             18.3866627618       12.5529524922       38.7399681799  TIP3      5063            0.0000000000
     37442      5256  TIP3      OH2             7.5631239364        6.2170593456       54.6632708222  TIP3      5064            0.0000000000
     37443      5256  TIP3      H1              7.6844923745        5.5077563258       54.0048635772  TIP3      5064            0.0000000000
     37444      5256  TIP3      H2              7.5205527037        7.0268965202       54.1129015279  TIP3      5064            0.0000000000
     37445      5257  TIP3      OH2             7.9665093783        4.5887449303       52.2153170673  TIP3      5065            0.0000000000
     37446      5257  TIP3      H1              8.4776400563        5.0619254612       51.5138157616  TIP3      5065            0.0000000000
     37447      5257  TIP3      H2              7.0732320763        4.5187663969       51.8098613166  TIP3      5065            0.0000000000
     37448      5258  TIP3      OH2             9.4663264259       10.0655572610       52.4328316524  TIP3      5066            0.0000000000
     37449      5258  TIP3      H1             10.2909273146        9.9233478418       51.9425223931  TIP3      5066            0.0000000000
     37450      5258  TIP3      H2              9.1768628586       10.9394693137       52.1363286674  TIP3      5066            0.0000000000
     37451      5259  TIP3      OH2            13.9031278399        7.8247174949       57.4617862411  TIP3      5067            0.0000000000
     37452      5259  TIP3      H1             14.1431931650        6.9036108311       57.3101876361  TIP3      5067            0.0000000000
     37453      5259  TIP3      H2             14.7541740946        8.2927251917       57.4023065034  TIP3      5067            0.0000000000
     37454      5260  TIP3      OH2            15.3581202051       10.7198656568       55.7267715311  TIP3      5068            0.0000000000
     37455      5260  TIP3      H1             14.9467915411       11.2567339643       55.0024526782  TIP3      5068            0.0000000000
     37456      5260  TIP3      H2             16.2507654793       10.6148785838       55.3606693161  TIP3      5068            0.0000000000
     37457      5261  TIP3      OH2             6.0168986346        7.4658151277       56.5926985764  TIP3      5069            0.0000000000
     37458      5261  TIP3      H1              5.2516900347        6.8859474314       56.4154108312  TIP3      5069            0.0000000000
     37459      5261  TIP3      H2              6.6760500741        7.1024460270       55.9704109589  TIP3      5069            0.0000000000
     37460      5262  TIP3      OH2             8.7618834788        2.0326788020       52.6029774470  TIP3      5070            0.0000000000
     37461      5262  TIP3      H1              8.5780310687        2.9975051028       52.5108633570  TIP3      5070            0.0000000000
     37462      5262  TIP3      H2              8.0103836805        1.6690802695       52.1031129543  TIP3      5070            0.0000000000
     37463      5263  TIP3      OH2            10.0303815567        6.2903707217       56.2419252384  TIP3      5071            0.0000000000
     37464      5263  TIP3      H1              9.6933981257        6.1203624483       57.1406256446  TIP3      5071            0.0000000000
     37465      5263  TIP3      H2              9.2448807059        6.1730748618       55.6860107778  TIP3      5071            0.0000000000
     37466      5264  TIP3      OH2            12.7503591963        5.4736931321       55.3038398296  TIP3      5072            0.0000000000
     37467      5264  TIP3      H1             11.7906533198        5.5807125892       55.4294070092  TIP3      5072            0.0000000000
     37468      5264  TIP3      H2             13.0106355901        4.8708734894       56.0225664708  TIP3      5072            0.0000000000
     37469      5265  TIP3      OH2            14.3356309223        4.1273117818       57.2252340500  TIP3      5073            0.0000000000
     37470      5265  TIP3      H1             14.2842013867        3.1500555958       57.2532654294  TIP3      5073            0.0000000000
     37471      5265  TIP3      H2             14.0853402673        4.4206576208       58.1241118614  TIP3      5073            0.0000000000
     37472      5266  TIP3      OH2             4.0994406137        5.4021664347       56.3371886339  TIP3      5074            0.0000000000
     37473      5266  TIP3      H1              4.3565561419        4.6675734922       55.7543027434  TIP3      5074            0.0000000000
     37474      5266  TIP3      H2              4.0168511858        4.9562106017       57.2036838899  TIP3      5074            0.0000000000
     37475      5267  TIP3      OH2             8.9732978125        1.4285309883       55.3053224331  TIP3      5075            0.0000000000
     37476      5267  TIP3      H1              9.6534576511        0.7256505687       55.2888272008  TIP3      5075            0.0000000000
     37477      5267  TIP3      H2              8.8596420717        1.5718224941       54.3453270135  TIP3      5075            0.0000000000
     37478      5268  TIP3      OH2             9.3320883521        3.0368709300       57.4253398696  TIP3      5076            0.0000000000
     37479      5268  TIP3      H1              9.1627441231        2.5358636566       56.5891815517  TIP3      5076            0.0000000000
     37480      5268  TIP3      H2              8.7386716948        3.8062350524       57.3208860742  TIP3      5076            0.0000000000
     37481      5269  TIP3      OH2             8.8018200688       19.9566349394       40.5967247320  TIP3      5077            0.0000000000
     37482      5269  TIP3      H1              9.7686498823       20.0406774869       40.6638714621  TIP3      5077            0.0000000000
     37483      5269  TIP3      H2              8.6543954682       20.5574392716       39.8566772526  TIP3      5077            0.0000000000
     37484      5270  TIP3      OH2             2.3536178667       14.5278010929       40.0651145610  TIP3      5078            0.0000000000
     37485      5270  TIP3      H1              3.3207512891       14.6225169661       40.2450401811  TIP3      5078            0.0000000000
     37486      5270  TIP3      H2              2.4043343354       13.8847171151       39.3182792467  TIP3      5078            0.0000000000
     37487      5271  TIP3      OH2             1.1293188625       19.9171977745       45.0323213370  TIP3      5079            0.0000000000
     37488      5271  TIP3      H1              0.4171469668       19.4252895199       44.5674305487  TIP3      5079            0.0000000000
     37489      5271  TIP3      H2              1.4193022259       19.2618512476       45.6943116093  TIP3      5079            0.0000000000
     37490      5272  TIP3      OH2             1.9591520689       18.0502625190       46.9060413244  TIP3      5080            0.0000000000
     37491      5272  TIP3      H1              1.6069022166       17.1717153766       47.1062623661  TIP3      5080            0.0000000000
     37492      5272  TIP3      H2              2.1852214635       18.3802555605       47.7916988862  TIP3      5080            0.0000000000
     37493      5273  TIP3      OH2            19.4987225275       18.8464764273       49.8359964169  TIP3      5081            0.0000000000
     37494      5273  TIP3      H1             19.5293862827       19.0069078433       50.7950647972  TIP3      5081            0.0000000000
     37495      5273  TIP3      H2             20.2024993366       19.4291311704       49.5325990442  TIP3      5081            0.0000000000
     37496      5274  TIP3      OH2            19.0711057861       18.4431709534       52.7836260746  TIP3      5082            0.0000000000
     37497      5274  TIP3      H1             18.6000872562       17.6722043276       52.4009527642  TIP3      5082            0.0000000000
     37498      5274  TIP3      H2             19.5584683712       17.9946332966       53.4945742169  TIP3      5082            0.0000000000
     37499      5275  TIP3      OH2            17.5035393838       14.1698028090       57.4454833676  TIP3      5083            0.0000000000
     37500      5275  TIP3      H1             16.6047936317       14.1376569495       57.8205892353  TIP3      5083            0.0000000000
     37501      5275  TIP3      H2             17.8867578015       14.9609629297       57.8705226894  TIP3      5083            0.0000000000
     37502      5276  TIP3      OH2            18.8303662130       12.4950708465       42.8840702520  TIP3      5084            0.0000000000
     37503      5276  TIP3      H1             19.6982406794       12.8836965484       43.0701324888  TIP3      5084            0.0000000000
     37504      5276  TIP3      H2             18.8150313189       11.7746163418       43.5518916046  TIP3      5084            0.0000000000
     37505      5277  TIP3      OH2            19.1926331794       10.5687708067       44.7735946639  TIP3      5085            0.0000000000
     37506      5277  TIP3      H1             18.4404810844       10.0704804443       45.1654996346  TIP3      5085            0.0000000000
     37507      5277  TIP3      H2             19.7900738171       10.6993978370       45.5358589888  TIP3      5085            0.0000000000
     37508      5278  TIP3      OH2            18.9501807467       13.2643102559       49.7543751509  TIP3      5086            0.0000000000
     37509      5278  TIP3      H1             19.7630377287       12.8860287523       49.3755410086  TIP3      5086            0.0000000000
     37510      5278  TIP3      H2             19.0960233494       14.2184430457       49.5822599608  TIP3      5086            0.0000000000
     37511      5279  TIP3      OH2            17.5103074753       16.1717552715       52.0241374093  TIP3      5087            0.0000000000
     37512      5279  TIP3      H1             16.8159859655       16.5059555889       52.6160277559  TIP3      5087            0.0000000000
     37513      5279  TIP3      H2             16.9624260058       15.7712480436       51.3164091095  TIP3      5087            0.0000000000
     37514      5280  TIP3      OH2            19.4956615098       10.4028447436       41.1788316500  TIP3      5088            0.0000000000
     37515      5280  TIP3      H1             18.9289885470       10.7322339060       40.4476425115  TIP3      5088            0.0000000000
     37516      5280  TIP3      H2             19.3882981180       11.1200147794       41.8296503244  TIP3      5088            0.0000000000
     37517      5281  TIP3      OH2            17.8794308874        7.6155388468       39.6716937850  TIP3      5089            0.0000000000
     37518      5281  TIP3      H1             17.9289546797        8.2928645536       38.9897549391  TIP3      5089            0.0000000000
     37519      5281  TIP3      H2             17.6703116870        6.7964437343       39.1867918942  TIP3      5089            0.0000000000
     37520      5282  TIP3      OH2            17.0135238690        9.0404892640       45.3416497591  TIP3      5090            0.0000000000
     37521      5282  TIP3      H1             16.8660652799        8.0864506348       45.3013801010  TIP3      5090            0.0000000000
     37522      5282  TIP3      H2             16.6828138978        9.2551480754       46.2338866552  TIP3      5090            0.0000000000
     37523      5283  TIP3      OH2             2.0141461804       11.0629377286       49.3962943585  TIP3      5091            0.0000000000
     37524      5283  TIP3      H1              2.2148487716       11.0733152526       48.4339516961  TIP3      5091            0.0000000000
     37525      5283  TIP3      H2              2.9171543348       10.9691870753       49.7622990651  TIP3      5091            0.0000000000
     37526      5284  TIP3      OH2            17.8818995650       11.0121321577       55.0265950788  TIP3      5092            0.0000000000
     37527      5284  TIP3      H1             18.4765146341       10.2491486322       55.1592570050  TIP3      5092            0.0000000000
     37528      5284  TIP3      H2             18.4742380956       11.7887117097       55.0313253651  TIP3      5092            0.0000000000
     37529      5285  TIP3      OH2            19.3817798398        8.8840021428       55.6979402247  TIP3      5093            0.0000000000
     37530      5285  TIP3      H1             18.4960865408        8.4987363743       55.5311844321  TIP3      5093            0.0000000000
     37531      5285  TIP3      H2             19.9374503024        8.0957239711       55.5851049845  TIP3      5093            0.0000000000
     37532      5286  TIP3      OH2            17.1306971960        5.0801466042       38.7820188349  TIP3      5094            0.0000000000
     37533      5286  TIP3      H1             17.6925383282        4.6625177930       39.4661456041  TIP3      5094            0.0000000000
     37534      5286  TIP3      H2             16.2554266872        4.6885125996       38.9544233120  TIP3      5094            0.0000000000
     37535      5287  TIP3      OH2            16.6576505164        6.6207486750       43.7536002914  TIP3      5095            0.0000000000
     37536      5287  TIP3      H1             16.9752314162        5.7009944576       43.9171422119  TIP3      5095            0.0000000000
     37537      5287  TIP3      H2             17.4807771128        7.0306682789       43.4526890981  TIP3      5095            0.0000000000
     37538      5288  TIP3      OH2            17.3224564054        7.1593296912       49.2449400417  TIP3      5096            0.0000000000
     37539      5288  TIP3      H1             18.2799319545        7.3986569217       49.2261541659  TIP3      5096            0.0000000000
     37540      5288  TIP3      H2             17.1339629226        7.3085950880       50.1835707919  TIP3      5096            0.0000000000
     37541      5289  TIP3      OH2            17.4073823970        7.8822227523       52.0085169471  TIP3      5097            0.0000000000
     37542      5289  TIP3      H1             16.5161965512        8.1719494459       52.3369498711  TIP3      5097            0.0000000000
     37543      5289  TIP3      H2             17.8118537700        8.7580903768       51.8049625102  TIP3      5097            0.0000000000
     37544      5290  TIP3      OH2             1.6392490910        6.4316713383       55.5901116242  TIP3      5098            0.0000000000
     37545      5290  TIP3      H1              2.5796766700        6.2090970661       55.7545329064  TIP3      5098            0.0000000000
     37546      5290  TIP3      H2              1.1795138186        5.5980658966       55.8353437322  TIP3      5098            0.0000000000
     37547      5291  TIP3      OH2            19.6571342315        1.9550373432       57.3617195125  TIP3      5099            0.0000000000
     37548      5291  TIP3      H1             20.0096249345        1.2926345652       56.7411945268  TIP3      5099            0.0000000000
     37549      5291  TIP3      H2             19.7572172074        2.7690044731       56.8284137038  TIP3      5099            0.0000000000
     37550      5292  TIP3      OH2            17.3545012743        3.9125817168       43.8445103548  TIP3      5100            0.0000000000
     37551      5292  TIP3      H1             17.5664618395        3.4760321049       44.6974759128  TIP3      5100            0.0000000000
     37552      5292  TIP3      H2             16.7534233242        3.2729576088       43.4083665016  TIP3      5100            0.0000000000
     37553      5293  TIP3      OH2             2.8098398854        4.7403960775       48.4344754881  TIP3      5101            0.0000000000
     37554      5293  TIP3      H1              3.2850876918        3.9001213697       48.6447252151  TIP3      5101            0.0000000000
     37555      5293  TIP3      H2              3.4293755724        5.3982216657       48.7891668573  TIP3      5101            0.0000000000
     37556      5294  TIP3      OH2             1.4168060216        7.8202440049       49.7242231689  TIP3      5102            0.0000000000
     37557      5294  TIP3      H1              2.0300028756        7.6013073216       48.9875788944  TIP3      5102            0.0000000000
     37558      5294  TIP3      H2              1.6785708795        8.7629450901       49.8206104010  TIP3      5102            0.0000000000
     37559      5295  TIP3      OH2            19.1817517116        4.0572095689       55.7170523441  TIP3      5103            0.0000000000
     37560      5295  TIP3      H1             18.2429667573        4.3248078613       55.6640793962  TIP3      5103            0.0000000000
     37561      5295  TIP3      H2             19.2109863698        3.5020788746       54.9222441870  TIP3      5103            0.0000000000
     37562      5296  TIP3      OH2            19.1653844591        3.9565351044       40.3878296834  TIP3      5104            0.0000000000
     37563      5296  TIP3      H1             19.5838479801        3.2262622816       39.8787074411  TIP3      5104            0.0000000000
     37564      5296  TIP3      H2             19.8784233541        4.6087479686       40.4603208053  TIP3      5104            0.0000000000
     37565      5297  TIP3      OH2             1.4748428757        4.0269855845       43.5508288852  TIP3      5105            0.0000000000
     37566      5297  TIP3      H1              0.5375281125        4.1390854143       43.3358258129  TIP3      5105            0.0000000000
     37567      5297  TIP3      H2              1.9051982397        4.4601671694       42.7917383307  TIP3      5105            0.0000000000
     37568      5298  TIP3      OH2            16.2208676979       18.9314917813       45.4661946514  TIP3      5106            0.0000000000
     37569      5298  TIP3      H1             16.9037204129       18.6276945023       44.8431423062  TIP3      5106            0.0000000000
     37570      5298  TIP3      H2             16.7364438842       19.4282125586       46.1175535068  TIP3      5106            0.0000000000
     37571      5299  TIP3      OH2             1.4325678173        2.6372726549       51.7990975933  TIP3      5107            0.0000000000
     37572      5299  TIP3      H1              0.7713751829        2.4378173915       52.4866124275  TIP3      5107            0.0000000000
     37573      5299  TIP3      H2              0.9650609900        3.3005612874       51.2701337376  TIP3      5107            0.0000000000
     37574      5300  TIP3      OH2             3.6727789345       15.8236681836       55.9710676876  TIP3      5108            0.0000000000
     37575      5300  TIP3      H1              2.8354702738       16.0506915074       55.5323373000  TIP3      5108            0.0000000000
     37576      5300  TIP3      H2              3.4028561423       15.7558269322       56.8903568638  TIP3      5108            0.0000000000
     37577      5301  TIP3      OH2             6.5716922534       16.8387584118       52.2514431588  TIP3      5109            0.0000000000
     37578      5301  TIP3      H1              6.2428791795       17.7062572927       51.9771779698  TIP3      5109            0.0000000000
     37579      5301  TIP3      H2              7.4981717115       16.9222209754       51.9448894640  TIP3      5109            0.0000000000
     37580      5302  TIP3      OH2            10.8912779105       18.2602304128       55.1537330004  TIP3      5110            0.0000000000
     37581      5302  TIP3      H1             11.0298736835       17.9081373034       56.0631090761  TIP3      5110            0.0000000000
     37582      5302  TIP3      H2             11.7935619732       18.5635432498       54.9111748872  TIP3      5110            0.0000000000
     37583      5303  TIP3      OH2            13.1769808887       19.5302698221       54.4655549405  TIP3      5111            0.0000000000
     37584      5303  TIP3      H1             13.9099702382       18.9435108828       54.2261079002  TIP3      5111            0.0000000000
     37585      5303  TIP3      H2             13.5544221147       19.9675066755       55.2583285177  TIP3      5111            0.0000000000
     37586      5304  TIP3      OH2            18.2013645087        2.1414574325       53.5702299610  TIP3      5112            0.0000000000
     37587      5304  TIP3      H1             17.3712746195        2.4405236855       53.1599880784  TIP3      5112            0.0000000000
     37588      5304  TIP3      H2             18.3670711973        1.3188029231       53.0531415623  TIP3      5112            0.0000000000
     37589      5305  TIP3      OH2             3.9944869687       20.0739479222       52.2420737026  TIP3      5113            0.0000000000
     37590      5305  TIP3      H1              3.2643915845       20.5744654655       51.8473442479  TIP3      5113            0.0000000000
     37591      5305  TIP3      H2              3.6852370049       19.8837466586       53.1393068603  TIP3      5113            0.0000000000
     37592      5306  TIP3      OH2             6.4633583851       19.6507057322       51.3172553727  TIP3      5114            0.0000000000
     37593      5306  TIP3      H1              5.5714244663       19.8042889156       51.7096683369  TIP3      5114            0.0000000000
     37594      5306  TIP3      H2              6.4101725507       20.2411796137       50.5428031819  TIP3      5114            0.0000000000
     37595      5307  TIP3      OH2            11.1727204166       19.5659585380       50.4831315899  TIP3      5115            0.0000000000
     37596      5307  TIP3      H1             10.7079190784       20.1216291835       49.8398546471  TIP3      5115            0.0000000000
     37597      5307  TIP3      H2             11.3019855158       20.1955762235       51.2232685562  TIP3      5115            0.0000000000
     37598      5308  TIP3      OH2            13.4586378904       18.3667863209       51.5190742218  TIP3      5116            0.0000000000
     37599      5308  TIP3      H1             12.6063588204       18.6488010684       51.1472180655  TIP3      5116            0.0000000000
     37600      5308  TIP3      H2             13.9441177788       19.2037569469       51.4246823939  TIP3      5116            0.0000000000
     37601      5309  TIP3      OH2            16.0405472536       19.9418665217       51.7356546790  TIP3      5117            0.0000000000
     37602      5309  TIP3      H1             15.9886199401       20.9029448955       51.5084200708  TIP3      5117            0.0000000000
     37603      5309  TIP3      H2             16.2581650242       19.5688554111       50.8587759861  TIP3      5117            0.0000000000
     37604      5310  TIP3      OH2             3.4573508651       18.7237929791       49.1859656607  TIP3      5118            0.0000000000
     37605      5310  TIP3      H1              3.3740169674       18.2668202936       50.0498611509  TIP3      5118            0.0000000000
     37606      5310  TIP3      H2              4.2715830849       18.3429166394       48.7990413888  TIP3      5118            0.0000000000
     37607      5311  TIP3      OH2             5.5319530097       17.4345570661       47.8399474267  TIP3      5119            0.0000000000
     37608      5311  TIP3      H1              5.3670329402       16.5011550419       48.0738214960  TIP3      5119            0.0000000000
     37609      5311  TIP3      H2              6.3871235468       17.5897854807       48.2931741171  TIP3      5119            0.0000000000
     37610      5312  TIP3      OH2             8.1403229274       17.9193986411       48.7184210078  TIP3      5120            0.0000000000
     37611      5312  TIP3      H1              8.2901655120       16.9940754800       48.4556006000  TIP3      5120            0.0000000000
     37612      5312  TIP3      H2              8.1800915152       17.8591158057       49.6844628366  TIP3      5120            0.0000000000
     37613      5313  TIP3      OH2            11.5879927715        3.5680548313       47.8564509072  TIP3      5121            0.0000000000
     37614      5313  TIP3      H1             10.9119519315        2.9277820166       48.1367735730  TIP3      5121            0.0000000000
     37615      5313  TIP3      H2             12.1402367288        3.0349577638       47.2724020977  TIP3      5121            0.0000000000
     37616      5314  TIP3      OH2            16.7314190089        1.6150017364       47.9184634727  TIP3      5122            0.0000000000
     37617      5314  TIP3      H1             17.3376314413        2.2104969678       47.4102107562  TIP3      5122            0.0000000000
     37618      5314  TIP3      H2             15.8452945261        1.9761009102       47.6896010228  TIP3      5122            0.0000000000
     37619      5315  TIP3      OH2            18.3916997030        2.8668664548       46.1925593235  TIP3      5123            0.0000000000
     37620      5315  TIP3      H1             19.0805010826        2.2901783501       45.7840232005  TIP3      5123            0.0000000000
     37621      5315  TIP3      H2             18.8996257199        3.7026300424       46.3048159836  TIP3      5123            0.0000000000
     37622      5316  TIP3      OH2             3.9628030257        2.1929457711       45.7040085299  TIP3      5124            0.0000000000
     37623      5316  TIP3      H1              3.1657002383        2.0003121753       45.1741704752  TIP3      5124            0.0000000000
     37624      5316  TIP3      H2              4.4205804248        1.3322897930       45.6429398718  TIP3      5124            0.0000000000
     37625      5317  TIP3      OH2             2.7265409105        1.9471405797       41.4248807046  TIP3      5125            0.0000000000
     37626      5317  TIP3      H1              3.2195081724        2.5971733291       40.8899567058  TIP3      5125            0.0000000000
     37627      5317  TIP3      H2              2.1590094944        2.5225996111       41.9615560267  TIP3      5125            0.0000000000
     37628      5318  TIP3      OH2             8.4286551407        2.1203880022       45.4899613808  TIP3      5126            0.0000000000
     37629      5318  TIP3      H1              9.3291240067        2.4779177837       45.4155154460  TIP3      5126            0.0000000000
     37630      5318  TIP3      H2              8.3956848771        1.9013243780       46.4199668674  TIP3      5126            0.0000000000
     37631      5319  TIP3      OH2            14.1512305947        2.1291185253       47.1085995743  TIP3      5127            0.0000000000
     37632      5319  TIP3      H1             14.0920930212        2.2501128252       46.1521912696  TIP3      5127            0.0000000000
     37633      5319  TIP3      H2             13.7632550736        1.2295361788       47.2395720461  TIP3      5127            0.0000000000
     37634      5320  TIP3      OH2            15.4112900379        2.1679739246       42.7986740101  TIP3      5128            0.0000000000
     37635      5320  TIP3      H1             14.6624714397        2.7618931669       42.6395042323  TIP3      5128            0.0000000000
     37636      5320  TIP3      H2             14.9711104832        1.3160049111       43.0326487461  TIP3      5128            0.0000000000
     37637      5321  TIP3      OH2             2.6414929490       17.8956794658       42.4547316222  TIP3      5129            0.0000000000
     37638      5321  TIP3      H1              1.9836658989       17.8819972053       41.7354123659  TIP3      5129            0.0000000000
     37639      5321  TIP3      H2              2.6375458785       18.8508044543       42.6262028859  TIP3      5129            0.0000000000
     37640      5322  TIP3      OH2             4.5536632591        3.8931048773       39.9407107239  TIP3      5130            0.0000000000
     37641      5322  TIP3      H1              5.0852773523        3.2755672673       39.4095172345  TIP3      5130            0.0000000000
     37642      5322  TIP3      H2              5.2218903615        4.2142278892       40.5725729063  TIP3      5130            0.0000000000
     37643      5323  TIP3      OH2             9.5732565704        4.1359156881       42.3423939098  TIP3      5131            0.0000000000
     37644      5323  TIP3      H1              9.8319047193        3.5574956305       43.0789227775  TIP3      5131            0.0000000000
     37645      5323  TIP3      H2              9.6521964399        5.0019583927       42.7985141868  TIP3      5131            0.0000000000
     37646      5324  TIP3      OH2            11.5156622275       19.2086212181       40.7873685358  TIP3      5132            0.0000000000
     37647      5324  TIP3      H1             12.4330232297       19.4346374720       40.5654065548  TIP3      5132            0.0000000000
     37648      5324  TIP3      H2             11.2949500041       18.6882401233       39.9864367730  TIP3      5132            0.0000000000
     37649      5325  TIP3      OH2            18.2076730472       18.7083861161       43.5080333780  TIP3      5133            0.0000000000
     37650      5325  TIP3      H1             18.0193961570       17.9259462615       42.9357354392  TIP3      5133            0.0000000000
     37651      5325  TIP3      H2             18.1429321411       19.4432633499       42.8640661774  TIP3      5133            0.0000000000
     37652      5326  TIP3      OH2             3.8436687421        2.7374183861       55.1522075425  TIP3      5134            0.0000000000
     37653      5326  TIP3      H1              3.4552787458        1.9421503268       55.5589362252  TIP3      5134            0.0000000000
     37654      5326  TIP3      H2              4.7525839434        2.6948674251       55.5351641592  TIP3      5134            0.0000000000
     37655      5327  TIP3      OH2             5.8423314504        2.1181471162       56.7981488648  TIP3      5135            0.0000000000
     37656      5327  TIP3      H1              6.7360809241        1.7829131405       56.5813717554  TIP3      5135            0.0000000000
     37657      5327  TIP3      H2              5.4702958433        1.3103259173       57.2016314815  TIP3      5135            0.0000000000
     37658      5328  TIP3      OH2             4.4344252877       18.8837018967       39.3947890722  TIP3      5136            0.0000000000
     37659      5328  TIP3      H1              4.1751856474       19.1420089902       40.2910543591  TIP3      5136            0.0000000000
     37660      5328  TIP3      H2              5.2178973790       18.3204724266       39.5499876892  TIP3      5136            0.0000000000
     37661      5329  TIP3      OH2            14.2462593922        1.4048599426       56.9463805420  TIP3      5137            0.0000000000
     37662      5329  TIP3      H1             14.3405739034        0.9334176833       57.7967267668  TIP3      5137            0.0000000000
     37663      5329  TIP3      H2             15.1638743867        1.3727564011       56.6038923661  TIP3      5137            0.0000000000
     37664      5330  TIP3      OH2            17.4575313124       17.4602947488       55.5814041815  TIP3      5138            0.0000000000
     37665      5330  TIP3      H1             16.6540024931       17.3227184360       55.0334031462  TIP3      5138            0.0000000000
     37666      5330  TIP3      H2             17.3431581864       18.4087131476       55.7982228424  TIP3      5138            0.0000000000
     37667      5331  TIP3      OH2            31.9005805999       11.3193264270       45.5603033440  TIP3      5139            0.0000000000
     37668      5331  TIP3      H1             31.9045206001       12.3036391534       45.5354065265  TIP3      5139            0.0000000000
     37669      5331  TIP3      H2             31.1725732703       11.0985138217       44.9578671076  TIP3      5139            0.0000000000
     37670      5332  TIP3      OH2            30.7583175765       10.5871292642       49.0602307993  TIP3      5140            0.0000000000
     37671      5332  TIP3      H1             30.7413983290        9.9406967771       49.7806399666  TIP3      5140            0.0000000000
     37672      5332  TIP3      H2             30.4279985182       10.0760759080       48.3011560036  TIP3      5140            0.0000000000
     37673      5333  TIP3      OH2            23.1104019261       10.2651769781       50.6120261439  TIP3      5141            0.0000000000
     37674      5333  TIP3      H1             23.1951865482        9.5797035901       51.3061396245  TIP3      5141            0.0000000000
     37675      5333  TIP3      H2             23.8588810649       10.8367443414       50.8368519863  TIP3      5141            0.0000000000
     37676      5334  TIP3      OH2            34.4643454080       13.5151598241       47.3574402679  TIP3      5142            0.0000000000
     37677      5334  TIP3      H1             34.0390433731       12.8060637225       47.8475614931  TIP3      5142            0.0000000000
     37678      5334  TIP3      H2             34.4677222148       14.2354662148       48.0091700210  TIP3      5142            0.0000000000
     37679      5335  TIP3      OH2            24.0354652796       14.7140866492       49.1132536744  TIP3      5143            0.0000000000
     37680      5335  TIP3      H1             23.7254902308       13.8442859632       48.7960210113  TIP3      5143            0.0000000000
     37681      5335  TIP3      H2             24.9911230710       14.5315636463       49.1592289421  TIP3      5143            0.0000000000
     37682      5336  TIP3      OH2            20.6748997729        8.2689952400       44.6065234114  TIP3      5144            0.0000000000
     37683      5336  TIP3      H1             20.2388505102        9.1397687058       44.5376225620  TIP3      5144            0.0000000000
     37684      5336  TIP3      H2             20.1132118324        7.7285598837       44.0357733083  TIP3      5144            0.0000000000
     37685      5337  TIP3      OH2            21.3870530360       10.4963543094       46.7536026003  TIP3      5145            0.0000000000
     37686      5337  TIP3      H1             21.6613152242        9.6743318532       47.2000651593  TIP3      5145            0.0000000000
     37687      5337  TIP3      H2             22.0802148105       10.6029473396       46.0846899629  TIP3      5145            0.0000000000
     37688      5338  TIP3      OH2            31.5704261799       18.6970450422       47.5743101939  TIP3      5146            0.0000000000
     37689      5338  TIP3      H1             32.2111571922       17.9974879991       47.2974630864  TIP3      5146            0.0000000000
     37690      5338  TIP3      H2             31.3347756512       18.3596722710       48.4432468274  TIP3      5146            0.0000000000
     37691      5339  TIP3      OH2            29.1392898925       12.9868873218       49.5376856218  TIP3      5147            0.0000000000
     37692      5339  TIP3      H1             29.4711249558       12.3605605187       48.8741379427  TIP3      5147            0.0000000000
     37693      5339  TIP3      H2             29.9520586579       13.1453406811       50.0493384289  TIP3      5147            0.0000000000
     37694      5340  TIP3      OH2            32.3113793022        7.4634421793       49.8424861208  TIP3      5148            0.0000000000
     37695      5340  TIP3      H1             32.4762360860        6.5034987780       49.8330262823  TIP3      5148            0.0000000000
     37696      5340  TIP3      H2             32.2103024942        7.6084634728       48.8820098022  TIP3      5148            0.0000000000
     37697      5341  TIP3      OH2            25.4060829758        5.5305125816       47.0752898779  TIP3      5149            0.0000000000
     37698      5341  TIP3      H1             25.5257959369        6.3697372733       46.5881180198  TIP3      5149            0.0000000000
     37699      5341  TIP3      H2             25.0143170919        4.9792902928       46.3608798793  TIP3      5149            0.0000000000
     37700      5342  TIP3      OH2            33.1735089817        5.6675528476       45.4474237502  TIP3      5150            0.0000000000
     37701      5342  TIP3      H1             33.8145599580        5.3062934860       46.1081961460  TIP3      5150            0.0000000000
     37702      5342  TIP3      H2             33.7704970650        6.1915148716       44.9063274592  TIP3      5150            0.0000000000
     37703      5343  TIP3      OH2            22.0394694452        7.9569192653       47.7985621526  TIP3      5151            0.0000000000
     37704      5343  TIP3      H1             22.7078766679        7.4114719449       48.2499185234  TIP3      5151            0.0000000000
     37705      5343  TIP3      H2             22.1404770324        7.6482631870       46.8853584942  TIP3      5151            0.0000000000
     37706      5344  TIP3      OH2            27.1933610427        9.5131026865       47.1183656913  TIP3      5152            0.0000000000
     37707      5344  TIP3      H1             27.8685203147        8.9323224000       47.5102373951  TIP3      5152            0.0000000000
     37708      5344  TIP3      H2             26.6785781081        8.8550596122       46.6105532783  TIP3      5152            0.0000000000
     37709      5345  TIP3      OH2            24.3493698083        4.4334611381       51.1182761518  TIP3      5153            0.0000000000
     37710      5345  TIP3      H1             24.0453754254        5.0099566930       50.3700267649  TIP3      5153            0.0000000000
     37711      5345  TIP3      H2             23.6417029149        4.6762776027       51.7777996412  TIP3      5153            0.0000000000
     37712      5346  TIP3      OH2            31.5949650344       13.9083769170       44.6410822729  TIP3      5154            0.0000000000
     37713      5346  TIP3      H1             31.3410031815       13.6474497220       43.7492418253  TIP3      5154            0.0000000000
     37714      5346  TIP3      H2             31.2990927869       14.8476810822       44.7008139039  TIP3      5154            0.0000000000
     37715      5347  TIP3      OH2            26.8357893729       12.0879613213       51.3389262596  TIP3      5155            0.0000000000
     37716      5347  TIP3      H1             26.1324670197       12.7325206028       51.5598364896  TIP3      5155            0.0000000000
     37717      5347  TIP3      H2             27.5423614248       12.6873346995       51.0502107415  TIP3      5155            0.0000000000
     37718      5348  TIP3      OH2            34.6604112656        4.9473118328       47.5416195018  TIP3      5156            0.0000000000
     37719      5348  TIP3      H1             34.6898253618        4.1263563897       48.0409694213  TIP3      5156            0.0000000000
     37720      5348  TIP3      H2             35.4277892486        5.4114369211       47.9418405552  TIP3      5156            0.0000000000
     37721      5349  TIP3      OH2            23.9127479271        6.2798277799       49.1545020971  TIP3      5157            0.0000000000
     37722      5349  TIP3      H1             24.5136657073        7.0049334447       49.4365382618  TIP3      5157            0.0000000000
     37723      5349  TIP3      H2             24.4046329570        5.9033998689       48.3834866879  TIP3      5157            0.0000000000
     37724      5350  TIP3      OH2            25.2840260059       14.0951013331       52.1615369410  TIP3      5158            0.0000000000
     37725      5350  TIP3      H1             25.2349708099       15.0079601342       51.8232910572  TIP3      5158            0.0000000000
     37726      5350  TIP3      H2             24.4016957423       14.0136006494       52.6044974941  TIP3      5158            0.0000000000
     37727      5351  TIP3      OH2            21.3644710558       13.7014579510       42.9509614216  TIP3      5159            0.0000000000
     37728      5351  TIP3      H1             21.1131187877       14.0425557397       42.0755903395  TIP3      5159            0.0000000000
     37729      5351  TIP3      H2             21.4433571027       14.5298321841       43.4679530666  TIP3      5159            0.0000000000
     37730      5352  TIP3      OH2            34.7754106988       15.3054906933       49.8073866377  TIP3      5160            0.0000000000
     37731      5352  TIP3      H1             33.8174255691       15.5174523203       49.8489228161  TIP3      5160            0.0000000000
     37732      5352  TIP3      H2             35.1659490253       16.1538503743       49.5167170204  TIP3      5160            0.0000000000
     37733      5353  TIP3      OH2            35.0895726309        3.7846220165       50.8494430424  TIP3      5161            0.0000000000
     37734      5353  TIP3      H1             34.4014046116        4.4678362157       50.9624304009  TIP3      5161            0.0000000000
     37735      5353  TIP3      H2             35.8558560205        4.2809012946       50.5316085177  TIP3      5161            0.0000000000
     37736      5354  TIP3      OH2            28.2626939151        1.7872097662       48.5986329445  TIP3      5162            0.0000000000
     37737      5354  TIP3      H1             28.1467949786        0.8208809517       48.4710259364  TIP3      5162            0.0000000000
     37738      5354  TIP3      H2             27.3634126279        2.0746819766       48.8183977347  TIP3      5162            0.0000000000
     37739      5355  TIP3      OH2            33.1482154511       17.0879821678       46.3192991888  TIP3      5163            0.0000000000
     37740      5355  TIP3      H1             33.6374506036       16.4090787127       45.8118203945  TIP3      5163            0.0000000000
     37741      5355  TIP3      H2             33.5988650643       17.8896100574       45.9682662458  TIP3      5163            0.0000000000
     37742      5356  TIP3      OH2            34.4306292201       15.0751911144       44.8219272951  TIP3      5164            0.0000000000
     37743      5356  TIP3      H1             34.1824897871       14.3640565853       44.2112850260  TIP3      5164            0.0000000000
     37744      5356  TIP3      H2             34.4938403626       14.5697136517       45.6580159978  TIP3      5164            0.0000000000
     37745      5357  TIP3      OH2            35.8044266300       13.8263808382       53.4329153917  TIP3      5165            0.0000000000
     37746      5357  TIP3      H1             36.0794044589       13.1246597668       52.8079659743  TIP3      5165            0.0000000000
     37747      5357  TIP3      H2             36.2160026537       14.5910831861       52.9797064648  TIP3      5165            0.0000000000
     37748      5358  TIP3      OH2            30.5499228669       10.5651332227       43.0698632699  TIP3      5166            0.0000000000
     37749      5358  TIP3      H1             29.8636768991       11.1525406474       42.7072117601  TIP3      5166            0.0000000000
     37750      5358  TIP3      H2             31.2668459621       10.6613608099       42.4166345641  TIP3      5166            0.0000000000
     37751      5359  TIP3      OH2            30.6368917049        9.1414802751       40.0854061605  TIP3      5167            0.0000000000
     37752      5359  TIP3      H1             31.3527519420        9.1199963412       40.7398104245  TIP3      5167            0.0000000000
     37753      5359  TIP3      H2             30.9408260781        8.4226023240       39.5149013704  TIP3      5167            0.0000000000
     37754      5360  TIP3      OH2            33.9761295205       10.7872781505       43.9642561479  TIP3      5168            0.0000000000
     37755      5360  TIP3      H1             33.2519915928       11.0402071944       44.5839115111  TIP3      5168            0.0000000000
     37756      5360  TIP3      H2             34.4566246590       10.1466312620       44.5324592849  TIP3      5168            0.0000000000
     37757      5361  TIP3      OH2            33.9515136905        8.9617635066       53.0925658388  TIP3      5169            0.0000000000
     37758      5361  TIP3      H1             33.9029938138        9.7601724850       53.6431269199  TIP3      5169            0.0000000000
     37759      5361  TIP3      H2             33.3106782888        9.2300395095       52.4082851410  TIP3      5169            0.0000000000
     37760      5362  TIP3      OH2            25.6143061825       11.4348449668       45.9193041421  TIP3      5170            0.0000000000
     37761      5362  TIP3      H1             25.2980260507       11.0499494366       45.0665199939  TIP3      5170            0.0000000000
     37762      5362  TIP3      H2             26.2343387522       10.7469285407       46.2491656664  TIP3      5170            0.0000000000
     37763      5363  TIP3      OH2            26.9354815163       14.8222567874       48.5946850639  TIP3      5171            0.0000000000
     37764      5363  TIP3      H1             26.9324746863       14.3008109360       47.7829979729  TIP3      5171            0.0000000000
     37765      5363  TIP3      H2             27.7198101487       14.4684684568       49.0527448618  TIP3      5171            0.0000000000
     37766      5364  TIP3      OH2            25.9504018730       10.1759213557       49.5833798972  TIP3      5172            0.0000000000
     37767      5364  TIP3      H1             26.4929233947       10.2835846609       48.7767597588  TIP3      5172            0.0000000000
     37768      5364  TIP3      H2             26.3310722502       10.8569608696       50.1829614736  TIP3      5172            0.0000000000
     37769      5365  TIP3      OH2            32.2868037824       15.7768495805       50.2674912149  TIP3      5173            0.0000000000
     37770      5365  TIP3      H1             32.0900447638       16.3995608130       50.9704593744  TIP3      5173            0.0000000000
     37771      5365  TIP3      H2             32.1080003390       14.9072476066       50.6997909566  TIP3      5173            0.0000000000
     37772      5366  TIP3      OH2            26.8998785693       14.6185450240       54.2721178069  TIP3      5174            0.0000000000
     37773      5366  TIP3      H1             26.4855300261       15.3579113829       54.7618307336  TIP3      5174            0.0000000000
     37774      5366  TIP3      H2             26.2280625941       14.4185805574       53.5744332465  TIP3      5174            0.0000000000
     37775      5367  TIP3      OH2            32.8729389460        9.9622304956       41.6728936839  TIP3      5175            0.0000000000
     37776      5367  TIP3      H1             33.4276852190       10.1815022551       42.4622805646  TIP3      5175            0.0000000000
     37777      5367  TIP3      H2             33.2744045067       10.4903119472       40.9531079916  TIP3      5175            0.0000000000
     37778      5368  TIP3      OH2            23.8440093910       10.7789196519       53.4212074704  TIP3      5176            0.0000000000
     37779      5368  TIP3      H1             23.8968450845       11.4423983759       54.1348740280  TIP3      5176            0.0000000000
     37780      5368  TIP3      H2             22.9002252363       10.8679804697       53.2170411389  TIP3      5176            0.0000000000
     37781      5369  TIP3      OH2            30.5868481559       16.7054576467       45.1254643053  TIP3      5177            0.0000000000
     37782      5369  TIP3      H1             31.0191389677       17.0036492955       45.9370208390  TIP3      5177            0.0000000000
     37783      5369  TIP3      H2             30.0284667205       17.4543941603       44.8941009059  TIP3      5177            0.0000000000
     37784      5370  TIP3      OH2            25.1471024343       16.6517254544       55.0185031261  TIP3      5178            0.0000000000
     37785      5370  TIP3      H1             25.0856923503       16.5536095207       54.0529129256  TIP3      5178            0.0000000000
     37786      5370  TIP3      H2             24.2173055918       16.5192498099       55.2861122299  TIP3      5178            0.0000000000
     37787      5371  TIP3      OH2            24.5764244798       10.4591529310       43.5455627037  TIP3      5179            0.0000000000
     37788      5371  TIP3      H1             24.3002936475       11.2438438141       43.0257915402  TIP3      5179            0.0000000000
     37789      5371  TIP3      H2             23.9319126936        9.7946221547       43.2969486552  TIP3      5179            0.0000000000
     37790      5372  TIP3      OH2            20.6881923037       12.8916868059       52.4276656557  TIP3      5180            0.0000000000
     37791      5372  TIP3      H1             20.2338518536       12.8126517808       51.5671189012  TIP3      5180            0.0000000000
     37792      5372  TIP3      H2             20.7600466422       11.9424455987       52.6436926977  TIP3      5180            0.0000000000
     37793      5373  TIP3      OH2            20.4365546923       15.6288636267       49.2034766165  TIP3      5181            0.0000000000
     37794      5373  TIP3      H1             21.3936524262       15.5111879364       49.1851541650  TIP3      5181            0.0000000000
     37795      5373  TIP3      H2             20.3547207326       16.4465254298       49.7088741679  TIP3      5181            0.0000000000
     37796      5374  TIP3      OH2            29.6337239939       15.8721067839       53.7556931394  TIP3      5182            0.0000000000
     37797      5374  TIP3      H1             29.6920300838       16.7144684702       54.2642687298  TIP3      5182            0.0000000000
     37798      5374  TIP3      H2             28.7613414750       15.5120968819       54.0069671770  TIP3      5182            0.0000000000
     37799      5375  TIP3      OH2            30.1119604810       19.6185419973       43.5515534404  TIP3      5183            0.0000000000
     37800      5375  TIP3      H1             29.9797315462       19.5360821054       42.5890686880  TIP3      5183            0.0000000000
     37801      5375  TIP3      H2             30.0952020248       20.5828521797       43.6991786808  TIP3      5183            0.0000000000
     37802      5376  TIP3      OH2            23.7128040921       18.4939229473       45.3699761074  TIP3      5184            0.0000000000
     37803      5376  TIP3      H1             23.8591099351       18.0791936504       46.2470738876  TIP3      5184            0.0000000000
     37804      5376  TIP3      H2             22.8649879632       18.0837717093       45.1306408621  TIP3      5184            0.0000000000
     37805      5377  TIP3      OH2            33.1555861554       18.8424373278       40.5166346906  TIP3      5185            0.0000000000
     37806      5377  TIP3      H1             33.5792207864       18.0688734077       40.0785734738  TIP3      5185            0.0000000000
     37807      5377  TIP3      H2             33.1663083271       18.5677135647       41.4555803609  TIP3      5185            0.0000000000
     37808      5378  TIP3      OH2            32.8062303138       18.7455145048       43.3159599146  TIP3      5186            0.0000000000
     37809      5378  TIP3      H1             31.8433780019       18.8354191987       43.4844494379  TIP3      5186            0.0000000000
     37810      5378  TIP3      H2             33.0368928733       18.0048931432       43.8950439577  TIP3      5186            0.0000000000
     37811      5379  TIP3      OH2            35.3238743610        7.9747211388       55.3969418366  TIP3      5187            0.0000000000
     37812      5379  TIP3      H1             35.2885901137        8.3231680542       54.5016628038  TIP3      5187            0.0000000000
     37813      5379  TIP3      H2             35.8645394511        7.1494673075       55.2435790581  TIP3      5187            0.0000000000
     37814      5380  TIP3      OH2            22.9650922361       14.2000332913       53.3779760815  TIP3      5188            0.0000000000
     37815      5380  TIP3      H1             23.1782595711       13.8314984192       54.2615174770  TIP3      5188            0.0000000000
     37816      5380  TIP3      H2             22.0939627159       13.8090095254       53.1551674804  TIP3      5188            0.0000000000
     37817      5381  TIP3      OH2            25.6151672094        2.6937611420       49.3584940537  TIP3      5189            0.0000000000
     37818      5381  TIP3      H1             24.7486517427        2.5399077529       48.9039147552  TIP3      5189            0.0000000000
     37819      5381  TIP3      H2             25.4672195449        3.6165975405       49.6231374458  TIP3      5189            0.0000000000
     37820      5382  TIP3      OH2            30.3074899829        2.3539387496       52.6767590688  TIP3      5190            0.0000000000
     37821      5382  TIP3      H1             30.7202907315        1.9322920842       53.4568021232  TIP3      5190            0.0000000000
     37822      5382  TIP3      H2             29.3497689518        2.2055345174       52.8444642453  TIP3      5190            0.0000000000
     37823      5383  TIP3      OH2            33.5009838555        6.1549629379       53.5159942982  TIP3      5191            0.0000000000
     37824      5383  TIP3      H1             33.0194281343        5.9833249618       54.3600445323  TIP3      5191            0.0000000000
     37825      5383  TIP3      H2             33.4274021403        7.1111636689       53.3850901199  TIP3      5191            0.0000000000
     37826      5384  TIP3      OH2            34.3773872289       10.9205690441       39.4797846526  TIP3      5192            0.0000000000
     37827      5384  TIP3      H1             34.3047848499       10.7698096147       38.5097199033  TIP3      5192            0.0000000000
     37828      5384  TIP3      H2             35.1470833281       11.4891374950       39.5084957285  TIP3      5192            0.0000000000
     37829      5385  TIP3      OH2            29.9344339727        4.9372816969       39.9896249103  TIP3      5193            0.0000000000
     37830      5385  TIP3      H1             29.6155113464        4.8732156957       40.9089656378  TIP3      5193            0.0000000000
     37831      5385  TIP3      H2             29.6180283412        4.0647539938       39.6799124778  TIP3      5193            0.0000000000
     37832      5386  TIP3      OH2            25.7507623199        7.6521763394       50.5844598140  TIP3      5194            0.0000000000
     37833      5386  TIP3      H1             25.0017828929        7.6698582826       51.2094157846  TIP3      5194            0.0000000000
     37834      5386  TIP3      H2             25.7074477775        8.5594748022       50.1964921298  TIP3      5194            0.0000000000
     37835      5387  TIP3      OH2            25.7070606852        7.7603287932       45.4426103203  TIP3      5195            0.0000000000
     37836      5387  TIP3      H1             24.7670139120        7.5247215786       45.3018522044  TIP3      5195            0.0000000000
     37837      5387  TIP3      H2             26.0827080518        7.4824158608       44.5820611120  TIP3      5195            0.0000000000
     37838      5388  TIP3      OH2            31.2418776245        8.2823888762       44.2191464270  TIP3      5196            0.0000000000
     37839      5388  TIP3      H1             30.8334301208        9.0950934189       43.8423844495  TIP3      5196            0.0000000000
     37840      5388  TIP3      H2             31.9242171763        8.1113209503       43.5511191697  TIP3      5196            0.0000000000
     37841      5389  TIP3      OH2            30.2922257182        8.4885590016       55.6477538348  TIP3      5197            0.0000000000
     37842      5389  TIP3      H1             29.7748122056        7.7063531236       55.9508743398  TIP3      5197            0.0000000000
     37843      5389  TIP3      H2             31.1350843314        8.3644146772       56.1184416576  TIP3      5197            0.0000000000
     37844      5390  TIP3      OH2            32.2286129770        7.7836305176       47.0695724526  TIP3      5198            0.0000000000
     37845      5390  TIP3      H1             31.9955896638        8.3304284939       46.3001794051  TIP3      5198            0.0000000000
     37846      5390  TIP3      H2             32.3570099918        6.9263247446       46.6135707244  TIP3      5198            0.0000000000
     37847      5391  TIP3      OH2            23.3958555850        7.8769934273       52.2472708895  TIP3      5199            0.0000000000
     37848      5391  TIP3      H1             23.4542928396        8.3083076723       53.1195449916  TIP3      5199            0.0000000000
     37849      5391  TIP3      H2             22.9057278706        7.0704575986       52.4599840752  TIP3      5199            0.0000000000
     37850      5392  TIP3      OH2            26.7384023322        5.3044637737       39.1061120843  TIP3      5200            0.0000000000
     37851      5392  TIP3      H1             26.2849839012        4.8819185619       39.8639847206  TIP3      5200            0.0000000000
     37852      5392  TIP3      H2             26.0277222740        5.7333222019       38.6147077189  TIP3      5200            0.0000000000
     37853      5393  TIP3      OH2            20.0225558480        5.0156522347       46.2331244088  TIP3      5201            0.0000000000
     37854      5393  TIP3      H1             20.7033964813        4.9797896496       46.9371746175  TIP3      5201            0.0000000000
     37855      5393  TIP3      H2             20.4745837668        4.6397465619       45.4563633657  TIP3      5201            0.0000000000
     37856      5394  TIP3      OH2            21.2905465648        5.7335226612       41.5939497792  TIP3      5202            0.0000000000
     37857      5394  TIP3      H1             21.8077840360        6.3465923392       41.0433896375  TIP3      5202            0.0000000000
     37858      5394  TIP3      H2             20.6010392569        6.3576022010       41.9064340093  TIP3      5202            0.0000000000
     37859      5395  TIP3      OH2            31.4409138174        9.3403134353       51.5987787938  TIP3      5203            0.0000000000
     37860      5395  TIP3      H1             31.8389592277        8.6484217816       51.0271556279  TIP3      5203            0.0000000000
     37861      5395  TIP3      H2             30.9791967654        8.8188111826       52.2781882633  TIP3      5203            0.0000000000
     37862      5396  TIP3      OH2            28.2678725557        5.3370140618       46.4272952128  TIP3      5204            0.0000000000
     37863      5396  TIP3      H1             27.3332622938        5.3464660924       46.7218940118  TIP3      5204            0.0000000000
     37864      5396  TIP3      H2             28.7667582755        5.1701861780       47.2436382025  TIP3      5204            0.0000000000
     37865      5397  TIP3      OH2            23.0691521008        6.8729614709       45.3166080978  TIP3      5205            0.0000000000
     37866      5397  TIP3      H1             22.1875703934        7.0342406656       44.9198534804  TIP3      5205            0.0000000000
     37867      5397  TIP3      H2             23.3538089783        6.0430969904       44.8998968026  TIP3      5205            0.0000000000
     37868      5398  TIP3      OH2            26.7121568410        6.9263537700       42.9379771050  TIP3      5206            0.0000000000
     37869      5398  TIP3      H1             27.6684358822        7.0361835672       43.0966180430  TIP3      5206            0.0000000000
     37870      5398  TIP3      H2             26.4757365707        7.6078148181       42.2809135192  TIP3      5206            0.0000000000
     37871      5399  TIP3      OH2            32.5902420915        4.5311427253       49.6996420140  TIP3      5207            0.0000000000
     37872      5399  TIP3      H1             31.9201872544        4.6032151430       50.4006708614  TIP3      5207            0.0000000000
     37873      5399  TIP3      H2             32.1012542135        4.3215139605       48.8893351198  TIP3      5207            0.0000000000
     37874      5400  TIP3      OH2            25.4179559572        8.1008077918       40.5238918332  TIP3      5208            0.0000000000
     37875      5400  TIP3      H1             24.8840616719        7.7236734525       39.8051564816  TIP3      5208            0.0000000000
     37876      5400  TIP3      H2             26.2385689898        8.3097553114       40.0506580337  TIP3      5208            0.0000000000
     37877      5401  TIP3      OH2            35.7787166706       20.2612426024       56.0270598604  TIP3      5209            0.0000000000
     37878      5401  TIP3      H1             36.1405441347       20.5723877383       55.1803588191  TIP3      5209            0.0000000000
     37879      5401  TIP3      H2             36.5317609249       20.5075686286       56.5924911884  TIP3      5209            0.0000000000
     37880      5402  TIP3      OH2            23.5507859100       12.6454823882       55.5967434891  TIP3      5210            0.0000000000
     37881      5402  TIP3      H1             24.2677820759       12.9396328773       56.1791964009  TIP3      5210            0.0000000000
     37882      5402  TIP3      H2             22.7665913615       12.7662447756       56.1738579589  TIP3      5210            0.0000000000
     37883      5403  TIP3      OH2            29.5383142543        8.0794107453       48.3367570201  TIP3      5211            0.0000000000
     37884      5403  TIP3      H1             30.1452417812        7.5525975324       47.8013302859  TIP3      5211            0.0000000000
     37885      5403  TIP3      H2             29.3956965780        7.5281603843       49.1172734290  TIP3      5211            0.0000000000
     37886      5404  TIP3      OH2            24.5543837943        4.2293131671       44.7715803812  TIP3      5212            0.0000000000
     37887      5404  TIP3      H1             24.2426129441        3.3060050265       44.7634924194  TIP3      5212            0.0000000000
     37888      5404  TIP3      H2             25.3427298532        4.1602654561       44.2192122575  TIP3      5212            0.0000000000
     37889      5405  TIP3      OH2            28.1540170237        6.3879261872       50.7748775017  TIP3      5213            0.0000000000
     37890      5405  TIP3      H1             27.3632195399        6.9635376787       50.8268793589  TIP3      5213            0.0000000000
     37891      5405  TIP3      H2             28.7456632099        6.7797231274       51.4527482041  TIP3      5213            0.0000000000
     37892      5406  TIP3      OH2            28.7696078864       12.6350400419       42.4453855010  TIP3      5214            0.0000000000
     37893      5406  TIP3      H1             27.9700075059       12.1685587230       42.1102574220  TIP3      5214            0.0000000000
     37894      5406  TIP3      H2             28.5447592510       12.7586220172       43.3900672261  TIP3      5214            0.0000000000
     37895      5407  TIP3      OH2            35.6374765065       11.8505769608       51.2429597681  TIP3      5215            0.0000000000
     37896      5407  TIP3      H1             36.3651556812       11.9853747258       50.5942600971  TIP3      5215            0.0000000000
     37897      5407  TIP3      H2             34.8762317696       11.8604053032       50.6339432375  TIP3      5215            0.0000000000
     37898      5408  TIP3      OH2            32.6312618023        5.4600036973       40.6136833774  TIP3      5216            0.0000000000
     37899      5408  TIP3      H1             31.6724888611        5.5798585053       40.4732496686  TIP3      5216            0.0000000000
     37900      5408  TIP3      H2             32.9123553240        6.3212099266       40.9849647345  TIP3      5216            0.0000000000
     37901      5409  TIP3      OH2            30.2719995004       12.9025768799       53.6885574793  TIP3      5217            0.0000000000
     37902      5409  TIP3      H1             29.9099361603       12.4770560745       54.4718571859  TIP3      5217            0.0000000000
     37903      5409  TIP3      H2             30.0324557615       13.8283857234       53.7962398900  TIP3      5217            0.0000000000
     37904      5410  TIP3      OH2            33.3324085075        7.3854642159       42.2165551435  TIP3      5218            0.0000000000
     37905      5410  TIP3      H1             34.2010072984        7.2443446931       42.6488394464  TIP3      5218            0.0000000000
     37906      5410  TIP3      H2             33.4353868493        8.2244872058       41.7367787604  TIP3      5218            0.0000000000
     37907      5411  TIP3      OH2            23.8834288294       12.0324589285       48.2472509494  TIP3      5219            0.0000000000
     37908      5411  TIP3      H1             24.5594255461       11.9465939660       47.5465606200  TIP3      5219            0.0000000000
     37909      5411  TIP3      H2             23.9389110759       11.1723906848       48.7014187064  TIP3      5219            0.0000000000
     37910      5412  TIP3      OH2            30.8450787947       14.1034840108       41.4764389745  TIP3      5220            0.0000000000
     37911      5412  TIP3      H1             30.5199277251       14.9535901751       41.8409554045  TIP3      5220            0.0000000000
     37912      5412  TIP3      H2             30.1200233949       13.4849879669       41.7051813678  TIP3      5220            0.0000000000
     37913      5413  TIP3      OH2            20.8821709155       10.4294765995       53.5036015843  TIP3      5221            0.0000000000
     37914      5413  TIP3      H1             21.0426050249        9.9955342931       54.3633372607  TIP3      5221            0.0000000000
     37915      5413  TIP3      H2             20.2499447262        9.8244998503       53.0753469264  TIP3      5221            0.0000000000
     37916      5414  TIP3      OH2            27.8853535586        9.9929040171       55.6831693361  TIP3      5222            0.0000000000
     37917      5414  TIP3      H1             27.5621119977        9.6846157415       54.8251578834  TIP3      5222            0.0000000000
     37918      5414  TIP3      H2             28.8069212336        9.6671922582       55.6805849119  TIP3      5222            0.0000000000
     37919      5415  TIP3      OH2            32.5666049006       15.3141314006       53.6367072745  TIP3      5223            0.0000000000
     37920      5415  TIP3      H1             31.6471060029       15.4960086228       53.3976602579  TIP3      5223            0.0000000000
     37921      5415  TIP3      H2             32.5394808941       15.6169640106       54.5644018962  TIP3      5223            0.0000000000
     37922      5416  TIP3      OH2            33.6764151598       11.1262442176       49.5368626558  TIP3      5224            0.0000000000
     37923      5416  TIP3      H1             32.7399841475       10.9088075633       49.3920858755  TIP3      5224            0.0000000000
     37924      5416  TIP3      H2             34.1562460435       10.3922822691       49.1132740526  TIP3      5224            0.0000000000
     37925      5417  TIP3      OH2            26.2558393259       15.4866995205       45.6306303095  TIP3      5225            0.0000000000
     37926      5417  TIP3      H1             26.7525322859       16.2933534601       45.4238919564  TIP3      5225            0.0000000000
     37927      5417  TIP3      H2             25.3757582368       15.7152633851       45.3002890299  TIP3      5225            0.0000000000
     37928      5418  TIP3      OH2            22.0234622154       10.3234616550       40.1966450303  TIP3      5226            0.0000000000
     37929      5418  TIP3      H1             22.5995134001       10.9890803716       40.6155167010  TIP3      5226            0.0000000000
     37930      5418  TIP3      H2             21.1312671499       10.6341651521       40.4498986559  TIP3      5226            0.0000000000
     37931      5419  TIP3      OH2            27.6654327526       13.1521871451       45.1408201740  TIP3      5227            0.0000000000
     37932      5419  TIP3      H1             27.3509793604       14.0704733588       45.2410928168  TIP3      5227            0.0000000000
     37933      5419  TIP3      H2             26.9526249158       12.6560568744       45.5907066327  TIP3      5227            0.0000000000
     37934      5420  TIP3      OH2            28.1158700296       17.3340567870       51.5606768594  TIP3      5228            0.0000000000
     37935      5420  TIP3      H1             28.5792883735       18.1379003225       51.2729196682  TIP3      5228            0.0000000000
     37936      5420  TIP3      H2             28.7298238420       16.9924353229       52.2363610692  TIP3      5228            0.0000000000
     37937      5421  TIP3      OH2            26.3458325701       18.1379789576       44.6727070615  TIP3      5229            0.0000000000
     37938      5421  TIP3      H1             25.3823929460       18.2807171317       44.8078190123  TIP3      5229            0.0000000000
     37939      5421  TIP3      H2             26.7101704070       18.9749197099       45.0176814416  TIP3      5229            0.0000000000
     37940      5422  TIP3      OH2            31.6602995757       13.3298195770       51.1799723468  TIP3      5230            0.0000000000
     37941      5422  TIP3      H1             31.3174660052       13.1354966828       52.0780558671  TIP3      5230            0.0000000000
     37942      5422  TIP3      H2             32.2865668271       12.6094858290       51.0088724261  TIP3      5230            0.0000000000
     37943      5423  TIP3      OH2            33.9576645012       14.3838862097       40.2566484645  TIP3      5231            0.0000000000
     37944      5423  TIP3      H1             34.2788359205       13.9495946429       41.0714395271  TIP3      5231            0.0000000000
     37945      5423  TIP3      H2             33.0077416390       14.2140828196       40.3476304877  TIP3      5231            0.0000000000
     37946      5424  TIP3      OH2            34.4669128939       17.8927190559       53.6523095937  TIP3      5232            0.0000000000
     37947      5424  TIP3      H1             33.7524258344       17.4257939824       53.1743440942  TIP3      5232            0.0000000000
     37948      5424  TIP3      H2             34.6761779848       18.6089007659       53.0132601724  TIP3      5232            0.0000000000
     37949      5425  TIP3      OH2            22.5481292988        5.1394936361       53.0536180860  TIP3      5233            0.0000000000
     37950      5425  TIP3      H1             21.6459025265        5.5239027133       53.0378491176  TIP3      5233            0.0000000000
     37951      5425  TIP3      H2             22.3904370851        4.3147704032       53.5359074688  TIP3      5233            0.0000000000
     37952      5426  TIP3      OH2            34.7586902489       12.9931681746       42.4847074018  TIP3      5234            0.0000000000
     37953      5426  TIP3      H1             34.5328548128       12.2270090528       43.0578023175  TIP3      5234            0.0000000000
     37954      5426  TIP3      H2             35.6964762907       13.1133740147       42.7128607953  TIP3      5234            0.0000000000
     37955      5427  TIP3      OH2            22.1314916684       16.9483125106       51.4823767463  TIP3      5235            0.0000000000
     37956      5427  TIP3      H1             22.4301315535       16.0259579366       51.4913792754  TIP3      5235            0.0000000000
     37957      5427  TIP3      H2             22.3947951507       17.2413581454       52.3619894456  TIP3      5235            0.0000000000
     37958      5428  TIP3      OH2            28.1083232953       15.4786474266       38.7620100079  TIP3      5236            0.0000000000
     37959      5428  TIP3      H1             28.2075847610       14.7148176254       38.1709154451  TIP3      5236            0.0000000000
     37960      5428  TIP3      H2             27.6663791332       15.0475341705       39.5259741817  TIP3      5236            0.0000000000
     37961      5429  TIP3      OH2            26.8792267482       15.0053749632       41.2144444448  TIP3      5237            0.0000000000
     37962      5429  TIP3      H1             27.1506657619       14.4902575062       41.9838267829  TIP3      5237            0.0000000000
     37963      5429  TIP3      H2             26.9719876166       15.9316904966       41.5373768501  TIP3      5237            0.0000000000
     37964      5430  TIP3      OH2            23.4241199160       12.2504558996       41.7000564090  TIP3      5238            0.0000000000
     37965      5430  TIP3      H1             22.7086202973       12.6464927237       42.2373009185  TIP3      5238            0.0000000000
     37966      5430  TIP3      H2             23.9281356286       13.0311118602       41.4058606900  TIP3      5238            0.0000000000
     37967      5431  TIP3      OH2            31.1936337069        4.9276329968       52.0350864761  TIP3      5239            0.0000000000
     37968      5431  TIP3      H1             31.9604491695        5.0060147869       52.6209017898  TIP3      5239            0.0000000000
     37969      5431  TIP3      H2             30.8710879636        4.0340950787       52.2375184928  TIP3      5239            0.0000000000
     37970      5432  TIP3      OH2            32.0559850832        4.4903444673       43.1088002951  TIP3      5240            0.0000000000
     37971      5432  TIP3      H1             32.2331574739        4.9750344252       42.2808148202  TIP3      5240            0.0000000000
     37972      5432  TIP3      H2             32.6047961313        4.9626472872       43.7475307983  TIP3      5240            0.0000000000
     37973      5433  TIP3      OH2            29.6848503277       16.6689031289       41.9094681068  TIP3      5241            0.0000000000
     37974      5433  TIP3      H1             28.8671557976       17.2004808065       41.9808108075  TIP3      5241            0.0000000000
     37975      5433  TIP3      H2             30.2240852296       17.2187727068       41.3228777355  TIP3      5241            0.0000000000
     37976      5434  TIP3      OH2            29.2306631565        6.2609812964       43.9236814573  TIP3      5242            0.0000000000
     37977      5434  TIP3      H1             30.0110794588        6.8474317135       43.9725074011  TIP3      5242            0.0000000000
     37978      5434  TIP3      H2             28.9619432326        6.1413919966       44.8545810777  TIP3      5242            0.0000000000
     37979      5435  TIP3      OH2            29.7965773029        7.2796105877       53.1170638066  TIP3      5243            0.0000000000
     37980      5435  TIP3      H1             29.8836204482        7.8465710331       53.9080115268  TIP3      5243            0.0000000000
     37981      5435  TIP3      H2             30.4611337808        6.5812676507       53.2044500146  TIP3      5243            0.0000000000
     37982      5436  TIP3      OH2            30.0343408336        3.3266548206       44.7864681612  TIP3      5244            0.0000000000
     37983      5436  TIP3      H1             29.7558097357        3.9769481268       45.4496520864  TIP3      5244            0.0000000000
     37984      5436  TIP3      H2             30.7532170170        3.8543981584       44.3589560514  TIP3      5244            0.0000000000
     37985      5437  TIP3      OH2            27.0787232805       17.7014462615       41.9377663522  TIP3      5245            0.0000000000
     37986      5437  TIP3      H1             27.1782880735       18.5163251814       41.3884238614  TIP3      5245            0.0000000000
     37987      5437  TIP3      H2             26.8118261905       18.0664625694       42.8095998206  TIP3      5245            0.0000000000
     37988      5438  TIP3      OH2            25.7313973986        4.4231839064       41.5169950874  TIP3      5246            0.0000000000
     37989      5438  TIP3      H1             25.6823921836        5.3214332122       41.9017901108  TIP3      5246            0.0000000000
     37990      5438  TIP3      H2             26.6403975726        4.1790262019       41.7802443873  TIP3      5246            0.0000000000
     37991      5439  TIP3      OH2            35.8332831041        4.9226896301       53.7635548716  TIP3      5247            0.0000000000
     37992      5439  TIP3      H1             35.0023269884        5.4545973433       53.8000104303  TIP3      5247            0.0000000000
     37993      5439  TIP3      H2             36.2325542344        5.2110405980       52.9421677172  TIP3      5247            0.0000000000
     37994      5440  TIP3      OH2            34.5669048561        8.9428353289       48.0132254467  TIP3      5248            0.0000000000
     37995      5440  TIP3      H1             33.7467379616        8.5082589410       47.7014457101  TIP3      5248            0.0000000000
     37996      5440  TIP3      H2             34.9967656558        8.2296944621       48.4954610690  TIP3      5248            0.0000000000
     37997      5441  TIP3      OH2            23.9640013984       14.8649444926       40.5596094524  TIP3      5249            0.0000000000
     37998      5441  TIP3      H1             24.6321220781       15.4918875929       40.8754165090  TIP3      5249            0.0000000000
     37999      5441  TIP3      H2             24.4850842240       14.4012665649       39.8735788503  TIP3      5249            0.0000000000
     38000      5442  TIP3      OH2            22.3120269986        7.5460333741       39.6883559061  TIP3      5250            0.0000000000
     38001      5442  TIP3      H1             22.3304585843        8.4974543490       39.9288618485  TIP3      5250            0.0000000000
     38002      5442  TIP3      H2             21.4067736590        7.3697025566       39.4228929695  TIP3      5250            0.0000000000
     38003      5443  TIP3      OH2            35.6991046767       18.2243508212       49.6215218850  TIP3      5251            0.0000000000
     38004      5443  TIP3      H1             35.5440391300       18.8996488419       48.9373426256  TIP3      5251            0.0000000000
     38005      5443  TIP3      H2             36.6421576783       18.3159708306       49.7955673305  TIP3      5251            0.0000000000
     38006      5444  TIP3      OH2            23.1509989002        2.3154279748       48.4483497841  TIP3      5252            0.0000000000
     38007      5444  TIP3      H1             22.9345110789        2.3468278546       47.4854106647  TIP3      5252            0.0000000000
     38008      5444  TIP3      H2             22.6996566969        1.4743237098       48.6884878671  TIP3      5252            0.0000000000
     38009      5445  TIP3      OH2            22.0821171133       16.2455262072       44.5946413726  TIP3      5253            0.0000000000
     38010      5445  TIP3      H1             21.2293342520       16.6940595870       44.5472522507  TIP3      5253            0.0000000000
     38011      5445  TIP3      H2             22.5581290374       16.7098783908       43.8930408288  TIP3      5253            0.0000000000
     38012      5446  TIP3      OH2            21.2800098534       18.8940831491       55.8911886236  TIP3      5254            0.0000000000
     38013      5446  TIP3      H1             21.8942801580       18.6904801929       56.6213979885  TIP3      5254            0.0000000000
     38014      5446  TIP3      H2             20.8813585534       18.0285449723       55.6970668776  TIP3      5254            0.0000000000
     38015      5447  TIP3      OH2            25.9615836922       17.8067763087       57.4794376053  TIP3      5255            0.0000000000
     38016      5447  TIP3      H1             26.7239624498       17.3158053281       57.8147027818  TIP3      5255            0.0000000000
     38017      5447  TIP3      H2             25.9421742195       17.5340185633       56.5426958718  TIP3      5255            0.0000000000
     38018      5448  TIP3      OH2            30.1092771142       17.3280234952       38.8835812948  TIP3      5256            0.0000000000
     38019      5448  TIP3      H1             29.4133832883       16.6723192599       39.1118960613  TIP3      5256            0.0000000000
     38020      5448  TIP3      H2             30.8283441895       16.7256263899       38.6402016384  TIP3      5256            0.0000000000
     38021      5449  TIP3      OH2            32.5278873962       16.1852849525       56.2301738513  TIP3      5257            0.0000000000
     38022      5449  TIP3      H1             32.1779013159       15.3151316360       56.5142811623  TIP3      5257            0.0000000000
     38023      5449  TIP3      H2             33.2811517124       16.2927825784       56.8403924315  TIP3      5257            0.0000000000
     38024      5450  TIP3      OH2            34.6337074109       17.0903482770       39.1220144447  TIP3      5258            0.0000000000
     38025      5450  TIP3      H1             34.9407441745       16.2889028919       39.5725774906  TIP3      5258            0.0000000000
     38026      5450  TIP3      H2             35.3810807991       17.2716560122       38.5215769105  TIP3      5258            0.0000000000
     38027      5451  TIP3      OH2            21.1978322998       12.6686076539       56.8759438404  TIP3      5259            0.0000000000
     38028      5451  TIP3      H1             21.3543226620       11.7639841966       56.5566566905  TIP3      5259            0.0000000000
     38029      5451  TIP3      H2             20.4601759224       12.9367412027       56.2985266045  TIP3      5259            0.0000000000
     38030      5452  TIP3      OH2            25.5436382811       13.0127036084       38.8854881998  TIP3      5260            0.0000000000
     38031      5452  TIP3      H1             25.6837193131       12.2526311567       39.4700915465  TIP3      5260            0.0000000000
     38032      5452  TIP3      H2             26.2954088082       12.8955968714       38.2721384616  TIP3      5260            0.0000000000
     38033      5453  TIP3      OH2            27.9190582498       12.6612076937       56.2541780616  TIP3      5261            0.0000000000
     38034      5453  TIP3      H1             27.5753420357       12.9655548572       55.3937745787  TIP3      5261            0.0000000000
     38035      5453  TIP3      H2             27.9868311767       11.6817487380       56.1508799417  TIP3      5261            0.0000000000
     38036      5454  TIP3      OH2            30.9710575840       14.1216575331       38.6678751558  TIP3      5262            0.0000000000
     38037      5454  TIP3      H1             30.6989983408       14.2037862510       39.5955687482  TIP3      5262            0.0000000000
     38038      5454  TIP3      H2             30.7792440160       13.1644341574       38.5236349347  TIP3      5262            0.0000000000
     38039      5455  TIP3      OH2            33.5809491668       12.4785028767       53.6483346142  TIP3      5263            0.0000000000
     38040      5455  TIP3      H1             34.3727996295       13.0741508475       53.5946772896  TIP3      5263            0.0000000000
     38041      5455  TIP3      H2             32.9089550318       13.1685422604       53.6930744483  TIP3      5263            0.0000000000
     38042      5456  TIP3      OH2            22.1621733933        9.8898980588       56.2368097460  TIP3      5264            0.0000000000
     38043      5456  TIP3      H1             22.5154226883        9.0005330743       56.1328168225  TIP3      5264            0.0000000000
     38044      5456  TIP3      H2             21.8384885285        9.9143949162       57.1510547365  TIP3      5264            0.0000000000
     38045      5457  TIP3      OH2            26.7602895741       11.0274504068       41.3273307539  TIP3      5265            0.0000000000
     38046      5457  TIP3      H1             26.2461813463       10.4907870849       41.9477309964  TIP3      5265            0.0000000000
     38047      5457  TIP3      H2             27.0496094144       10.3571572434       40.6654031777  TIP3      5265            0.0000000000
     38048      5458  TIP3      OH2            26.0172494464        8.8376486357       53.6061944052  TIP3      5266            0.0000000000
     38049      5458  TIP3      H1             25.4205625792        9.5591353263       53.8633365211  TIP3      5266            0.0000000000
     38050      5458  TIP3      H2             26.4143966060        9.2055304574       52.7981781895  TIP3      5266            0.0000000000
     38051      5459  TIP3      OH2            27.8197928163        9.2553203508       39.5177187143  TIP3      5267            0.0000000000
     38052      5459  TIP3      H1             27.6689309472        9.1648356824       38.5550163916  TIP3      5267            0.0000000000
     38053      5459  TIP3      H2             28.7975121495        9.3066343357       39.5844945666  TIP3      5267            0.0000000000
     38054      5460  TIP3      OH2            31.0883385751       11.4172174771       56.9458467601  TIP3      5268            0.0000000000
     38055      5460  TIP3      H1             32.0435596794       11.4032190583       56.8245327742  TIP3      5268            0.0000000000
     38056      5460  TIP3      H2             30.9360482050       10.6371260149       57.5036681528  TIP3      5268            0.0000000000
     38057      5461  TIP3      OH2            26.4162110570        6.2122987011       54.6582310160  TIP3      5269            0.0000000000
     38058      5461  TIP3      H1             26.5583262883        5.5199774793       54.0001653003  TIP3      5269            0.0000000000
     38059      5461  TIP3      H2             26.3823503778        7.0420288155       54.1318041634  TIP3      5269            0.0000000000
     38060      5462  TIP3      OH2            26.8443776915        4.6471575381       52.2148815609  TIP3      5270            0.0000000000
     38061      5462  TIP3      H1             27.3885527519        5.1445529502       51.5444984106  TIP3      5270            0.0000000000
     38062      5462  TIP3      H2             25.9422092680        4.7932113346       51.8508193766  TIP3      5270            0.0000000000
     38063      5463  TIP3      OH2            28.3566635592       10.0778874290       52.4614930797  TIP3      5271            0.0000000000
     38064      5463  TIP3      H1             29.1168830117        9.9216861939       51.8916043885  TIP3      5271            0.0000000000
     38065      5463  TIP3      H2             28.0037560358       10.9189710169       52.1280649277  TIP3      5271            0.0000000000
     38066      5464  TIP3      OH2            32.8193722352        7.8705435406       57.4329327313  TIP3      5272            0.0000000000
     38067      5464  TIP3      H1             33.0373563673        6.9319335120       57.3205288450  TIP3      5272            0.0000000000
     38068      5464  TIP3      H2             33.6935890837        8.2855309456       57.3903601670  TIP3      5272            0.0000000000
     38069      5465  TIP3      OH2            34.1237640664       10.6790203114       55.5920061500  TIP3      5273            0.0000000000
     38070      5465  TIP3      H1             33.8284572616       11.3618839988       54.9490205681  TIP3      5273            0.0000000000
     38071      5465  TIP3      H2             35.0528373073       10.5645747589       55.3787488439  TIP3      5273            0.0000000000
     38072      5466  TIP3      OH2            24.8789275370        7.4674998525       56.6022581697  TIP3      5274            0.0000000000
     38073      5466  TIP3      H1             24.1204472010        6.8812037312       56.3983587117  TIP3      5274            0.0000000000
     38074      5466  TIP3      H2             25.5355643617        7.1132058747       55.9710586291  TIP3      5274            0.0000000000
     38075      5467  TIP3      OH2            27.7166226372        1.9918515552       52.7101706516  TIP3      5275            0.0000000000
     38076      5467  TIP3      H1             27.6229526086        2.9647518513       52.6199486338  TIP3      5275            0.0000000000
     38077      5467  TIP3      H2             27.0263482555        1.4958604861       52.2527135893  TIP3      5275            0.0000000000
     38078      5468  TIP3      OH2            28.8902720989        6.3676937164       56.2410380653  TIP3      5276            0.0000000000
     38079      5468  TIP3      H1             28.5720502889        6.1334438269       57.1339019113  TIP3      5276            0.0000000000
     38080      5468  TIP3      H2             28.1062714704        6.1779458237       55.7031959283  TIP3      5276            0.0000000000
     38081      5469  TIP3      OH2            31.5669784172        5.5301936288       55.3313805968  TIP3      5277            0.0000000000
     38082      5469  TIP3      H1             30.6061491110        5.5534632812       55.4555558172  TIP3      5277            0.0000000000
     38083      5469  TIP3      H2             31.8848420648        4.8822838565       55.9859419558  TIP3      5277            0.0000000000
     38084      5470  TIP3      OH2            33.2823637088        4.1017086518       57.2598269454  TIP3      5278            0.0000000000
     38085      5470  TIP3      H1             33.1299628293        3.1333301100       57.2547377152  TIP3      5278            0.0000000000
     38086      5470  TIP3      H2             32.9240203054        4.4138959897       58.1145698992  TIP3      5278            0.0000000000
     38087      5471  TIP3      OH2            22.9609312791        5.4244969827       56.3682767754  TIP3      5279            0.0000000000
     38088      5471  TIP3      H1             23.1971491428        4.6933686833       55.7709107666  TIP3      5279            0.0000000000
     38089      5471  TIP3      H2             22.8651576005        4.9424978489       57.2109495380  TIP3      5279            0.0000000000
     38090      5472  TIP3      OH2            27.8204641493        1.4210289362       55.3181701675  TIP3      5280            0.0000000000
     38091      5472  TIP3      H1             28.5104385833        0.7222830149       55.3221199505  TIP3      5280            0.0000000000
     38092      5472  TIP3      H2             27.7518010166        1.5611068461       54.3595316563  TIP3      5280            0.0000000000
     38093      5473  TIP3      OH2            28.1940682013        3.0461093145       57.4338839453  TIP3      5281            0.0000000000
     38094      5473  TIP3      H1             28.0256299537        2.5277448036       56.6098550707  TIP3      5281            0.0000000000
     38095      5473  TIP3      H2             27.5931740096        3.8063518963       57.3217600679  TIP3      5281            0.0000000000
     38096      5474  TIP3      OH2            27.6610551871       19.9546399088       40.5942829428  TIP3      5282            0.0000000000
     38097      5474  TIP3      H1             28.6279579754       20.0413290856       40.6626263073  TIP3      5282            0.0000000000
     38098      5474  TIP3      H2             27.5106157094       20.5578042120       39.8566269300  TIP3      5282            0.0000000000
     38099      5475  TIP3      OH2            21.2104068229       14.5280032568       40.0650545127  TIP3      5283            0.0000000000
     38100      5475  TIP3      H1             22.1774216350       14.6231703962       40.2454007511  TIP3      5283            0.0000000000
     38101      5475  TIP3      H2             21.2607410519       13.8849587416       39.3183630283  TIP3      5283            0.0000000000
     38102      5476  TIP3      OH2            19.9932703170       19.9129891495       45.0288475345  TIP3      5284            0.0000000000
     38103      5476  TIP3      H1             19.2723288762       19.4278647829       44.5706389286  TIP3      5284            0.0000000000
     38104      5476  TIP3      H2             20.2728024155       19.2601926317       45.6960690810  TIP3      5284            0.0000000000
     38105      5477  TIP3      OH2            20.8161139507       18.0514245706       46.9082590052  TIP3      5285            0.0000000000
     38106      5477  TIP3      H1             20.4633752094       17.1725885466       47.1073419771  TIP3      5285            0.0000000000
     38107      5477  TIP3      H2             21.0579030338       18.3761093168       47.7928710869  TIP3      5285            0.0000000000
     38108      5478  TIP3      OH2            36.2742328524       16.0951029441       52.0913118854  TIP3      5286            0.0000000000
     38109      5478  TIP3      H1             35.6187446479       16.5436837552       52.6418579156  TIP3      5286            0.0000000000
     38110      5478  TIP3      H2             35.7521399791       15.7421814199       51.3482454044  TIP3      5286            0.0000000000
     38111      5479  TIP3      OH2            35.3644771686        9.1099542737       45.4357339563  TIP3      5287            0.0000000000
     38112      5479  TIP3      H1             35.6207839774        8.1832675001       45.4689707446  TIP3      5287            0.0000000000
     38113      5479  TIP3      H2             35.4816830993        9.3598885401       46.3756832808  TIP3      5287            0.0000000000
     38114      5480  TIP3      OH2            20.8773916777       11.1299968030       49.4013861241  TIP3      5288            0.0000000000
     38115      5480  TIP3      H1             21.0529069211       11.0462428396       48.4380083942  TIP3      5288            0.0000000000
     38116      5480  TIP3      H2             21.7704044041       10.9495043734       49.7544726209  TIP3      5288            0.0000000000
     38117      5481  TIP3      OH2            35.9487248811        5.0533562661       38.8061870180  TIP3      5289            0.0000000000
     38118      5481  TIP3      H1             36.5366326363        4.6363111546       39.4369374733  TIP3      5289            0.0000000000
     38119      5481  TIP3      H2             35.0870827687        4.6456496937       38.9978836004  TIP3      5289            0.0000000000
     38120      5482  TIP3      OH2            35.5028028872        6.5605327798       43.6356657502  TIP3      5290            0.0000000000
     38121      5482  TIP3      H1             35.7879831928        5.7203794147       44.0393872139  TIP3      5290            0.0000000000
     38122      5482  TIP3      H2             36.3527115493        6.9100527527       43.3424939677  TIP3      5290            0.0000000000
     38123      5483  TIP3      OH2           -37.0504112571        6.3323793746       49.2430761301  TIP3      5291            0.0000000000
     38124      5483  TIP3      H1            -36.1641242031        6.6834671573       49.1005052056  TIP3      5291            0.0000000000
     38125      5483  TIP3      H2            -37.2707528808        6.9754450945       49.9383386117  TIP3      5291            0.0000000000
     38126      5484  TIP3      OH2            36.2592801875        7.9475674390       52.2775838008  TIP3      5292            0.0000000000
     38127      5484  TIP3      H1             35.3237667750        8.2141312844       52.3662949695  TIP3      5292            0.0000000000
     38128      5484  TIP3      H2             36.6197612331        8.6338160964       51.6857275530  TIP3      5292            0.0000000000
     38129      5485  TIP3      OH2            20.4874302994        6.4277473044       55.5581404558  TIP3      5293            0.0000000000
     38130      5485  TIP3      H1             21.4246283853        6.2035116881       55.7269632862  TIP3      5293            0.0000000000
     38131      5485  TIP3      H2             20.0288901335        5.6039701963       55.8323480991  TIP3      5293            0.0000000000
     38132      5486  TIP3      OH2            35.3087459238        3.6054151967       44.4966733761  TIP3      5294            0.0000000000
     38133      5486  TIP3      H1             36.2405670364        3.4294991209       44.7169569292  TIP3      5294            0.0000000000
     38134      5486  TIP3      H2             35.3268016522        3.1830011242       43.6116432967  TIP3      5294            0.0000000000
     38135      5487  TIP3      OH2            21.6945063497        4.7149803797       48.4070346594  TIP3      5295            0.0000000000
     38136      5487  TIP3      H1             22.1470654572        3.8885742339       48.6589700704  TIP3      5295            0.0000000000
     38137      5487  TIP3      H2             22.2362507028        5.4145729727       48.7907073691  TIP3      5295            0.0000000000
     38138      5488  TIP3      OH2            19.9746520428        7.7207316119       49.4397032119  TIP3      5296            0.0000000000
     38139      5488  TIP3      H1             20.5376318665        7.4696124440       48.6794720536  TIP3      5296            0.0000000000
     38140      5488  TIP3      H2             20.4419686347        8.5243652499       49.7096430647  TIP3      5296            0.0000000000
     38141      5489  TIP3      OH2            20.3433535744        3.9947813384       43.5240703209  TIP3      5297            0.0000000000
     38142      5489  TIP3      H1             19.3996538016        4.1539303205       43.3604157576  TIP3      5297            0.0000000000
     38143      5489  TIP3      H2             20.7599027416        4.4726297851       42.7876764203  TIP3      5297            0.0000000000
     38144      5490  TIP3      OH2            34.8875817648       18.7477162583       45.5572980776  TIP3      5298            0.0000000000
     38145      5490  TIP3      H1             35.5647172294       18.4218350419       44.9480897609  TIP3      5298            0.0000000000
     38146      5490  TIP3      H2             35.4113741606       19.3286371493       46.1349403579  TIP3      5298            0.0000000000
     38147      5491  TIP3      OH2            20.3064212092        2.6292790576       51.8052114945  TIP3      5299            0.0000000000
     38148      5491  TIP3      H1             19.6357589259        2.4380115485       52.4869477677  TIP3      5299            0.0000000000
     38149      5491  TIP3      H2             19.8445801787        3.3024566850       51.2677278404  TIP3      5299            0.0000000000
     38150      5492  TIP3      OH2            22.5281700123       15.8206997644       55.9712491634  TIP3      5300            0.0000000000
     38151      5492  TIP3      H1             21.6920493844       16.0508268179       55.5315709934  TIP3      5300            0.0000000000
     38152      5492  TIP3      H2             22.2587041566       15.7547196539       56.8897668821  TIP3      5300            0.0000000000
     38153      5493  TIP3      OH2            25.4287749657       16.8387701113       52.2505220267  TIP3      5301            0.0000000000
     38154      5493  TIP3      H1             25.0982443787       17.7068893918       51.9773093583  TIP3      5301            0.0000000000
     38155      5493  TIP3      H2             26.3538121893       16.9231341400       51.9447172511  TIP3      5301            0.0000000000
     38156      5494  TIP3      OH2            29.7499838297       18.2657725081       55.1508273840  TIP3      5302            0.0000000000
     38157      5494  TIP3      H1             29.8861970695       17.9090065999       56.0600821379  TIP3      5302            0.0000000000
     38158      5494  TIP3      H2             30.6520022296       18.5694335879       54.9074222273  TIP3      5302            0.0000000000
     38159      5495  TIP3      OH2            32.0569285255       19.5268553764       54.4721136722  TIP3      5303            0.0000000000
     38160      5495  TIP3      H1             32.7989079174       18.9529359229       54.2302616609  TIP3      5303            0.0000000000
     38161      5495  TIP3      H2             32.4383090005       19.9797296367       55.2542827577  TIP3      5303            0.0000000000
     38162      5496  TIP3      OH2            22.8516009156       20.0722245832       52.2418545271  TIP3      5304            0.0000000000
     38163      5496  TIP3      H1             22.1205125828       20.5747339822       51.8474500846  TIP3      5304            0.0000000000
     38164      5496  TIP3      H2             22.5418048765       19.8836365728       53.1393097213  TIP3      5304            0.0000000000
     38165      5497  TIP3      OH2            25.3195248217       19.6518434530       51.3172492573  TIP3      5305            0.0000000000
     38166      5497  TIP3      H1             24.4282147185       19.8094045853       51.7088676939  TIP3      5305            0.0000000000
     38167      5497  TIP3      H2             25.2668905978       20.2409448011       50.5420416029  TIP3      5305            0.0000000000
     38168      5498  TIP3      OH2            29.9887424920       19.5471131773       50.4939756643  TIP3      5306            0.0000000000
     38169      5498  TIP3      H1             29.5593718687       20.1198531047       49.8372509870  TIP3      5306            0.0000000000
     38170      5498  TIP3      H2             30.1558989799       20.1877639323       51.2188342297  TIP3      5306            0.0000000000
     38171      5499  TIP3      OH2            32.3104167511       18.3664199448       51.5121526140  TIP3      5307            0.0000000000
     38172      5499  TIP3      H1             31.4553370269       18.6419968059       51.1476776118  TIP3      5307            0.0000000000
     38173      5499  TIP3      H2             32.7721365560       19.2241212990       51.4461630199  TIP3      5307            0.0000000000
     38174      5500  TIP3      OH2            34.7459041296       19.9392337374       51.7310687816  TIP3      5308            0.0000000000
     38175      5500  TIP3      H1             34.7590005198       20.8909717342       51.5127832198  TIP3      5308            0.0000000000
     38176      5500  TIP3      H2             35.1095018141       19.5703762071       50.9012794394  TIP3      5308            0.0000000000
     38177      5501  TIP3      OH2            22.3127321643       18.7229463180       49.1865503274  TIP3      5309            0.0000000000
     38178      5501  TIP3      H1             22.2298560120       18.2629942432       50.0488180101  TIP3      5309            0.0000000000
     38179      5501  TIP3      H2             23.1273459696       18.3432750422       48.7989415811  TIP3      5309            0.0000000000
     38180      5502  TIP3      OH2            24.3850834160       17.4340775011       47.8393177849  TIP3      5310            0.0000000000
     38181      5502  TIP3      H1             24.2229705465       16.5006780870       48.0739707441  TIP3      5310            0.0000000000
     38182      5502  TIP3      H2             25.2420168363       17.5906190911       48.2920559207  TIP3      5310            0.0000000000
     38183      5503  TIP3      OH2            26.9605050762       17.9195371094       48.7140515212  TIP3      5311            0.0000000000
     38184      5503  TIP3      H1             27.1421451404       16.9995221537       48.4538444214  TIP3      5311            0.0000000000
     38185      5503  TIP3      H2             27.0335941581       17.8670673915       49.6795225823  TIP3      5311            0.0000000000
     38186      5504  TIP3      OH2            30.4116092349        3.5702758372       47.8698581623  TIP3      5312            0.0000000000
     38187      5504  TIP3      H1             29.7617571989        2.9059074908       48.1295481252  TIP3      5312            0.0000000000
     38188      5504  TIP3      H2             30.9881475844        3.0596653977       47.2837437322  TIP3      5312            0.0000000000
     38189      5505  TIP3      OH2            35.5903205613        1.6075078517       47.9327908478  TIP3      5313            0.0000000000
     38190      5505  TIP3      H1             36.1683735225        2.2319806170       47.4863059736  TIP3      5313            0.0000000000
     38191      5505  TIP3      H2             34.6986870908        1.9659829691       47.7170219156  TIP3      5313            0.0000000000
     38192      5506  TIP3      OH2            22.8155065867        2.1935376356       45.7043981214  TIP3      5314            0.0000000000
     38193      5506  TIP3      H1             22.0196612531        1.9996699456       45.1726174227  TIP3      5314            0.0000000000
     38194      5506  TIP3      H2             23.2764485470        1.3334089118       45.6460874342  TIP3      5314            0.0000000000
     38195      5507  TIP3      OH2            21.5815727865        1.9489941450       41.4233249931  TIP3      5315            0.0000000000
     38196      5507  TIP3      H1             22.0732057408        2.5989849858       40.8887947530  TIP3      5315            0.0000000000
     38197      5507  TIP3      H2             21.0163620633        2.5215538387       41.9638285354  TIP3      5315            0.0000000000
     38198      5508  TIP3      OH2            27.2861978177        2.1220790820       45.4777252719  TIP3      5316            0.0000000000
     38199      5508  TIP3      H1             28.1868327021        2.4812843457       45.4108217324  TIP3      5316            0.0000000000
     38200      5508  TIP3      H2             27.2520111564        1.8928072075       46.4020561460  TIP3      5316            0.0000000000
     38201      5509  TIP3      OH2            33.0197334280        2.0964859061       47.1166471670  TIP3      5317            0.0000000000
     38202      5509  TIP3      H1             32.9640488526        2.2778157207       46.1703636332  TIP3      5317            0.0000000000
     38203      5509  TIP3      H2             32.5907795279        1.2137916561       47.2242778263  TIP3      5317            0.0000000000
     38204      5510  TIP3      OH2            34.2278185313        2.0814922148       42.6806215894  TIP3      5318            0.0000000000
     38205      5510  TIP3      H1             33.5294865155        2.7491626145       42.6355675369  TIP3      5318            0.0000000000
     38206      5510  TIP3      H2             33.7632454600        1.2841443508       43.0068514894  TIP3      5318            0.0000000000
     38207      5511  TIP3      OH2            21.4966870675       17.8958932989       42.4548920975  TIP3      5319            0.0000000000
     38208      5511  TIP3      H1             20.8399663506       17.8819732609       41.7345579761  TIP3      5319            0.0000000000
     38209      5511  TIP3      H2             21.4941726217       18.8510579520       42.6260328549  TIP3      5319            0.0000000000
     38210      5512  TIP3      OH2            23.4127359854        3.9166880392       39.8981244041  TIP3      5320            0.0000000000
     38211      5512  TIP3      H1             23.9459885785        3.2601519721       39.4196366562  TIP3      5320            0.0000000000
     38212      5512  TIP3      H2             24.0610138999        4.2162399073       40.5638700426  TIP3      5320            0.0000000000
     38213      5513  TIP3      OH2            28.4391730943        4.1341503219       42.3396664527  TIP3      5321            0.0000000000
     38214      5513  TIP3      H1             28.6905834397        3.5583962933       43.0816357355  TIP3      5321            0.0000000000
     38215      5513  TIP3      H2             28.5073329532        5.0007156385       42.7975826965  TIP3      5321            0.0000000000
     38216      5514  TIP3      OH2            30.3630566259       19.2037575021       40.7861094880  TIP3      5322            0.0000000000
     38217      5514  TIP3      H1             31.2820093741       19.4372254323       40.5679047965  TIP3      5322            0.0000000000
     38218      5514  TIP3      H2             30.1495049181       18.6866482265       39.9826862900  TIP3      5322            0.0000000000
     38219      5515  TIP3      OH2            22.7215974429        2.7252739017       55.1216799828  TIP3      5323            0.0000000000
     38220      5515  TIP3      H1             22.3018021085        1.9578675166       55.5593596507  TIP3      5323            0.0000000000
     38221      5515  TIP3      H2             23.6069151683        2.6911332750       55.5574215682  TIP3      5323            0.0000000000
     38222      5516  TIP3      OH2            24.7089064069        2.1118237173       56.7573109730  TIP3      5324            0.0000000000
     38223      5516  TIP3      H1             25.6107222809        1.7724972497       56.6022316410  TIP3      5324            0.0000000000
     38224      5516  TIP3      H2             24.3274628979        1.3227231937       57.1898288551  TIP3      5324            0.0000000000
     38225      5517  TIP3      OH2            23.2905246994       18.8837503963       39.3949784663  TIP3      5325            0.0000000000
     38226      5517  TIP3      H1             23.0315608097       19.1419342428       40.2913889697  TIP3      5325            0.0000000000
     38227      5517  TIP3      H2             24.0740044955       18.3203651933       39.5501131135  TIP3      5325            0.0000000000
     38228      5518  TIP3      OH2            33.1040192385        1.4251317871       56.9247766536  TIP3      5326            0.0000000000
     38229      5518  TIP3      H1             33.1920655748        0.9562683588       57.7807120358  TIP3      5326            0.0000000000
     38230      5518  TIP3      H2             34.0277195822        1.4065518969       56.5868546531  TIP3      5326            0.0000000000
     38231      5519  TIP3      OH2            36.0963441059       17.3369493715       55.7193657838  TIP3      5327            0.0000000000
     38232      5519  TIP3      H1             35.4543654777       17.2805342828       54.9799231524  TIP3      5327            0.0000000000
     38233      5519  TIP3      H2             36.1251576108       18.3195574180       55.8013757181  TIP3      5327            0.0000000000
     38234      5520  TIP3      OH2           -24.6659225527       30.1716420266       45.5462805936  TIP3      5328            0.0000000000
     38235      5520  TIP3      H1            -24.6842001928       31.1556966001       45.5372574572  TIP3      5328            0.0000000000
     38236      5520  TIP3      H2            -25.4001275286       29.9500571528       44.9534425860  TIP3      5328            0.0000000000
     38237      5521  TIP3      OH2           -25.7957055624       29.4583212492       49.0638123031  TIP3      5329            0.0000000000
     38238      5521  TIP3      H1            -25.8341967554       28.7925326857       49.7665663572  TIP3      5329            0.0000000000
     38239      5521  TIP3      H2            -26.1610002377       28.9311414334       48.3240598074  TIP3      5329            0.0000000000
     38240      5522  TIP3      OH2           -33.4067844788       29.1092971140       50.5793743536  TIP3      5330            0.0000000000
     38241      5522  TIP3      H1            -33.3499359239       28.4363393250       51.2939230434  TIP3      5330            0.0000000000
     38242      5522  TIP3      H2            -32.7035828031       29.7147712300       50.8534329329  TIP3      5330            0.0000000000
     38243      5523  TIP3      OH2           -22.1267719653       32.3799552053       47.3560688740  TIP3      5331            0.0000000000
     38244      5523  TIP3      H1            -22.5450629567       31.6667669289       47.8458981647  TIP3      5331            0.0000000000
     38245      5523  TIP3      H2            -22.0856624922       33.0990740024       48.0119422816  TIP3      5331            0.0000000000
     38246      5524  TIP3      OH2           -32.5237577451       33.5603587845       49.1622716111  TIP3      5332            0.0000000000
     38247      5524  TIP3      H1            -32.8616715679       32.7203418319       48.7958713266  TIP3      5332            0.0000000000
     38248      5524  TIP3      H2            -31.5679051785       33.3801436777       49.1409447656  TIP3      5332            0.0000000000
     38249      5525  TIP3      OH2           -35.6293194011       27.1267134447       44.1764186345  TIP3      5333            0.0000000000
     38250      5525  TIP3      H1            -36.0692392839       27.9201339655       44.5627604158  TIP3      5333            0.0000000000
     38251      5525  TIP3      H2            -36.4187048101       26.5914138744       44.1849246290  TIP3      5333            0.0000000000
     38252      5526  TIP3      OH2           -35.2070837559       29.2717936297       46.7063324571  TIP3      5334            0.0000000000
     38253      5526  TIP3      H1            -34.9151783913       28.5137079022       47.2326589280  TIP3      5334            0.0000000000
     38254      5526  TIP3      H2            -34.4683959369       29.4376210562       46.1052209523  TIP3      5334            0.0000000000
     38255      5527  TIP3      OH2           -27.4529935373       31.8202132382       49.5439315440  TIP3      5335            0.0000000000
     38256      5527  TIP3      H1            -27.0977275886       31.2153326108       48.8732657353  TIP3      5335            0.0000000000
     38257      5527  TIP3      H2            -26.6374131614       32.0195909400       50.0374624375  TIP3      5335            0.0000000000
     38258      5528  TIP3      OH2           -18.8428587967       23.5088143819       50.2550551581  TIP3      5336            0.0000000000
     38259      5528  TIP3      H1            -18.6638632960       24.0936001399       51.0226877062  TIP3      5336            0.0000000000
     38260      5528  TIP3      H2            -18.2719112405       23.9276968061       49.5952666970  TIP3      5336            0.0000000000
     38261      5529  TIP3      OH2           -24.2100894904       26.3196223813       49.8489443666  TIP3      5337            0.0000000000
     38262      5529  TIP3      H1            -24.1223538950       25.3525548747       49.8493091702  TIP3      5337            0.0000000000
     38263      5529  TIP3      H2            -24.4031754587       26.4556933658       48.8989678497  TIP3      5337            0.0000000000
     38264      5530  TIP3      OH2           -31.6214433806       24.4020374148       46.9440848361  TIP3      5338            0.0000000000
     38265      5530  TIP3      H1            -31.0182276599       25.1199542712       46.6521536652  TIP3      5338            0.0000000000
     38266      5530  TIP3      H2            -31.5946263251       23.7710024273       46.2064657270  TIP3      5338            0.0000000000
     38267      5531  TIP3      OH2           -23.4208727135       24.4787059031       45.4339003077  TIP3      5339            0.0000000000
     38268      5531  TIP3      H1            -22.7694453254       24.1660935683       46.1040274139  TIP3      5339            0.0000000000
     38269      5531  TIP3      H2            -22.8555951098       25.0603984431       44.9040511288  TIP3      5339            0.0000000000
     38270      5532  TIP3      OH2           -34.5880538198       26.7179111940       47.7352195185  TIP3      5340            0.0000000000
     38271      5532  TIP3      H1            -33.8350262995       26.2746830783       48.1985946829  TIP3      5340            0.0000000000
     38272      5532  TIP3      H2            -34.3619531731       26.4506221512       46.8329216263  TIP3      5340            0.0000000000
     38273      5533  TIP3      OH2           -29.3557553336       28.3814296357       47.1070013346  TIP3      5341            0.0000000000
     38274      5533  TIP3      H1            -28.7371401353       27.7596151043       47.5333454276  TIP3      5341            0.0000000000
     38275      5533  TIP3      H2            -29.8911442828       27.7009823850       46.6442544150  TIP3      5341            0.0000000000
     38276      5534  TIP3      OH2           -18.3984254779       24.9081081058       52.5343441661  TIP3      5342            0.0000000000
     38277      5534  TIP3      H1            -19.0040546795       25.6767702436       52.4218581800  TIP3      5342            0.0000000000
     38278      5534  TIP3      H2            -18.3662802407       24.8317072765       53.4945826735  TIP3      5342            0.0000000000
     38279      5535  TIP3      OH2           -32.2147153653       23.3438582536       51.0462079560  TIP3      5343            0.0000000000
     38280      5535  TIP3      H1            -32.5348856390       23.9182662114       50.3350644321  TIP3      5343            0.0000000000
     38281      5535  TIP3      H2            -32.8649049951       23.5136732193       51.7716015494  TIP3      5343            0.0000000000
     38282      5536  TIP3      OH2           -24.9758367046       32.7558998773       44.6529500098  TIP3      5344            0.0000000000
     38283      5536  TIP3      H1            -25.2083615549       32.5210470347       43.7447867748  TIP3      5344            0.0000000000
     38284      5536  TIP3      H2            -25.2609258423       33.6902593228       44.7143720963  TIP3      5344            0.0000000000
     38285      5537  TIP3      OH2           -29.7060794847       30.9235694242       51.3523158659  TIP3      5345            0.0000000000
     38286      5537  TIP3      H1            -30.4268624758       31.5569123374       51.5645605560  TIP3      5345            0.0000000000
     38287      5537  TIP3      H2            -29.0162003228       31.5332803652       51.0504250687  TIP3      5345            0.0000000000
     38288      5538  TIP3      OH2           -21.6035432009       23.8297129096       47.4242152588  TIP3      5346            0.0000000000
     38289      5538  TIP3      H1            -21.8264026284       23.0612781038       47.9573983913  TIP3      5346            0.0000000000
     38290      5538  TIP3      H2            -20.9351132653       24.2661689301       47.9792973117  TIP3      5346            0.0000000000
     38291      5539  TIP3      OH2           -32.7213899798       25.2038582063       49.1399861594  TIP3      5347            0.0000000000
     38292      5539  TIP3      H1            -32.0352302880       25.8243372050       49.4724414637  TIP3      5347            0.0000000000
     38293      5539  TIP3      H2            -32.1688972047       24.7775244886       48.4165901061  TIP3      5347            0.0000000000
     38294      5540  TIP3      OH2           -31.2779812013       32.9336236860       52.1292367579  TIP3      5348            0.0000000000
     38295      5540  TIP3      H1            -31.3393670889       33.8452504873       51.7990368586  TIP3      5348            0.0000000000
     38296      5540  TIP3      H2            -32.1621540486       32.8478056530       52.5651223380  TIP3      5348            0.0000000000
     38297      5541  TIP3      OH2           -35.2299924960       32.6236655993       42.9222766185  TIP3      5349            0.0000000000
     38298      5541  TIP3      H1            -35.4567314826       32.9531960608       42.0390785917  TIP3      5349            0.0000000000
     38299      5541  TIP3      H2            -35.1221304239       33.4362317898       43.4514449921  TIP3      5349            0.0000000000
     38300      5542  TIP3      OH2           -21.5877971258       34.2526841245       49.7637036767  TIP3      5350            0.0000000000
     38301      5542  TIP3      H1            -22.5693805346       34.3325450814       49.8534049736  TIP3      5350            0.0000000000
     38302      5542  TIP3      H2            -21.3061308795       35.1437725314       49.4930309351  TIP3      5350            0.0000000000
     38303      5543  TIP3      OH2           -21.2719701298       22.5143838797       51.1016228646  TIP3      5351            0.0000000000
     38304      5543  TIP3      H1            -21.9974124841       23.1470257848       51.0078518087  TIP3      5351            0.0000000000
     38305      5543  TIP3      H2            -20.5591192619       22.9332648026       50.5787573192  TIP3      5351            0.0000000000
     38306      5544  TIP3      OH2           -28.2924317625       20.6211561563       48.5463429613  TIP3      5352            0.0000000000
     38307      5544  TIP3      H1            -28.4612107463       19.6658388028       48.5296641743  TIP3      5352            0.0000000000
     38308      5544  TIP3      H2            -29.1540806514       20.9723361310       48.8679783546  TIP3      5352            0.0000000000
     38309      5545  TIP3      OH2           -23.3029419103       35.7079146599       46.1210341255  TIP3      5353            0.0000000000
     38310      5545  TIP3      H1            -22.7376742435       35.0948758229       45.6125917190  TIP3      5353            0.0000000000
     38311      5545  TIP3      H2            -22.9050823772       36.5392151937       45.8780972271  TIP3      5353            0.0000000000
     38312      5546  TIP3      OH2           -22.0819397594       33.8452464268       44.8124536492  TIP3      5354            0.0000000000
     38313      5546  TIP3      H1            -22.4392178871       33.1843859715       44.2089067213  TIP3      5354            0.0000000000
     38314      5546  TIP3      H2            -22.0893363277       33.3930724141       45.6762510072  TIP3      5354            0.0000000000
     38315      5547  TIP3      OH2           -20.4990852883       32.5763849163       53.3243990015  TIP3      5355            0.0000000000
     38316      5547  TIP3      H1            -20.3734670130       31.8979923819       52.6239060461  TIP3      5355            0.0000000000
     38317      5547  TIP3      H2            -20.2760534983       33.3977659202       52.8531672055  TIP3      5355            0.0000000000
     38318      5548  TIP3      OH2           -26.0091445624       29.4210357865       43.0729169515  TIP3      5356            0.0000000000
     38319      5548  TIP3      H1            -26.7047594064       30.0012297705       42.7155937716  TIP3      5356            0.0000000000
     38320      5548  TIP3      H2            -25.2996075905       29.5225979363       42.4122756142  TIP3      5356            0.0000000000
     38321      5549  TIP3      OH2           -25.9480601910       27.9688971502       40.1071340475  TIP3      5357            0.0000000000
     38322      5549  TIP3      H1            -25.2101916670       27.9963895307       40.7351457061  TIP3      5357            0.0000000000
     38323      5549  TIP3      H2            -25.6118085065       27.2912008238       39.5061246256  TIP3      5357            0.0000000000
     38324      5550  TIP3      OH2           -18.6198946767       28.8496018407       51.3551996473  TIP3      5358            0.0000000000
     38325      5550  TIP3      H1            -19.2758260901       29.5735138816       51.3952999674  TIP3      5358            0.0000000000
     38326      5550  TIP3      H2            -18.1245526553       29.0844894278       50.5495756881  TIP3      5358            0.0000000000
     38327      5551  TIP3      OH2           -22.5587413584       29.6263037442       44.0000282045  TIP3      5359            0.0000000000
     38328      5551  TIP3      H1            -23.3107970734       29.8645369676       44.6008369533  TIP3      5359            0.0000000000
     38329      5551  TIP3      H2            -22.0845253855       28.9557135314       44.5217573788  TIP3      5359            0.0000000000
     38330      5552  TIP3      OH2           -22.6367659898       27.8026786879       53.1197402203  TIP3      5360            0.0000000000
     38331      5552  TIP3      H1            -22.6279936058       28.6225185745       53.6401022522  TIP3      5360            0.0000000000
     38332      5552  TIP3      H2            -23.2752799667       28.0842416668       52.4293147634  TIP3      5360            0.0000000000
     38333      5553  TIP3      OH2           -30.9348501246       30.3189188800       45.9157742116  TIP3      5361            0.0000000000
     38334      5553  TIP3      H1            -31.2834517627       29.9082434354       45.0862211786  TIP3      5361            0.0000000000
     38335      5553  TIP3      H2            -30.3392202200       29.6115859752       46.2562067502  TIP3      5361            0.0000000000
     38336      5554  TIP3      OH2           -29.6236005492       33.6983297956       48.5800922562  TIP3      5362            0.0000000000
     38337      5554  TIP3      H1            -29.6241448966       33.1527948537       47.7857643473  TIP3      5362            0.0000000000
     38338      5554  TIP3      H2            -28.8576720271       33.3308040974       49.0592327508  TIP3      5362            0.0000000000
     38339      5555  TIP3      OH2           -30.6208045723       29.0806432217       49.5701788809  TIP3      5363            0.0000000000
     38340      5555  TIP3      H1            -30.0551982187       29.1362158311       48.7774311788  TIP3      5363            0.0000000000
     38341      5555  TIP3      H2            -30.2136631405       29.7151025994       50.1939435598  TIP3      5363            0.0000000000
     38342      5556  TIP3      OH2           -24.1735000995       34.6104880063       50.3032458431  TIP3      5364            0.0000000000
     38343      5556  TIP3      H1            -24.5414746022       35.2417006413       50.9165428340  TIP3      5364            0.0000000000
     38344      5556  TIP3      H2            -24.4714804814       33.7543822779       50.6979872737  TIP3      5364            0.0000000000
     38345      5557  TIP3      OH2           -29.6715322109       33.4770754763       54.2746592211  TIP3      5365            0.0000000000
     38346      5557  TIP3      H1            -30.1040781247       34.2232196015       54.7497789154  TIP3      5365            0.0000000000
     38347      5557  TIP3      H2            -30.3323942272       33.2483758444       53.5710410687  TIP3      5365            0.0000000000
     38348      5558  TIP3      OH2           -23.6981023703       28.8436708733       41.6755474877  TIP3      5366            0.0000000000
     38349      5558  TIP3      H1            -23.1277391144       29.0111203996       42.4663170491  TIP3      5366            0.0000000000
     38350      5558  TIP3      H2            -23.2319496757       29.3130313017       40.9385660435  TIP3      5366            0.0000000000
     38351      5559  TIP3      OH2           -32.7314104522       29.6461322485       53.4531255313  TIP3      5367            0.0000000000
     38352      5559  TIP3      H1            -32.6839556652       30.3302309044       54.1427896884  TIP3      5367            0.0000000000
     38353      5559  TIP3      H2            -33.6709210661       29.7326403001       53.2185123107  TIP3      5367            0.0000000000
     38354      5560  TIP3      OH2           -26.0167672161       35.5298467727       45.1432122442  TIP3      5368            0.0000000000
     38355      5560  TIP3      H1            -25.5213263409       35.8509298493       45.9043400350  TIP3      5368            0.0000000000
     38356      5560  TIP3      H2            -26.5250345423       36.3008483830       44.8721960291  TIP3      5368            0.0000000000
     38357      5561  TIP3      OH2           -31.4401843816       35.4165746073       55.0009101780  TIP3      5369            0.0000000000
     38358      5561  TIP3      H1            -31.5248587530       35.3976292894       54.0256431365  TIP3      5369            0.0000000000
     38359      5561  TIP3      H2            -32.3807581151       35.3537779579       55.2646395043  TIP3      5369            0.0000000000
     38360      5562  TIP3      OH2           -19.9545829325       20.5679644057       41.5693105274  TIP3      5370            0.0000000000
     38361      5562  TIP3      H1            -20.8995623184       20.6843145964       41.8055952415  TIP3      5370            0.0000000000
     38362      5562  TIP3      H2            -19.7567704259       21.4089087300       41.1223912933  TIP3      5370            0.0000000000
     38363      5563  TIP3      OH2           -31.9691415127       29.3154935655       43.5376852087  TIP3      5371            0.0000000000
     38364      5563  TIP3      H1            -32.2555860700       30.0942941692       43.0243516982  TIP3      5371            0.0000000000
     38365      5563  TIP3      H2            -32.6220570312       28.6483423930       43.3069613625  TIP3      5371            0.0000000000
     38366      5564  TIP3      OH2           -18.7858748672       34.9289560070       39.9224868917  TIP3      5372            0.0000000000
     38367      5564  TIP3      H1            -18.7005196849       35.8768149596       40.0917813602  TIP3      5372            0.0000000000
     38368      5564  TIP3      H2            -17.8697603000       34.6009882091       39.9323050238  TIP3      5372            0.0000000000
     38369      5565  TIP3      OH2           -35.2944398821       31.6128348169       52.1822696686  TIP3      5373            0.0000000000
     38370      5565  TIP3      H1            -36.0593669081       31.7351286615       51.5799717552  TIP3      5373            0.0000000000
     38371      5565  TIP3      H2            -35.6705565327       30.8268353710       52.6394615990  TIP3      5373            0.0000000000
     38372      5566  TIP3      OH2           -35.8367949398       34.6844161752       48.9737270316  TIP3      5374            0.0000000000
     38373      5566  TIP3      H1            -34.9853981861       34.3510468441       49.2461266093  TIP3      5374            0.0000000000
     38374      5566  TIP3      H2            -36.0706002394       35.2564858763       49.7130260094  TIP3      5374            0.0000000000
     38375      5567  TIP3      OH2           -17.9140873963       35.1803323645       54.9671689113  TIP3      5375            0.0000000000
     38376      5567  TIP3      H1            -18.0169591344       34.2242595779       54.8420699549  TIP3      5375            0.0000000000
     38377      5567  TIP3      H2            -18.8029777437       35.4440411691       55.2865080916  TIP3      5375            0.0000000000
     38378      5568  TIP3      OH2           -26.9522440594       34.7461498048       53.7427918584  TIP3      5376            0.0000000000
     38379      5568  TIP3      H1            -26.8496584661       35.5532497163       54.2569799398  TIP3      5376            0.0000000000
     38380      5568  TIP3      H2            -27.7932856725       34.3443219330       54.0294575098  TIP3      5376            0.0000000000
     38381      5569  TIP3      OH2           -20.7440039186       26.6556775432       55.3630335417  TIP3      5377            0.0000000000
     38382      5569  TIP3      H1            -21.2203897034       27.1060677910       54.6466213048  TIP3      5377            0.0000000000
     38383      5569  TIP3      H2            -20.7603205714       25.7363912685       55.0574143263  TIP3      5377            0.0000000000
     38384      5570  TIP3      OH2           -33.5614766654       33.1303806880       53.4327390527  TIP3      5378            0.0000000000
     38385      5570  TIP3      H1            -33.4087908608       32.6889831552       54.2898539715  TIP3      5378            0.0000000000
     38386      5570  TIP3      H2            -34.4014479389       32.7146409937       53.1320591704  TIP3      5378            0.0000000000
     38387      5571  TIP3      OH2           -30.9126390375       21.5529387954       49.2902721807  TIP3      5379            0.0000000000
     38388      5571  TIP3      H1            -31.8246704871       21.4337061352       48.9601915427  TIP3      5379            0.0000000000
     38389      5571  TIP3      H2            -31.0349866431       22.3735839278       49.8082947808  TIP3      5379            0.0000000000
     38390      5572  TIP3      OH2           -26.2433321210       21.2057482951       52.6800021471  TIP3      5380            0.0000000000
     38391      5572  TIP3      H1            -25.8833205997       20.7852553926       53.4811870025  TIP3      5380            0.0000000000
     38392      5572  TIP3      H2            -27.2313109069       21.1025098985       52.8060127362  TIP3      5380            0.0000000000
     38393      5573  TIP3      OH2           -22.9674696841       25.0636505435       53.6056133434  TIP3      5381            0.0000000000
     38394      5573  TIP3      H1            -23.5719908442       24.8375724309       54.3525862076  TIP3      5381            0.0000000000
     38395      5573  TIP3      H2            -23.1764328411       25.9781205400       53.3502830504  TIP3      5381            0.0000000000
     38396      5574  TIP3      OH2           -22.1386282061       29.6874747626       39.5624463878  TIP3      5382            0.0000000000
     38397      5574  TIP3      H1            -22.2887468259       29.7608389485       38.5923763544  TIP3      5382            0.0000000000
     38398      5574  TIP3      H2            -21.4206021142       30.3394427053       39.5590946682  TIP3      5382            0.0000000000
     38399      5575  TIP3      OH2           -26.6982001545       23.9083899506       40.0110310410  TIP3      5383            0.0000000000
     38400      5575  TIP3      H1            -26.9425765786       23.7413359365       40.9314265084  TIP3      5383            0.0000000000
     38401      5575  TIP3      H2            -26.8368689929       22.9668822800       39.6940267067  TIP3      5383            0.0000000000
     38402      5576  TIP3      OH2           -30.8525696794       26.5435810819       50.6319555732  TIP3      5384            0.0000000000
     38403      5576  TIP3      H1            -31.6063747327       26.5098993327       51.2343849266  TIP3      5384            0.0000000000
     38404      5576  TIP3      H2            -30.8715545659       27.4191119095       50.1959354169  TIP3      5384            0.0000000000
     38405      5577  TIP3      OH2           -30.8455122116       26.6708521278       45.3930167356  TIP3      5385            0.0000000000
     38406      5577  TIP3      H1            -31.7750888120       26.3694422594       45.3138148997  TIP3      5385            0.0000000000
     38407      5577  TIP3      H2            -30.4651386201       26.3111038216       44.5754184487  TIP3      5385            0.0000000000
     38408      5578  TIP3      OH2           -25.3357317440       27.1398202412       44.2003281094  TIP3      5386            0.0000000000
     38409      5578  TIP3      H1            -25.7296163721       27.9626767060       43.8328626771  TIP3      5386            0.0000000000
     38410      5578  TIP3      H2            -24.6454041631       26.9669627313       43.5402025957  TIP3      5386            0.0000000000
     38411      5579  TIP3      OH2           -26.2883898786       27.3430261034       55.6452447501  TIP3      5387            0.0000000000
     38412      5579  TIP3      H1            -26.8142552544       26.5659034071       55.9523817771  TIP3      5387            0.0000000000
     38413      5579  TIP3      H2            -25.4496763825       27.2206170452       56.1202389836  TIP3      5387            0.0000000000
     38414      5580  TIP3      OH2           -24.2483937803       26.6331828598       47.0314778633  TIP3      5388            0.0000000000
     38415      5580  TIP3      H1            -24.6117303903       27.1821018128       46.3199783061  TIP3      5388            0.0000000000
     38416      5580  TIP3      H2            -24.2164075094       25.7711121369       46.5774637870  TIP3      5388            0.0000000000
     38417      5581  TIP3      OH2           -33.2316713304       26.7875403489       52.2735093552  TIP3      5389            0.0000000000
     38418      5581  TIP3      H1            -33.1735376545       27.1794254989       53.1544818019  TIP3      5389            0.0000000000
     38419      5581  TIP3      H2            -33.6665511721       25.9405754666       52.4630478587  TIP3      5389            0.0000000000
     38420      5582  TIP3      OH2           -29.8266674030       24.3300786221       39.1663524201  TIP3      5390            0.0000000000
     38421      5582  TIP3      H1            -30.2413065139       23.7386276794       39.8269001110  TIP3      5390            0.0000000000
     38422      5582  TIP3      H2            -30.5634738309       24.5635077925       38.5931011523  TIP3      5390            0.0000000000
     38423      5583  TIP3      OH2           -36.1660121370       24.1932898224       46.0493232444  TIP3      5391            0.0000000000
     38424      5583  TIP3      H1            -35.8324191203       23.8491864808       46.9049362105  TIP3      5391            0.0000000000
     38425      5583  TIP3      H2            -36.0278510890       23.4395886546       45.4783011116  TIP3      5391            0.0000000000
     38426      5584  TIP3      OH2           -35.2962108255       24.7395553739       41.5590125657  TIP3      5392            0.0000000000
     38427      5584  TIP3      H1            -34.7327527478       25.2952693497       40.9811939452  TIP3      5392            0.0000000000
     38428      5584  TIP3      H2            -36.0189505205       25.3018846778       41.8068751584  TIP3      5392            0.0000000000
     38429      5585  TIP3      OH2           -25.1157627241       28.1951134627       51.6000422614  TIP3      5393            0.0000000000
     38430      5585  TIP3      H1            -24.7544200657       27.5067685793       51.0009659185  TIP3      5393            0.0000000000
     38431      5585  TIP3      H2            -25.5947940756       27.6675714121       52.2634592276  TIP3      5393            0.0000000000
     38432      5586  TIP3      OH2           -28.1485192729       23.8073748866       46.1814145453  TIP3      5394            0.0000000000
     38433      5586  TIP3      H1            -29.0250778333       24.1216924870       46.5105668723  TIP3      5394            0.0000000000
     38434      5586  TIP3      H2            -27.7987798201       24.0106528499       47.0844635449  TIP3      5394            0.0000000000
     38435      5587  TIP3      OH2           -33.5059952880       25.7492859508       45.2767288441  TIP3      5395            0.0000000000
     38436      5587  TIP3      H1            -34.3828583732       25.8833999345       44.8797294088  TIP3      5395            0.0000000000
     38437      5587  TIP3      H2            -33.2239010504       24.8822783143       44.9198803997  TIP3      5395            0.0000000000
     38438      5588  TIP3      OH2           -29.8651605578       25.7921262106       42.9319211552  TIP3      5396            0.0000000000
     38439      5588  TIP3      H1            -28.9093470584       25.8961563985       43.1099926289  TIP3      5396            0.0000000000
     38440      5588  TIP3      H2            -30.1053751292       26.4773816547       42.2811670635  TIP3      5396            0.0000000000
     38441      5589  TIP3      OH2           -23.8980630783       23.4120133413       49.6841961978  TIP3      5397            0.0000000000
     38442      5589  TIP3      H1            -24.5929050188       23.4740960667       50.3803104057  TIP3      5397            0.0000000000
     38443      5589  TIP3      H2            -24.4216523814       23.1745774714       48.9010965143  TIP3      5397            0.0000000000
     38444      5590  TIP3      OH2           -31.1558195884       26.9948352161       40.5140674802  TIP3      5398            0.0000000000
     38445      5590  TIP3      H1            -31.6727922403       26.5849610801       39.8014938089  TIP3      5398            0.0000000000
     38446      5590  TIP3      H2            -30.3201670369       27.1657297260       40.0520906510  TIP3      5398            0.0000000000
     38447      5591  TIP3      OH2           -33.0471244320       31.5414181474       55.5841573028  TIP3      5399            0.0000000000
     38448      5591  TIP3      H1            -32.3056599273       31.7625408867       56.1807876656  TIP3      5399            0.0000000000
     38449      5591  TIP3      H2            -33.7960208263       31.6216853721       56.1992008805  TIP3      5399            0.0000000000
     38450      5592  TIP3      OH2           -26.8059814852       27.0282903210       48.4121355325  TIP3      5400            0.0000000000
     38451      5592  TIP3      H1            -26.4768538833       26.3899552092       47.7782747707  TIP3      5400            0.0000000000
     38452      5592  TIP3      H2            -27.2556984582       26.4163406601       49.0315530060  TIP3      5400            0.0000000000
     38453      5593  TIP3      OH2           -32.0635823583       23.0900655407       44.6896893807  TIP3      5401            0.0000000000
     38454      5593  TIP3      H1            -32.3554616362       22.1747780470       44.7904054874  TIP3      5401            0.0000000000
     38455      5593  TIP3      H2            -31.2197995202       23.0251207655       44.2278291098  TIP3      5401            0.0000000000
     38456      5594  TIP3      OH2           -28.3219564542       25.2248289671       51.0763498565  TIP3      5402            0.0000000000
     38457      5594  TIP3      H1            -29.1216678396       25.7463370793       50.8221390700  TIP3      5402            0.0000000000
     38458      5594  TIP3      H2            -27.7685785547       25.7708325603       51.6383728727  TIP3      5402            0.0000000000
     38459      5595  TIP3      OH2           -27.8060735225       31.4770941144       42.4505254361  TIP3      5403            0.0000000000
     38460      5595  TIP3      H1            -28.6058454605       31.0117684214       42.1168573498  TIP3      5403            0.0000000000
     38461      5595  TIP3      H2            -28.0238440645       31.6002390151       43.3958152581  TIP3      5403            0.0000000000
     38462      5596  TIP3      OH2           -20.6067236933       30.6897383470       51.2499805806  TIP3      5404            0.0000000000
     38463      5596  TIP3      H1            -20.0476368729       31.1878721786       50.6241101787  TIP3      5404            0.0000000000
     38464      5596  TIP3      H2            -21.4682538409       30.7381844689       50.7866820853  TIP3      5404            0.0000000000
     38465      5597  TIP3      OH2           -23.9831142996       24.3044069880       40.6275619307  TIP3      5405            0.0000000000
     38466      5597  TIP3      H1            -24.9357524176       24.4316662156       40.4753087543  TIP3      5405            0.0000000000
     38467      5597  TIP3      H2            -23.6506862830       25.1663541645       40.9534968820  TIP3      5405            0.0000000000
     38468      5598  TIP3      OH2           -26.3313904465       31.7806836915       53.6788438287  TIP3      5406            0.0000000000
     38469      5598  TIP3      H1            -26.6596744286       31.3393978892       54.4701381401  TIP3      5406            0.0000000000
     38470      5598  TIP3      H2            -26.5546247571       32.7047905878       53.8043789368  TIP3      5406            0.0000000000
     38471      5599  TIP3      OH2           -23.2317624748       26.2264097425       42.2483487326  TIP3      5407            0.0000000000
     38472      5599  TIP3      H1            -22.3489513523       26.0912472928       42.6526865065  TIP3      5407            0.0000000000
     38473      5599  TIP3      H2            -23.1270749351       27.0437007204       41.7340287361  TIP3      5407            0.0000000000
     38474      5600  TIP3      OH2           -32.7007324529       30.8645797959       48.2349452152  TIP3      5408            0.0000000000
     38475      5600  TIP3      H1            -32.0134135495       30.8169113855       47.5487564478  TIP3      5408            0.0000000000
     38476      5600  TIP3      H2            -32.5782845375       30.0170032171       48.7023068108  TIP3      5408            0.0000000000
     38477      5601  TIP3      OH2           -25.7244586231       32.9533922521       41.5011366465  TIP3      5409            0.0000000000
     38478      5601  TIP3      H1            -26.0595174667       33.8137506209       41.8225624965  TIP3      5409            0.0000000000
     38479      5601  TIP3      H2            -26.4546108348       32.3421904448       41.7198746861  TIP3      5409            0.0000000000
     38480      5602  TIP3      OH2           -35.7312005296       29.2669938966       53.5109456701  TIP3      5410            0.0000000000
     38481      5602  TIP3      H1            -35.4704323934       28.8262554789       54.3423357777  TIP3      5410            0.0000000000
     38482      5602  TIP3      H2            -36.3170356826       28.6255141994       53.0850765320  TIP3      5410            0.0000000000
     38483      5603  TIP3      OH2           -28.6843728527       28.8668346535       55.6971021832  TIP3      5411            0.0000000000
     38484      5603  TIP3      H1            -29.0072687857       28.5418941017       54.8381459378  TIP3      5411            0.0000000000
     38485      5603  TIP3      H2            -27.7661729243       28.5266183371       55.6862427851  TIP3      5411            0.0000000000
     38486      5604  TIP3      OH2           -24.0155682155       34.2451030026       53.5629879646  TIP3      5412            0.0000000000
     38487      5604  TIP3      H1            -24.9562497963       34.3154049638       53.3873340870  TIP3      5412            0.0000000000
     38488      5604  TIP3      H2            -24.0379854228       34.4253865499       54.5348296404  TIP3      5412            0.0000000000
     38489      5605  TIP3      OH2           -18.3280768469       26.3554245651       42.0212011082  TIP3      5413            0.0000000000
     38490      5605  TIP3      H1            -18.8998446556       26.0761547716       41.2826509457  TIP3      5413            0.0000000000
     38491      5605  TIP3      H2            -18.2558307864       27.3057525864       41.7732852639  TIP3      5413            0.0000000000
     38492      5606  TIP3      OH2           -18.3242624031       32.2020877729       54.8234074854  TIP3      5414            0.0000000000
     38493      5606  TIP3      H1            -19.2180390101       32.4460100169       54.4776056248  TIP3      5414            0.0000000000
     38494      5606  TIP3      H2            -17.7949116690       32.1564292560       54.0007103697  TIP3      5414            0.0000000000
     38495      5607  TIP3      OH2           -19.9078891476       34.9490646110       42.6328471973  TIP3      5415            0.0000000000
     38496      5607  TIP3      H1            -20.4690598192       34.2008735469       42.7614028233  TIP3      5415            0.0000000000
     38497      5607  TIP3      H2            -19.7923372271       35.0289002609       41.6693468330  TIP3      5415            0.0000000000
     38498      5608  TIP3      OH2           -22.8322982524       30.0059334532       49.5359836647  TIP3      5416            0.0000000000
     38499      5608  TIP3      H1            -23.7731338408       29.7989800796       49.4192777620  TIP3      5416            0.0000000000
     38500      5608  TIP3      H2            -22.4027870734       29.2486264601       49.0950654382  TIP3      5416            0.0000000000
     38501      5609  TIP3      OH2           -30.2880052952       34.3034921378       45.5507200805  TIP3      5417            0.0000000000
     38502      5609  TIP3      H1            -29.8188661782       35.1426077112       45.4637429342  TIP3      5417            0.0000000000
     38503      5609  TIP3      H2            -31.2021458929       34.5410546105       45.3534240887  TIP3      5417            0.0000000000
     38504      5610  TIP3      OH2           -34.6039866875       29.1785589251       40.2396766597  TIP3      5418            0.0000000000
     38505      5610  TIP3      H1            -33.9558993341       29.8270867523       40.6022413531  TIP3      5418            0.0000000000
     38506      5610  TIP3      H2            -35.4534461764       29.5401212766       40.5018467560  TIP3      5418            0.0000000000
     38507      5611  TIP3      OH2           -28.8768084682       31.9958861262       45.1471870660  TIP3      5419            0.0000000000
     38508      5611  TIP3      H1            -29.1968861100       32.9150162762       45.2376073364  TIP3      5419            0.0000000000
     38509      5611  TIP3      H2            -29.6102246470       31.5132451573       45.5810646135  TIP3      5419            0.0000000000
     38510      5612  TIP3      OH2           -28.1405563309       35.8677352045       51.2425671821  TIP3      5420            0.0000000000
     38511      5612  TIP3      H1            -27.9975123922       36.8199568991       51.1717841785  TIP3      5420            0.0000000000
     38512      5612  TIP3      H2            -27.8324832870       35.7160948379       52.1481718972  TIP3      5420            0.0000000000
     38513      5613  TIP3      OH2           -24.9240307438       32.1880874426       51.1789223576  TIP3      5421            0.0000000000
     38514      5613  TIP3      H1            -25.2647193133       31.9697632110       52.0692519103  TIP3      5421            0.0000000000
     38515      5613  TIP3      H2            -24.2901896580       31.4757816506       51.0057965149  TIP3      5421            0.0000000000
     38516      5614  TIP3      OH2           -22.5811381805       33.2650741481       40.2699895635  TIP3      5422            0.0000000000
     38517      5614  TIP3      H1            -22.2834067379       32.8026540417       41.0751597363  TIP3      5422            0.0000000000
     38518      5614  TIP3      H2            -23.5306605267       33.0742821235       40.3327808017  TIP3      5422            0.0000000000
     38519      5615  TIP3      OH2           -34.0386127597       24.0447480801       53.0194496727  TIP3      5423            0.0000000000
     38520      5615  TIP3      H1            -34.9378487688       24.3754605432       53.1132783619  TIP3      5423            0.0000000000
     38521      5615  TIP3      H2            -34.1154454934       23.1772196433       53.4626790932  TIP3      5423            0.0000000000
     38522      5616  TIP3      OH2           -21.8249807207       31.8551015043       42.5231560108  TIP3      5424            0.0000000000
     38523      5616  TIP3      H1            -22.0433697896       31.0741172617       43.0652417970  TIP3      5424            0.0000000000
     38524      5616  TIP3      H2            -20.8698242469       31.9463449056       42.6734139284  TIP3      5424            0.0000000000
     38525      5617  TIP3      OH2           -34.1863069760       35.8128841226       51.4045001019  TIP3      5425            0.0000000000
     38526      5617  TIP3      H1            -34.1555868634       34.8621866263       51.5049771078  TIP3      5425            0.0000000000
     38527      5617  TIP3      H2            -34.2557768088       36.1193754175       52.3214405805  TIP3      5425            0.0000000000
     38528      5618  TIP3      OH2           -28.4544174685       34.3129961332       38.7447989180  TIP3      5426            0.0000000000
     38529      5618  TIP3      H1            -28.3690793370       33.5401973266       38.1642420971  TIP3      5426            0.0000000000
     38530      5618  TIP3      H2            -28.8868894530       33.8983190181       39.5223254422  TIP3      5426            0.0000000000
     38531      5619  TIP3      OH2           -29.7094820964       33.8181108232       41.1994376351  TIP3      5427            0.0000000000
     38532      5619  TIP3      H1            -29.4283832619       33.3281348453       41.9854469078  TIP3      5427            0.0000000000
     38533      5619  TIP3      H2            -29.5845106756       34.7526846429       41.4732031639  TIP3      5427            0.0000000000
     38534      5620  TIP3      OH2           -33.1968429473       31.1121439765       41.6846629635  TIP3      5428            0.0000000000
     38535      5620  TIP3      H1            -33.9059329184       31.5043741121       42.2374357524  TIP3      5428            0.0000000000
     38536      5620  TIP3      H2            -32.6736289422       31.8970952180       41.4182298178  TIP3      5428            0.0000000000
     38537      5621  TIP3      OH2           -25.2919123968       23.7975135988       52.0318926985  TIP3      5429            0.0000000000
     38538      5621  TIP3      H1            -24.5938881016       23.8433157229       52.6869184426  TIP3      5429            0.0000000000
     38539      5621  TIP3      H2            -25.7087993967       22.9309307931       52.2126498383  TIP3      5429            0.0000000000
     38540      5622  TIP3      OH2           -24.5679193931       23.3775912598       43.1225640175  TIP3      5430            0.0000000000
     38541      5622  TIP3      H1            -24.3376047560       23.8160985275       42.2783458525  TIP3      5430            0.0000000000
     38542      5622  TIP3      H2            -23.9740411605       23.8265621930       43.7378199800  TIP3      5430            0.0000000000
     38543      5623  TIP3      OH2           -26.8399321352       35.5575463627       41.9349666031  TIP3      5431            0.0000000000
     38544      5623  TIP3      H1            -27.6929617902       36.0295581847       41.9776027001  TIP3      5431            0.0000000000
     38545      5623  TIP3      H2            -26.3681147448       36.0612797179       41.2552089137  TIP3      5431            0.0000000000
     38546      5624  TIP3      OH2           -27.3383581295       25.1288884135       43.8890707763  TIP3      5432            0.0000000000
     38547      5624  TIP3      H1            -26.5578027270       25.7052442575       43.9744146701  TIP3      5432            0.0000000000
     38548      5624  TIP3      H2            -27.6117080820       24.9568599486       44.8149646741  TIP3      5432            0.0000000000
     38549      5625  TIP3      OH2           -26.7797818941       26.1606946268       53.1419580867  TIP3      5433            0.0000000000
     38550      5625  TIP3      H1            -26.6915495834       26.7049143245       53.9452345762  TIP3      5433            0.0000000000
     38551      5625  TIP3      H2            -26.1334505382       25.4437403180       53.2021772940  TIP3      5433            0.0000000000
     38552      5626  TIP3      OH2           -26.4888229413       22.1687933873       44.8141826759  TIP3      5434            0.0000000000
     38553      5626  TIP3      H1            -26.8425795152       22.8261638680       45.4608660172  TIP3      5434            0.0000000000
     38554      5626  TIP3      H2            -25.8052307216       22.7299192742       44.3734316458  TIP3      5434            0.0000000000
     38555      5627  TIP3      OH2           -29.4339261584      -36.4701563299       41.9666465141  TIP3      5435            0.0000000000
     38556      5627  TIP3      H1            -29.4033080494      -35.6812227046       41.3925051310  TIP3      5435            0.0000000000
     38557      5627  TIP3      H2            -29.7270997520      -36.0988107791       42.8129022102  TIP3      5435            0.0000000000
     38558      5628  TIP3      OH2           -30.8542518049       23.2734772306       41.5558979973  TIP3      5436            0.0000000000
     38559      5628  TIP3      H1            -30.8946099583       24.1934186134       41.8909424845  TIP3      5436            0.0000000000
     38560      5628  TIP3      H2            -29.9125306401       23.0699159772       41.7445180004  TIP3      5436            0.0000000000
     38561      5629  TIP3      OH2           -20.6084356905       24.0064543238       53.9608673428  TIP3      5437            0.0000000000
     38562      5629  TIP3      H1            -21.5357726399       24.3268621926       53.8343322309  TIP3      5437            0.0000000000
     38563      5629  TIP3      H2            -20.3120714831       23.9975010395       53.0361586608  TIP3      5437            0.0000000000
     38564      5630  TIP3      OH2           -21.9905225078       27.7989834032       47.9645829563  TIP3      5438            0.0000000000
     38565      5630  TIP3      H1            -22.8201768794       27.3516995375       47.6996153326  TIP3      5438            0.0000000000
     38566      5630  TIP3      H2            -21.5162580841       27.1119906295       48.4844833612  TIP3      5438            0.0000000000
     38567      5631  TIP3      OH2           -32.6127476761       33.7446936391       40.5371607555  TIP3      5439            0.0000000000
     38568      5631  TIP3      H1            -31.9288274990       34.3655288021       40.8319307993  TIP3      5439            0.0000000000
     38569      5631  TIP3      H2            -32.0911679187       33.2512980443       39.8766984260  TIP3      5439            0.0000000000
     38570      5632  TIP3      OH2           -34.3032456727       26.3798385062       39.6893458460  TIP3      5440            0.0000000000
     38571      5632  TIP3      H1            -34.2317085752       27.3358440887       39.8926629306  TIP3      5440            0.0000000000
     38572      5632  TIP3      H2            -35.1880576867       26.2127540447       39.3511913207  TIP3      5440            0.0000000000
     38573      5633  TIP3      OH2           -33.4438475690       21.1519889189       48.4138763257  TIP3      5441            0.0000000000
     38574      5633  TIP3      H1            -33.6642747464       21.1930038710       47.4642536987  TIP3      5441            0.0000000000
     38575      5633  TIP3      H2            -33.8648486423       20.3179735218       48.7072050363  TIP3      5441            0.0000000000
     38576      5634  TIP3      OH2           -34.4505358973       35.0996317289       44.5376119797  TIP3      5442            0.0000000000
     38577      5634  TIP3      H1            -35.3146262895       35.5126724872       44.5658843927  TIP3      5442            0.0000000000
     38578      5634  TIP3      H2            -33.9666242160       35.6118687965       43.8865626650  TIP3      5442            0.0000000000
     38579      5635  TIP3      OH2           -30.3156734643       36.3509672317       57.7014343592  TIP3      5443            0.0000000000
     38580      5635  TIP3      H1            -29.4619269155       35.9476578655       57.8718632174  TIP3      5443            0.0000000000
     38581      5635  TIP3      H2            -30.3918400733       36.2120107147       56.7407387740  TIP3      5443            0.0000000000
     38582      5636  TIP3      OH2           -26.4356011359       36.1123633026       38.9850082816  TIP3      5444            0.0000000000
     38583      5636  TIP3      H1            -27.1820122929       35.4913499777       39.0696255426  TIP3      5444            0.0000000000
     38584      5636  TIP3      H2            -25.7338814960       35.5678499883       38.6092730986  TIP3      5444            0.0000000000
     38585      5637  TIP3      OH2           -24.0058438952       34.6746731586       56.0850064475  TIP3      5445            0.0000000000
     38586      5637  TIP3      H1            -24.4846350708       34.0010799686       56.5985079233  TIP3      5445            0.0000000000
     38587      5637  TIP3      H2            -23.3983979728       35.0453773451       56.7412883030  TIP3      5445            0.0000000000
     38588      5638  TIP3      OH2           -21.7297660808       35.9102210360       39.2460187695  TIP3      5446            0.0000000000
     38589      5638  TIP3      H1            -21.5146076978       35.0297194571       39.5806321600  TIP3      5446            0.0000000000
     38590      5638  TIP3      H2            -21.0529815676       36.0655491279       38.5666408047  TIP3      5446            0.0000000000
     38591      5639  TIP3      OH2           -35.4017919615       31.5238670517       56.8614350094  TIP3      5447            0.0000000000
     38592      5639  TIP3      H1            -35.1898419492       30.6283994671       56.5371506239  TIP3      5447            0.0000000000
     38593      5639  TIP3      H2            -36.1156540817       31.8056619143       56.2796873563  TIP3      5447            0.0000000000
     38594      5640  TIP3      OH2           -31.0238125390       31.8457108027       38.8851548198  TIP3      5448            0.0000000000
     38595      5640  TIP3      H1            -30.8768875995       31.0889816284       39.4735677305  TIP3      5448            0.0000000000
     38596      5640  TIP3      H2            -30.2670558372       31.7451265212       38.2757003544  TIP3      5448            0.0000000000
     38597      5641  TIP3      OH2           -28.6364577467       31.5126157959       56.2466872822  TIP3      5449            0.0000000000
     38598      5641  TIP3      H1            -28.9957257179       31.8133754273       55.3905563171  TIP3      5449            0.0000000000
     38599      5641  TIP3      H2            -28.5794773584       30.5278137281       56.1490191389  TIP3      5449            0.0000000000
     38600      5642  TIP3      OH2           -25.6369653000       33.0097883882       38.6692535527  TIP3      5450            0.0000000000
     38601      5642  TIP3      H1            -25.8922691789       33.0814948943       39.6023173168  TIP3      5450            0.0000000000
     38602      5642  TIP3      H2            -25.7420098946       32.0424434775       38.5165772695  TIP3      5450            0.0000000000
     38603      5643  TIP3      OH2           -22.9552681677       31.3726092687       53.6490036140  TIP3      5451            0.0000000000
     38604      5643  TIP3      H1            -22.1691954536       31.9560093712       53.5771850076  TIP3      5451            0.0000000000
     38605      5643  TIP3      H2            -23.6558227377       32.0372972771       53.6921328536  TIP3      5451            0.0000000000
     38606      5644  TIP3      OH2           -34.5051602516       28.7625904162       56.2450722953  TIP3      5452            0.0000000000
     38607      5644  TIP3      H1            -34.0341943579       27.9130233518       56.1559040341  TIP3      5452            0.0000000000
     38608      5644  TIP3      H2            -34.6897515142       28.7520411890       57.1961459154  TIP3      5452            0.0000000000
     38609      5645  TIP3      OH2           -29.8136001299       29.9014917473       41.3197501966  TIP3      5453            0.0000000000
     38610      5645  TIP3      H1            -30.3172240565       29.3529450382       41.9432279856  TIP3      5453            0.0000000000
     38611      5645  TIP3      H2            -29.5190832659       29.2216983755       40.6658672451  TIP3      5453            0.0000000000
     38612      5646  TIP3      OH2           -30.5484556911       27.7074323753       53.6257339940  TIP3      5454            0.0000000000
     38613      5646  TIP3      H1            -31.1595480923       28.4206108246       53.8615827810  TIP3      5454            0.0000000000
     38614      5646  TIP3      H2            -30.1641404639       28.0407832161       52.7922009602  TIP3      5454            0.0000000000
     38615      5647  TIP3      OH2           -28.7438170515       28.1152816244       39.5195207679  TIP3      5455            0.0000000000
     38616      5647  TIP3      H1            -28.8971215307       28.0167746230       38.5586082611  TIP3      5455            0.0000000000
     38617      5647  TIP3      H2            -27.7669241941       28.1573616260       39.5867061987  TIP3      5455            0.0000000000
     38618      5648  TIP3      OH2           -25.4792860320       30.2624590834       56.9419627144  TIP3      5456            0.0000000000
     38619      5648  TIP3      H1            -24.5216918884       30.2482199381       56.8144398789  TIP3      5456            0.0000000000
     38620      5648  TIP3      H2            -25.6495268990       29.4947150759       57.5124577601  TIP3      5456            0.0000000000
     38621      5649  TIP3      OH2           -19.3328245543       30.4341067926       38.9181144676  TIP3      5457            0.0000000000
     38622      5649  TIP3      H1            -19.6517498100       30.0724573976       38.0725439815  TIP3      5457            0.0000000000
     38623      5649  TIP3      H2            -19.3709070806       31.4035062636       38.7354858778  TIP3      5457            0.0000000000
     38624      5650  TIP3      OH2           -30.0794101947       25.1028746507       54.6589725360  TIP3      5458            0.0000000000
     38625      5650  TIP3      H1            -30.0281547173       24.3724870192       54.0084181740  TIP3      5458            0.0000000000
     38626      5650  TIP3      H2            -30.2144215008       25.8758562543       54.0792796042  TIP3      5458            0.0000000000
     38627      5651  TIP3      OH2           -29.7210161602       23.4609325391       52.2189303107  TIP3      5459            0.0000000000
     38628      5651  TIP3      H1            -29.2325247469       23.9401804399       51.4949350558  TIP3      5459            0.0000000000
     38629      5651  TIP3      H2            -30.6266364130       23.3453330511       51.8447681430  TIP3      5459            0.0000000000
     38630      5652  TIP3      OH2           -28.1805679315       28.9702414383       52.4911472981  TIP3      5460            0.0000000000
     38631      5652  TIP3      H1            -27.4688020903       28.7596408625       51.8748281986  TIP3      5460            0.0000000000
     38632      5652  TIP3      H2            -28.5741787853       29.7732106821       52.1126065592  TIP3      5460            0.0000000000
     38633      5653  TIP3      OH2           -23.8085023558       26.6949949006       57.4195595688  TIP3      5461            0.0000000000
     38634      5653  TIP3      H1            -23.5720095782       25.7601724462       57.3281474162  TIP3      5461            0.0000000000
     38635      5653  TIP3      H2            -22.9434181093       27.1385424765       57.4541284307  TIP3      5461            0.0000000000
     38636      5654  TIP3      OH2           -22.4586750577       29.5029873015       55.5979258322  TIP3      5462            0.0000000000
     38637      5654  TIP3      H1            -22.7174710791       30.2140226235       54.9720154863  TIP3      5462            0.0000000000
     38638      5654  TIP3      H2            -21.5056087399       29.4748346036       55.4006164539  TIP3      5462            0.0000000000
     38639      5655  TIP3      OH2           -31.7107996380       26.3239513521       56.5599297477  TIP3      5463            0.0000000000
     38640      5655  TIP3      H1            -32.4673528526       25.7166497089       56.4076855912  TIP3      5463            0.0000000000
     38641      5655  TIP3      H2            -31.0458232742       25.9364117172       55.9572157578  TIP3      5463            0.0000000000
     38642      5656  TIP3      OH2           -28.8379238441       20.8948652805       52.5010997078  TIP3      5464            0.0000000000
     38643      5656  TIP3      H1            -29.1221196698       21.8476481071       52.5241061288  TIP3      5464            0.0000000000
     38644      5656  TIP3      H2            -29.7033704163       20.5605086778       52.2069778776  TIP3      5464            0.0000000000
     38645      5657  TIP3      OH2           -27.6811632932       25.2172579207       56.2316879430  TIP3      5465            0.0000000000
     38646      5657  TIP3      H1            -27.9986389027       24.9884609617       57.1262757750  TIP3      5465            0.0000000000
     38647      5657  TIP3      H2            -28.4665070808       25.0052692231       55.6857483779  TIP3      5465            0.0000000000
     38648      5658  TIP3      OH2           -24.9591355586       24.3686123291       55.3266037265  TIP3      5466            0.0000000000
     38649      5658  TIP3      H1            -25.9252833412       24.4182750524       55.4308283070  TIP3      5466            0.0000000000
     38650      5658  TIP3      H2            -24.6965566536       23.7239245805       56.0122176277  TIP3      5466            0.0000000000
     38651      5659  TIP3      OH2           -23.3834713643       22.9849036231       57.2206858750  TIP3      5467            0.0000000000
     38652      5659  TIP3      H1            -23.4271176964       22.0070007777       57.2530089389  TIP3      5467            0.0000000000
     38653      5659  TIP3      H2            -23.6277766972       23.2762867154       58.1214517153  TIP3      5467            0.0000000000
     38654      5660  TIP3      OH2           -33.4648737252       24.2339513628       56.3683473534  TIP3      5468            0.0000000000
     38655      5660  TIP3      H1            -33.3538745238       23.4983757838       55.7323752564  TIP3      5468            0.0000000000
     38656      5660  TIP3      H2            -33.6654095039       23.7563200986       57.1912174764  TIP3      5468            0.0000000000
     38657      5661  TIP3      OH2           -28.7287698652       20.2922134226       55.2960040669  TIP3      5469            0.0000000000
     38658      5661  TIP3      H1            -28.0642142950       19.5802287256       55.2481881817  TIP3      5469            0.0000000000
     38659      5661  TIP3      H2            -28.8969254742       20.4442919955       54.3417095145  TIP3      5469            0.0000000000
     38660      5662  TIP3      OH2           -28.3748902387       21.9004902701       57.4212227111  TIP3      5470            0.0000000000
     38661      5662  TIP3      H1            -28.5580963417       21.3921401289       56.5888035938  TIP3      5470            0.0000000000
     38662      5662  TIP3      H2            -28.9841748552       22.6533677558       57.3099162827  TIP3      5470            0.0000000000
     38663      5663  TIP3      OH2           -35.3141629373       33.3974084933       40.0607938533  TIP3      5471            0.0000000000
     38664      5663  TIP3      H1            -34.3637514913       33.5113788988       40.2678801577  TIP3      5471            0.0000000000
     38665      5663  TIP3      H2            -35.2679569055       32.7383387864       39.3458428986  TIP3      5471            0.0000000000
     38666      5664  TIP3      OH2           -20.1995262176       33.0221003478       57.4406981923  TIP3      5472            0.0000000000
     38667      5664  TIP3      H1            -21.0946921701       32.9756002416       57.8311054439  TIP3      5472            0.0000000000
     38668      5664  TIP3      H2            -19.8057939982       33.8089185986       57.8855820824  TIP3      5472            0.0000000000
     38669      5665  TIP3      OH2           -18.8766360616       31.3177475776       42.8731344827  TIP3      5473            0.0000000000
     38670      5665  TIP3      H1            -18.0313677198       31.7495264464       43.0789401192  TIP3      5473            0.0000000000
     38671      5665  TIP3      H2            -18.8930669585       30.6189054881       43.5605935822  TIP3      5473            0.0000000000
     38672      5666  TIP3      OH2           -18.5196250469       29.4230938622       44.7779893928  TIP3      5474            0.0000000000
     38673      5666  TIP3      H1            -19.2694615940       28.9180415785       45.1669411020  TIP3      5474            0.0000000000
     38674      5666  TIP3      H2            -17.9192049586       29.5484849180       45.5400189599  TIP3      5474            0.0000000000
     38675      5667  TIP3      OH2           -18.7552413573       32.1127323405       49.7826809549  TIP3      5475            0.0000000000
     38676      5667  TIP3      H1            -17.9529177853       31.7398967603       49.3793630509  TIP3      5475            0.0000000000
     38677      5667  TIP3      H2            -18.6162638490       33.0668363499       49.6060721230  TIP3      5475            0.0000000000
     38678      5668  TIP3      OH2           -20.2679678817       34.9986853606       52.0781813410  TIP3      5476            0.0000000000
     38679      5668  TIP3      H1            -20.9642457703       35.3801978536       52.6116383960  TIP3      5476            0.0000000000
     38680      5668  TIP3      H2            -20.7670177546       34.6425764984       51.3055295507  TIP3      5476            0.0000000000
     38681      5669  TIP3      OH2           -18.2209119006       29.2440049693       41.1560525133  TIP3      5477            0.0000000000
     38682      5669  TIP3      H1            -18.7915596057       29.6066642051       40.4386131305  TIP3      5477            0.0000000000
     38683      5669  TIP3      H2            -18.3163109056       29.9546424359       41.8203343790  TIP3      5477            0.0000000000
     38684      5670  TIP3      OH2           -19.8469016983       26.4802600418       39.6715275229  TIP3      5478            0.0000000000
     38685      5670  TIP3      H1            -19.7935976915       27.1508239332       38.9777189472  TIP3      5478            0.0000000000
     38686      5670  TIP3      H2            -20.0198243582       25.6454436445       39.1915301142  TIP3      5478            0.0000000000
     38687      5671  TIP3      OH2           -20.6979718330       27.8953802000       45.3411827058  TIP3      5479            0.0000000000
     38688      5671  TIP3      H1            -20.8478104408       26.9409317695       45.3024261929  TIP3      5479            0.0000000000
     38689      5671  TIP3      H2            -21.0320198235       28.1116257764       46.2307009200  TIP3      5479            0.0000000000
     38690      5672  TIP3      OH2           -35.6758361415       29.9715714787       49.3218161208  TIP3      5480            0.0000000000
     38691      5672  TIP3      H1            -35.4734093478       29.9257268985       48.3640402827  TIP3      5480            0.0000000000
     38692      5672  TIP3      H2            -34.7943467516       29.8561733577       49.7410103737  TIP3      5480            0.0000000000
     38693      5673  TIP3      OH2           -19.8386074239       29.8642425170       55.0297016327  TIP3      5481            0.0000000000
     38694      5673  TIP3      H1            -19.2280059805       29.1081722594       55.1645052841  TIP3      5481            0.0000000000
     38695      5673  TIP3      H2            -19.2338516167       30.6369039587       55.0362142738  TIP3      5481            0.0000000000
     38696      5674  TIP3      OH2           -18.3363315228       27.7437975922       55.6817241459  TIP3      5482            0.0000000000
     38697      5674  TIP3      H1            -19.2197621291       27.3455361392       55.5269189710  TIP3      5482            0.0000000000
     38698      5674  TIP3      H2            -17.7669122010       26.9605101698       55.6048818918  TIP3      5482            0.0000000000
     38699      5675  TIP3      OH2           -20.5959646142       23.9247969038       38.8161357601  TIP3      5483            0.0000000000
     38700      5675  TIP3      H1            -20.0100827559       23.4973514006       39.4663566557  TIP3      5483            0.0000000000
     38701      5675  TIP3      H2            -21.4738674605       23.5179893170       38.9655976262  TIP3      5483            0.0000000000
     38702      5676  TIP3      OH2           -21.0512021793       25.4782043444       43.7671671593  TIP3      5484            0.0000000000
     38703      5676  TIP3      H1            -20.7314737730       24.5572356809       43.9181043013  TIP3      5484            0.0000000000
     38704      5676  TIP3      H2            -20.2401357534       25.8898003093       43.4386618457  TIP3      5484            0.0000000000
     38705      5677  TIP3      OH2           -20.3934262557       26.0230931571       49.2435164659  TIP3      5485            0.0000000000
     38706      5677  TIP3      H1            -19.4344942893       26.2558032978       49.2284233408  TIP3      5485            0.0000000000
     38707      5677  TIP3      H2            -20.5812993751       26.1646339141       50.1828111341  TIP3      5485            0.0000000000
     38708      5678  TIP3      OH2           -20.3235327794       26.7450446613       52.0324990382  TIP3      5486            0.0000000000
     38709      5678  TIP3      H1            -21.2096972612       27.0341239164       52.3392740842  TIP3      5486            0.0000000000
     38710      5678  TIP3      H2            -19.8925112828       27.6047397873       51.8018106253  TIP3      5486            0.0000000000
     38711      5679  TIP3      OH2           -35.7974577902       25.1442652795       55.5220141519  TIP3      5487            0.0000000000
     38712      5679  TIP3      H1            -34.9102206021       24.9523825716       55.8589827121  TIP3      5487            0.0000000000
     38713      5679  TIP3      H2            -36.3787707668       24.4700483257       55.9534134872  TIP3      5487            0.0000000000
     38714      5680  TIP3      OH2           -18.0544148412       20.8102864585       57.3627291626  TIP3      5488            0.0000000000
     38715      5680  TIP3      H1            -17.7020807437       20.1490735566       56.7421498042  TIP3      5488            0.0000000000
     38716      5680  TIP3      H2            -17.9525073470       21.6247391118       56.8305726586  TIP3      5488            0.0000000000
     38717      5681  TIP3      OH2           -20.3554168905       22.7689006598       43.8447743180  TIP3      5489            0.0000000000
     38718      5681  TIP3      H1            -20.1457363685       22.3324170125       44.6987353107  TIP3      5489            0.0000000000
     38719      5681  TIP3      H2            -20.9588746208       22.1291685702       43.4094124048  TIP3      5489            0.0000000000
     38720      5682  TIP3      OH2           -34.8502182875       23.5275032543       48.3959952516  TIP3      5490            0.0000000000
     38721      5682  TIP3      H1            -34.3573300198       22.7399379824       48.6945834061  TIP3      5490            0.0000000000
     38722      5682  TIP3      H2            -34.3064547728       24.2296890455       48.8017942239  TIP3      5490            0.0000000000
     38723      5683  TIP3      OH2           -36.0222939757       27.3311180708       49.7991966653  TIP3      5491            0.0000000000
     38724      5683  TIP3      H1            -35.9724595345       26.8986556197       48.9190562494  TIP3      5491            0.0000000000
     38725      5683  TIP3      H2            -35.9376563763       28.2456210306       49.5202789421  TIP3      5491            0.0000000000
     38726      5684  TIP3      OH2           -18.5332354267       22.9080902157       55.7181198944  TIP3      5492            0.0000000000
     38727      5684  TIP3      H1            -19.4708820777       23.1800549266       55.6661990563  TIP3      5492            0.0000000000
     38728      5684  TIP3      H2            -18.5006253694       22.3572407019       54.9210858320  TIP3      5492            0.0000000000
     38729      5685  TIP3      OH2           -18.5424466034       22.8019249645       40.3992310054  TIP3      5493            0.0000000000
     38730      5685  TIP3      H1            -18.1318936121       22.0898952788       39.8612981768  TIP3      5493            0.0000000000
     38731      5685  TIP3      H2            -17.8366667676       23.4641164240       40.4488146114  TIP3      5493            0.0000000000
     38732      5686  TIP3      OH2           -35.7789252384       22.7832684683       43.0637505345  TIP3      5494            0.0000000000
     38733      5686  TIP3      H1            -36.7154107990       22.9790079549       43.2026849534  TIP3      5494            0.0000000000
     38734      5686  TIP3      H2            -35.5357218901       23.5485869838       42.5050607523  TIP3      5494            0.0000000000
     38735      5687  TIP3      OH2            37.0065898951       21.4976892172       52.0342237623  TIP3      5495            0.0000000000
     38736      5687  TIP3      H1             36.2342254462       21.2477768312       52.5563583859  TIP3      5495            0.0000000000
     38737      5687  TIP3      H2             36.5301615494       21.9839792487       51.3473182936  TIP3      5495            0.0000000000
     38738      5688  TIP3      OH2           -34.0975225439       34.7585122316       55.9789355294  TIP3      5496            0.0000000000
     38739      5688  TIP3      H1            -34.9614172530       34.8921025906       55.5741252770  TIP3      5496            0.0000000000
     38740      5688  TIP3      H2            -34.3176800823       34.5815677865       56.8991012486  TIP3      5496            0.0000000000
     38741      5689  TIP3      OH2           -31.0472551327       35.7129871009       52.3526679182  TIP3      5497            0.0000000000
     38742      5689  TIP3      H1            -31.5541522332       36.4401777763       51.9495632111  TIP3      5497            0.0000000000
     38743      5689  TIP3      H2            -30.2200064936       35.6763922871       51.8623926590  TIP3      5497            0.0000000000
     38744      5690  TIP3      OH2           -19.5133115509       20.9983938135       53.5715300145  TIP3      5498            0.0000000000
     38745      5690  TIP3      H1            -20.3417430685       21.2973661090       53.1593670952  TIP3      5498            0.0000000000
     38746      5690  TIP3      H2            -19.3454740634       20.1755997853       53.0539263653  TIP3      5498            0.0000000000
     38747      5691  TIP3      OH2           -31.9153200769       36.0159954428       47.6115748902  TIP3      5499            0.0000000000
     38748      5691  TIP3      H1            -32.3502082195       35.2860531651       48.0859972852  TIP3      5499            0.0000000000
     38749      5691  TIP3      H2            -31.3533420227       36.3941571251       48.3113290103  TIP3      5499            0.0000000000
     38750      5692  TIP3      OH2           -26.0758111867       22.4045673615       47.8854385579  TIP3      5500            0.0000000000
     38751      5692  TIP3      H1            -26.8159962029       21.8175311600       48.1203876304  TIP3      5500            0.0000000000
     38752      5692  TIP3      H2            -25.5852707644       21.8809414332       47.2505278727  TIP3      5500            0.0000000000
     38753      5693  TIP3      OH2           -20.9863297952       20.4730797188       47.9177364279  TIP3      5501            0.0000000000
     38754      5693  TIP3      H1            -20.3758108696       21.0657130760       47.4112251161  TIP3      5501            0.0000000000
     38755      5693  TIP3      H2            -21.8695951779       20.8328541220       47.6888591284  TIP3      5501            0.0000000000
     38756      5694  TIP3      OH2           -19.3194383492       21.7230782478       46.1944261326  TIP3      5502            0.0000000000
     38757      5694  TIP3      H1            -18.6308403426       21.1471907505       45.7803497211  TIP3      5502            0.0000000000
     38758      5694  TIP3      H2            -18.8112297430       22.5590766381       46.3024796045  TIP3      5502            0.0000000000
     38759      5695  TIP3      OH2           -33.7214612661       21.0430452141       45.7025685590  TIP3      5503            0.0000000000
     38760      5695  TIP3      H1            -34.5351046239       20.8478029005       45.1835353275  TIP3      5503            0.0000000000
     38761      5695  TIP3      H2            -33.2719031020       20.1807026239       45.6678839661  TIP3      5503            0.0000000000
     38762      5696  TIP3      OH2           -34.9441559263       20.7793856498       41.3945446112  TIP3      5504            0.0000000000
     38763      5696  TIP3      H1            -34.4659766671       21.4558399452       40.8805213532  TIP3      5504            0.0000000000
     38764      5696  TIP3      H2            -35.5378428401       21.3473748348       41.9327920353  TIP3      5504            0.0000000000
     38765      5697  TIP3      OH2           -29.2630759156       20.8726521350       45.4417627758  TIP3      5505            0.0000000000
     38766      5697  TIP3      H1            -28.4135279620       21.3682849250       45.4241092914  TIP3      5505            0.0000000000
     38767      5697  TIP3      H2            -29.3288200029       20.8023115173       46.4011705787  TIP3      5505            0.0000000000
     38768      5698  TIP3      OH2           -23.5594211373       20.9943015754       47.1111136658  TIP3      5506            0.0000000000
     38769      5698  TIP3      H1            -23.6206527628       21.1100098301       46.1544100100  TIP3      5506            0.0000000000
     38770      5698  TIP3      H2            -23.9742862980       20.1066852665       47.2471595527  TIP3      5506            0.0000000000
     38771      5699  TIP3      OH2           -22.2957953007       21.0327456135       42.8278525287  TIP3      5507            0.0000000000
     38772      5699  TIP3      H1            -23.0483651713       21.6091418781       42.6149615001  TIP3      5507            0.0000000000
     38773      5699  TIP3      H2            -22.7445197030       20.1728859958       43.0154768099  TIP3      5507            0.0000000000
     38774      5700  TIP3      OH2           -33.1658981260       22.7348013534       39.9730944843  TIP3      5508            0.0000000000
     38775      5700  TIP3      H1            -32.6380498733       22.1656801350       39.3848650626  TIP3      5508            0.0000000000
     38776      5700  TIP3      H2            -32.4649229426       23.0819308231       40.5540174086  TIP3      5508            0.0000000000
     38777      5701  TIP3      OH2           -28.2218999413       22.9837756526       42.3967096305  TIP3      5509            0.0000000000
     38778      5701  TIP3      H1            -27.8348974320       22.4243170522       43.0827374088  TIP3      5509            0.0000000000
     38779      5701  TIP3      H2            -28.0517640852       23.8641845498       42.8058199390  TIP3      5509            0.0000000000
     38780      5702  TIP3      OH2           -33.9917532657       21.6559222305       55.3076012930  TIP3      5510            0.0000000000
     38781      5702  TIP3      H1            -34.2453028389       20.7406146600       55.5202245749  TIP3      5510            0.0000000000
     38782      5702  TIP3      H2            -33.0099153209       21.5506760709       55.4251020087  TIP3      5510            0.0000000000
     38783      5703  TIP3      OH2           -31.8548801591       20.9780421321       56.8462167561  TIP3      5511            0.0000000000
     38784      5703  TIP3      H1            -30.9946950502       20.6363118846       56.5284729838  TIP3      5511            0.0000000000
     38785      5703  TIP3      H2            -32.2569668911       20.1583838321       57.1789648934  TIP3      5511            0.0000000000
     38786      5704  TIP3      OH2           -23.4614703869       20.2622710627       56.9498535795  TIP3      5512            0.0000000000
     38787      5704  TIP3      H1            -23.3699020960       19.7884285006       57.7984553421  TIP3      5512            0.0000000000
     38788      5704  TIP3      H2            -22.5461031093       20.2283171151       56.6048879288  TIP3      5512            0.0000000000
     38789      5705  TIP3      OH2           -20.4332173379      -36.7602390997       55.7470077718  TIP3      5513            0.0000000000
     38790      5705  TIP3      H1            -21.0570013825      -36.8882310508       55.0284746525  TIP3      5513            0.0000000000
     38791      5705  TIP3      H2            -20.2936401678      -35.8007398325       55.7417655441  TIP3      5513            0.0000000000
     38792      5706  TIP3      OH2            -5.8137373984       30.1589529803       45.5462838343  TIP3      5514            0.0000000000
     38793      5706  TIP3      H1             -5.8331192026       31.1437356651       45.5345918540  TIP3      5514            0.0000000000
     38794      5706  TIP3      H2             -6.5408184068       29.9321991991       44.9452655792  TIP3      5514            0.0000000000
     38795      5707  TIP3      OH2            -6.9530008664       29.4446847998       49.0612599093  TIP3      5515            0.0000000000
     38796      5707  TIP3      H1             -6.9690159480       28.7951129035       49.7778154961  TIP3      5515            0.0000000000
     38797      5707  TIP3      H2             -7.3014522107       28.9348830492       48.3093604754  TIP3      5515            0.0000000000
     38798      5708  TIP3      OH2           -14.6025191455       29.1225460008       50.6134969661  TIP3      5516            0.0000000000
     38799      5708  TIP3      H1            -14.5182302881       28.4349811075       51.3069804524  TIP3      5516            0.0000000000
     38800      5708  TIP3      H2            -13.8523732472       29.6923132935       50.8363683679  TIP3      5516            0.0000000000
     38801      5709  TIP3      OH2            -3.2709430310       32.3802460771       47.3560173588  TIP3      5517            0.0000000000
     38802      5709  TIP3      H1             -3.6890671352       31.6669969810       47.8458215718  TIP3      5517            0.0000000000
     38803      5709  TIP3      H2             -3.2296135450       33.0991954574       48.0120202147  TIP3      5517            0.0000000000
     38804      5710  TIP3      OH2           -13.6579982593       33.5748392827       49.1435151450  TIP3      5518            0.0000000000
     38805      5710  TIP3      H1            -13.9911483431       32.7183451943       48.8051926950  TIP3      5518            0.0000000000
     38806      5710  TIP3      H2            -12.7056709378       33.3817557157       49.1481003977  TIP3      5518            0.0000000000
     38807      5711  TIP3      OH2           -17.0377595500       27.1250382563       44.6061689924  TIP3      5519            0.0000000000
     38808      5711  TIP3      H1            -17.4735881285       27.9955584015       44.5399923983  TIP3      5519            0.0000000000
     38809      5711  TIP3      H2            -17.5993896260       26.5844975288       44.0347837964  TIP3      5519            0.0000000000
     38810      5712  TIP3      OH2           -16.3233983235       29.3523848081       46.7532266522  TIP3      5520            0.0000000000
     38811      5712  TIP3      H1            -16.0501464604       28.5298878779       47.2015959351  TIP3      5520            0.0000000000
     38812      5712  TIP3      H2            -15.6308657384       29.4587038551       46.0846982194  TIP3      5520            0.0000000000
     38813      5713  TIP3      OH2            -8.5970925569       31.8209620573       49.5451191283  TIP3      5521            0.0000000000
     38814      5713  TIP3      H1             -8.2441603555       31.2154608017       48.8738777220  TIP3      5521            0.0000000000
     38815      5713  TIP3      H2             -7.7814501556       32.0208299052       50.0376976891  TIP3      5521            0.0000000000
     38816      5714  TIP3      OH2             0.0137451867       23.5095002941       50.2553482503  TIP3      5522            0.0000000000
     38817      5714  TIP3      H1              0.1938790506       24.0940582662       51.0228852794  TIP3      5522            0.0000000000
     38818      5714  TIP3      H2              0.5850637429       23.9269985924       49.5950819603  TIP3      5522            0.0000000000
     38819      5715  TIP3      OH2            -5.4201320968       26.3076601656       49.8430434517  TIP3      5523            0.0000000000
     38820      5715  TIP3      H1             -5.2436524856       25.3509403987       49.8486057449  TIP3      5523            0.0000000000
     38821      5715  TIP3      H2             -5.5142606431       26.4530726200       48.8818916764  TIP3      5523            0.0000000000
     38822      5716  TIP3      OH2           -12.2926561637       24.4010821688       47.0578409491  TIP3      5524            0.0000000000
     38823      5716  TIP3      H1            -12.1882066715       25.2364617419       46.5661995463  TIP3      5524            0.0000000000
     38824      5716  TIP3      H2            -12.7017154202       23.8303059805       46.3719760953  TIP3      5524            0.0000000000
     38825      5717  TIP3      OH2            -4.5650283528       24.5446361653       45.5254978640  TIP3      5525            0.0000000000
     38826      5717  TIP3      H1             -3.8812276694       24.1549470915       46.1060089267  TIP3      5525            0.0000000000
     38827      5717  TIP3      H2             -4.0312307240       25.0257720811       44.8757800784  TIP3      5525            0.0000000000
     38828      5718  TIP3      OH2           -15.6739562549       26.8134216087       47.7956019683  TIP3      5526            0.0000000000
     38829      5718  TIP3      H1            -15.0046380522       26.2696784072       48.2507412312  TIP3      5526            0.0000000000
     38830      5718  TIP3      H2            -15.5684878566       26.4991134916       46.8844362509  TIP3      5526            0.0000000000
     38831      5719  TIP3      OH2           -10.5183025390       28.3706988776       47.1187879439  TIP3      5527            0.0000000000
     38832      5719  TIP3      H1             -9.8440087518       27.7888582586       47.5099765655  TIP3      5527            0.0000000000
     38833      5719  TIP3      H2            -11.0302059870       27.7151187756       46.6049732189  TIP3      5527            0.0000000000
     38834      5720  TIP3      OH2             0.4567719980       24.9086053911       52.5346246281  TIP3      5528            0.0000000000
     38835      5720  TIP3      H1             -0.1484495083       25.6769721650       52.4224668930  TIP3      5528            0.0000000000
     38836      5720  TIP3      H2              0.4907123737       24.8306679319       53.4945000224  TIP3      5528            0.0000000000
     38837      5721  TIP3      OH2           -13.3882709046       23.3031473922       51.1013164491  TIP3      5529            0.0000000000
     38838      5721  TIP3      H1            -13.6711502002       23.8743857079       50.3558924137  TIP3      5529            0.0000000000
     38839      5721  TIP3      H2            -14.0660965894       23.5305828771       51.7835157786  TIP3      5529            0.0000000000
     38840      5722  TIP3      OH2            -6.1190396873       32.7563275518       44.6523820303  TIP3      5530            0.0000000000
     38841      5722  TIP3      H1             -6.3524714446       32.5202012001       43.7451136393  TIP3      5530            0.0000000000
     38842      5722  TIP3      H2             -6.4048401377       33.6901069961       44.7141717199  TIP3      5530            0.0000000000
     38843      5723  TIP3      OH2           -10.8801258823       30.9239603978       51.3526261683  TIP3      5531            0.0000000000
     38844      5723  TIP3      H1            -11.5819832588       31.5728253229       51.5668607307  TIP3      5531            0.0000000000
     38845      5723  TIP3      H2            -10.1702167232       31.5178633879       51.0547939302  TIP3      5531            0.0000000000
     38846      5724  TIP3      OH2            -2.7418279954       23.8377921871       47.4269849629  TIP3      5532            0.0000000000
     38847      5724  TIP3      H1             -2.9770759501       23.0603530400       47.9433765212  TIP3      5532            0.0000000000
     38848      5724  TIP3      H2             -2.0729255438       24.2645836292       47.9911593546  TIP3      5532            0.0000000000
     38849      5725  TIP3      OH2           -13.8201999265       25.1578763278       49.1379520560  TIP3      5533            0.0000000000
     38850      5725  TIP3      H1            -13.1923983208       25.8478729540       49.4481707460  TIP3      5533            0.0000000000
     38851      5725  TIP3      H2            -13.3050608503       24.7482097421       48.3989276681  TIP3      5533            0.0000000000
     38852      5726  TIP3      OH2           -12.4130728318       32.9515184596       52.1467457627  TIP3      5534            0.0000000000
     38853      5726  TIP3      H1            -12.4786068595       33.8541097220       51.7980452768  TIP3      5534            0.0000000000
     38854      5726  TIP3      H2            -13.3001458395       32.8606958395       52.5779826103  TIP3      5534            0.0000000000
     38855      5727  TIP3      OH2           -16.3545741318       32.6146328145       42.9561237364  TIP3      5535            0.0000000000
     38856      5727  TIP3      H1            -16.6148208740       32.9301536842       42.0732781817  TIP3      5535            0.0000000000
     38857      5727  TIP3      H2            -16.2737683248       33.4422824220       43.4651970979  TIP3      5535            0.0000000000
     38858      5728  TIP3      OH2            -2.7329172635       34.2517035577       49.7634147187  TIP3      5536            0.0000000000
     38859      5728  TIP3      H1             -3.7131290661       34.3326406101       49.8533426020  TIP3      5536            0.0000000000
     38860      5728  TIP3      H2             -2.4500390317       35.1440068769       49.4929327616  TIP3      5536            0.0000000000
     38861      5729  TIP3      OH2            -2.4182327994       22.5144538938       51.1030393549  TIP3      5537            0.0000000000
     38862      5729  TIP3      H1             -3.1413874325       23.1476624270       51.0077776044  TIP3      5537            0.0000000000
     38863      5729  TIP3      H2             -1.7032878729       22.9322238817       50.5784383810  TIP3      5537            0.0000000000
     38864      5730  TIP3      OH2            -9.4509507865       20.6355787165       48.5698636205  TIP3      5538            0.0000000000
     38865      5730  TIP3      H1             -9.5983100271       19.6728872503       48.4898137671  TIP3      5538            0.0000000000
     38866      5730  TIP3      H2            -10.3298772871       20.9429289324       48.8719383346  TIP3      5538            0.0000000000
     38867      5731  TIP3      OH2            -4.4475616020       35.7082829515       46.1227103272  TIP3      5539            0.0000000000
     38868      5731  TIP3      H1             -3.8825852941       35.0953245726       45.6138163099  TIP3      5539            0.0000000000
     38869      5731  TIP3      H2             -4.0501418784       36.5402656700       45.8792235354  TIP3      5539            0.0000000000
     38870      5732  TIP3      OH2            -3.2308330548       33.8423259870       44.8162232162  TIP3      5540            0.0000000000
     38871      5732  TIP3      H1             -3.5855875760       33.1837216192       44.2114356140  TIP3      5540            0.0000000000
     38872      5732  TIP3      H2             -3.2345042342       33.3895735809       45.6790087533  TIP3      5540            0.0000000000
     38873      5733  TIP3      OH2            -1.6431518393       32.5761591745       53.3248148784  TIP3      5541            0.0000000000
     38874      5733  TIP3      H1             -1.5174155504       31.8982849066       52.6238497638  TIP3      5541            0.0000000000
     38875      5733  TIP3      H2             -1.4211059393       33.3979540511       52.8540180507  TIP3      5541            0.0000000000
     38876      5734  TIP3      OH2            -7.1543479094       29.4437026276       43.0833949017  TIP3      5542            0.0000000000
     38877      5734  TIP3      H1             -7.8462095821       30.0109194506       42.7037383157  TIP3      5542            0.0000000000
     38878      5734  TIP3      H2             -6.4439537710       29.5046656395       42.4139535876  TIP3      5542            0.0000000000
     38879      5735  TIP3      OH2            -7.0715541976       27.9988675682       40.0820758780  TIP3      5543            0.0000000000
     38880      5735  TIP3      H1             -6.3706709216       27.9719833640       40.7523666810  TIP3      5543            0.0000000000
     38881      5735  TIP3      H2             -6.7641861266       27.2779743173       39.5200578655  TIP3      5543            0.0000000000
     38882      5736  TIP3      OH2             0.2365968638       28.8498514258       51.3551546976  TIP3      5544            0.0000000000
     38883      5736  TIP3      H1             -0.4208371588       29.5731480952       51.3952039954  TIP3      5544            0.0000000000
     38884      5736  TIP3      H2              0.7313714535       29.0842538341       50.5492089925  TIP3      5544            0.0000000000
     38885      5737  TIP3      OH2            -3.6755880693       29.6574696352       44.0064163664  TIP3      5545            0.0000000000
     38886      5737  TIP3      H1             -4.4523140215       29.8611107271       44.5852739145  TIP3      5545            0.0000000000
     38887      5737  TIP3      H2             -3.2415380017       28.9393332156       44.4993849108  TIP3      5545            0.0000000000
     38888      5738  TIP3      OH2            -3.7762886260       27.8027087856       53.1228595068  TIP3      5546            0.0000000000
     38889      5738  TIP3      H1             -3.7698812977       28.6218131466       53.6445994095  TIP3      5546            0.0000000000
     38890      5738  TIP3      H2             -4.4058315668       28.0941532917       52.4307722780  TIP3      5546            0.0000000000
     38891      5739  TIP3      OH2           -12.0952769595       30.2948725658       45.9155427336  TIP3      5547            0.0000000000
     38892      5739  TIP3      H1            -12.4143845624       29.9062095270       45.0652580961  TIP3      5547            0.0000000000
     38893      5739  TIP3      H2            -11.4791188992       29.6046177967       46.2479167055  TIP3      5547            0.0000000000
     38894      5740  TIP3      OH2           -10.7702740785       33.6991149046       48.5815241722  TIP3      5548            0.0000000000
     38895      5740  TIP3      H1            -10.7704060714       33.1543574227       47.7868973585  TIP3      5548            0.0000000000
     38896      5740  TIP3      H2            -10.0027680491       33.3320821826       49.0585360430  TIP3      5548            0.0000000000
     38897      5741  TIP3      OH2           -11.7679333957       29.0434288228       49.5760267072  TIP3      5549            0.0000000000
     38898      5741  TIP3      H1            -11.2169013943       29.1412040055       48.7745831906  TIP3      5549            0.0000000000
     38899      5741  TIP3      H2            -11.3755841023       29.7066653131       50.1865826574  TIP3      5549            0.0000000000
     38900      5742  TIP3      OH2            -5.3169991235       34.6116618005       50.3026381540  TIP3      5550            0.0000000000
     38901      5742  TIP3      H1             -5.6855282639       35.2418365876       50.9165504521  TIP3      5550            0.0000000000
     38902      5742  TIP3      H2             -5.6109791140       33.7558659211       50.6983641786  TIP3      5550            0.0000000000
     38903      5743  TIP3      OH2           -10.8148681132       33.4792287203       54.2748268552  TIP3      5551            0.0000000000
     38904      5743  TIP3      H1            -11.2476799561       34.2225067160       54.7527370144  TIP3      5551            0.0000000000
     38905      5743  TIP3      H2            -11.4793051232       33.2473103445       53.5734403199  TIP3      5551            0.0000000000
     38906      5744  TIP3      OH2            -4.8553271219       28.8861771377       41.6664226041  TIP3      5552            0.0000000000
     38907      5744  TIP3      H1             -4.2762970011       29.0022604712       42.4587482070  TIP3      5552            0.0000000000
     38908      5744  TIP3      H2             -4.3684712991       29.3183534618       40.9335026616  TIP3      5552            0.0000000000
     38909      5745  TIP3      OH2           -13.8698985654       29.6344253181       53.4264161526  TIP3      5553            0.0000000000
     38910      5745  TIP3      H1            -13.8160012189       30.3035698559       54.1332296122  TIP3      5553            0.0000000000
     38911      5745  TIP3      H2            -14.8125554917       29.7218405392       53.2148858251  TIP3      5553            0.0000000000
     38912      5746  TIP3      OH2            -7.1607398581       35.5294773388       45.1427840952  TIP3      5554            0.0000000000
     38913      5746  TIP3      H1             -6.6656831672       35.8510339792       45.9041266703  TIP3      5554            0.0000000000
     38914      5746  TIP3      H2             -7.6682531630       36.3003726746       44.8694478534  TIP3      5554            0.0000000000
     38915      5747  TIP3      OH2           -12.5828233847       35.4245637494       55.0060364077  TIP3      5555            0.0000000000
     38916      5747  TIP3      H1            -12.6568293012       35.3954192336       54.0287860654  TIP3      5555            0.0000000000
     38917      5747  TIP3      H2            -13.5224406082       35.3576788544       55.2746028683  TIP3      5555            0.0000000000
     38918      5748  TIP3      OH2            -1.0467386965       20.5626504831       41.5349748819  TIP3      5556            0.0000000000
     38919      5748  TIP3      H1             -2.0021521383       20.6598582335       41.8044082808  TIP3      5556            0.0000000000
     38920      5748  TIP3      H2             -0.8992834412       21.4256823875       41.1224821539  TIP3      5556            0.0000000000
     38921      5749  TIP3      OH2           -13.1340164838       29.3156821994       43.5455804926  TIP3      5557            0.0000000000
     38922      5749  TIP3      H1            -13.4111584233       30.1002295721       43.0254213393  TIP3      5557            0.0000000000
     38923      5749  TIP3      H2            -13.7796833457       28.6502535328       43.2968947859  TIP3      5557            0.0000000000
     38924      5750  TIP3      OH2             0.0510550383       34.8945245247       39.9274721742  TIP3      5558            0.0000000000
     38925      5750  TIP3      H1              0.1320377384       35.8555703004       40.0533131332  TIP3      5558            0.0000000000
     38926      5750  TIP3      H2              0.9810046598       34.6149340463       39.9157301613  TIP3      5558            0.0000000000
     38927      5751  TIP3      OH2           -17.0437903915       31.7557110279       52.4293618607  TIP3      5559            0.0000000000
     38928      5751  TIP3      H1            -17.4753155234       31.6666981089       51.5604920786  TIP3      5559            0.0000000000
     38929      5751  TIP3      H2            -16.9544026360       30.8059280901       52.6446326771  TIP3      5559            0.0000000000
     38930      5752  TIP3      OH2           -17.2414938041       34.4415437564       49.2449870736  TIP3      5560            0.0000000000
     38931      5752  TIP3      H1            -16.2854348919       34.3957240835       49.1543238429  TIP3      5560            0.0000000000
     38932      5752  TIP3      H2            -17.3360303455       35.2734380771       49.7342226588  TIP3      5560            0.0000000000
     38933      5753  TIP3      OH2             0.9419110717       35.1803282943       54.9671405949  TIP3      5561            0.0000000000
     38934      5753  TIP3      H1              0.8390280526       34.2242470314       54.8420843139  TIP3      5561            0.0000000000
     38935      5753  TIP3      H2              0.0530314412       35.4440406942       55.2865187042  TIP3      5561            0.0000000000
     38936      5754  TIP3      OH2            -8.0955524568       34.7464713672       53.7429369057  TIP3      5562            0.0000000000
     38937      5754  TIP3      H1             -7.9922457217       35.5538311535       54.2575156549  TIP3      5562            0.0000000000
     38938      5754  TIP3      H2             -8.9365308528       34.3452958627       54.0302918897  TIP3      5562            0.0000000000
     38939      5755  TIP3      OH2            -1.8885378747       26.6554708674       55.3632351013  TIP3      5563            0.0000000000
     38940      5755  TIP3      H1             -2.3641748506       27.1066870484       54.6467847454  TIP3      5563            0.0000000000
     38941      5755  TIP3      H2             -1.9035502677       25.7361915590       55.0579360826  TIP3      5563            0.0000000000
     38942      5756  TIP3      OH2           -14.7422690716       33.0777491800       53.3680389240  TIP3      5564            0.0000000000
     38943      5756  TIP3      H1            -14.5332633932       32.6969894662       54.2455571147  TIP3      5564            0.0000000000
     38944      5756  TIP3      H2            -15.6116303343       32.6866430228       53.1439476334  TIP3      5564            0.0000000000
     38945      5757  TIP3      OH2           -12.0770196078       21.5365451845       49.3315082804  TIP3      5565            0.0000000000
     38946      5757  TIP3      H1            -12.9732572655       21.4126785297       48.9507840130  TIP3      5565            0.0000000000
     38947      5757  TIP3      H2            -12.2117873112       22.3692052107       49.8124962227  TIP3      5565            0.0000000000
     38948      5758  TIP3      OH2            -7.4241717902       21.2042741791       52.6782814973  TIP3      5566            0.0000000000
     38949      5758  TIP3      H1             -7.0321163306       20.7819037033       53.4652450204  TIP3      5566            0.0000000000
     38950      5758  TIP3      H2             -8.3963287756       21.0892421954       52.8248888725  TIP3      5566            0.0000000000
     38951      5759  TIP3      OH2            -4.1370891021       25.0524483483       53.5804931171  TIP3      5567            0.0000000000
     38952      5759  TIP3      H1             -4.7018742710       24.8379192732       54.3618797105  TIP3      5567            0.0000000000
     38953      5759  TIP3      H2             -4.3216118518       25.9797065253       53.3521236975  TIP3      5567            0.0000000000
     38954      5760  TIP3      OH2            -3.3533422936       29.8257990640       39.4908847793  TIP3      5568            0.0000000000
     38955      5760  TIP3      H1             -3.4098066978       29.6863873996       38.5187260880  TIP3      5568            0.0000000000
     38956      5760  TIP3      H2             -2.5314481235       30.3373318210       39.5188526178  TIP3      5568            0.0000000000
     38957      5761  TIP3      OH2            -7.7965774463       23.7961965078       39.9783696122  TIP3      5569            0.0000000000
     38958      5761  TIP3      H1             -8.0791557747       23.7354490321       40.9097612376  TIP3      5569            0.0000000000
     38959      5761  TIP3      H2             -8.0864563726       22.9106649127       39.6920257584  TIP3      5569            0.0000000000
     38960      5762  TIP3      OH2           -11.9619468488       26.5171939843       50.5795637003  TIP3      5570            0.0000000000
     38961      5762  TIP3      H1            -12.7045675286       26.5040859714       51.2098600806  TIP3      5570            0.0000000000
     38962      5762  TIP3      H2            -12.0135618321       27.4224890349       50.1988972326  TIP3      5570            0.0000000000
     38963      5763  TIP3      OH2           -12.0197201818       26.6452594311       45.4336718205  TIP3      5571            0.0000000000
     38964      5763  TIP3      H1            -12.9518872140       26.3778752131       45.3021845687  TIP3      5571            0.0000000000
     38965      5763  TIP3      H2            -11.6299241802       26.3398850982       44.5891853878  TIP3      5571            0.0000000000
     38966      5764  TIP3      OH2            -6.4762011395       27.1785768223       44.2456662023  TIP3      5572            0.0000000000
     38967      5764  TIP3      H1             -6.8756690442       27.9707542533       43.8290270441  TIP3      5572            0.0000000000
     38968      5764  TIP3      H2             -5.8294885300       26.9096783299       43.5619044605  TIP3      5572            0.0000000000
     38969      5765  TIP3      OH2            -7.4320486950       27.3416875904       55.6417894801  TIP3      5573            0.0000000000
     38970      5765  TIP3      H1             -7.9574239900       26.5664505337       55.9530678449  TIP3      5573            0.0000000000
     38971      5765  TIP3      H2             -6.5941009389       27.2211403979       56.1188305640  TIP3      5573            0.0000000000
     38972      5766  TIP3      OH2            -5.4560114065       26.6262945953       47.0555808555  TIP3      5574            0.0000000000
     38973      5766  TIP3      H1             -5.7351402465       27.1858118138       46.3081201255  TIP3      5574            0.0000000000
     38974      5766  TIP3      H2             -5.3525529899       25.7758254915       46.5758293301  TIP3      5574            0.0000000000
     38975      5767  TIP3      OH2           -14.3454973993       26.7621490727       52.2499977631  TIP3      5575            0.0000000000
     38976      5767  TIP3      H1            -14.2615611430       27.1700922385       53.1293928727  TIP3      5575            0.0000000000
     38977      5767  TIP3      H2            -14.7852191952       25.9233946765       52.4611700087  TIP3      5575            0.0000000000
     38978      5768  TIP3      OH2           -10.9734379577       24.1586704357       39.1045382768  TIP3      5576            0.0000000000
     38979      5768  TIP3      H1            -11.4271292769       23.7392825476       39.8644046531  TIP3      5576            0.0000000000
     38980      5768  TIP3      H2            -11.6832544192       24.5908158816       38.6143036967  TIP3      5576            0.0000000000
     38981      5769  TIP3      OH2           -17.6859460592       23.8719634866       46.2424454824  TIP3      5577            0.0000000000
     38982      5769  TIP3      H1            -17.0017563043       23.8322604591       46.9406940388  TIP3      5577            0.0000000000
     38983      5769  TIP3      H2            -17.2387783499       23.4979385060       45.4592424108  TIP3      5577            0.0000000000
     38984      5770  TIP3      OH2           -16.4222560978       24.5891463177       41.5865944980  TIP3      5578            0.0000000000
     38985      5770  TIP3      H1            -15.9086040642       25.2026588747       41.0281549098  TIP3      5578            0.0000000000
     38986      5770  TIP3      H2            -17.1090753366       25.2136108714       41.9062703293  TIP3      5578            0.0000000000
     38987      5771  TIP3      OH2            -6.2552952550       28.2053943545       51.6042113669  TIP3      5579            0.0000000000
     38988      5771  TIP3      H1             -5.8762792685       27.5186445497       51.0183345560  TIP3      5579            0.0000000000
     38989      5771  TIP3      H2             -6.7225492088       27.6780013780       52.2766705123  TIP3      5579            0.0000000000
     38990      5772  TIP3      OH2            -9.4796519869       24.2456219011       46.4742255462  TIP3      5580            0.0000000000
     38991      5772  TIP3      H1            -10.4142003394       24.1873984421       46.7612203823  TIP3      5580            0.0000000000
     38992      5772  TIP3      H2             -8.9718060603       24.0055624331       47.2630326217  TIP3      5580            0.0000000000
     38993      5773  TIP3      OH2           -14.6415342608       25.7293008812       45.3093459796  TIP3      5581            0.0000000000
     38994      5773  TIP3      H1            -15.5252470382       25.8879558809       44.9176227858  TIP3      5581            0.0000000000
     38995      5773  TIP3      H2            -14.3480649544       24.8994837703       44.8938994693  TIP3      5581            0.0000000000
     38996      5774  TIP3      OH2           -11.0017274834       25.7759307208       42.9401153180  TIP3      5582            0.0000000000
     38997      5774  TIP3      H1            -10.0426827172       25.8827282802       43.1038881549  TIP3      5582            0.0000000000
     38998      5774  TIP3      H2            -11.2178874470       26.4554466785       42.2815656332  TIP3      5582            0.0000000000
     38999      5775  TIP3      OH2            -5.0419177319       23.4161447821       49.6843381262  TIP3      5583            0.0000000000
     39000      5775  TIP3      H1             -5.7352165010       23.4653617280       50.3783387626  TIP3      5583            0.0000000000
     39001      5775  TIP3      H2             -5.5477444663       23.1571216691       48.8990244140  TIP3      5583            0.0000000000
     39002      5776  TIP3      OH2           -12.2936006768       26.9585342286       40.5241161392  TIP3      5584            0.0000000000
     39003      5776  TIP3      H1            -12.8240421734       26.5679817187       39.8090248700  TIP3      5584            0.0000000000
     39004      5776  TIP3      H2            -11.4731962017       27.1650158041       40.0501750975  TIP3      5584            0.0000000000
     39005      5777  TIP3      OH2           -14.1688113417       31.5681785323       55.5730548082  TIP3      5585            0.0000000000
     39006      5777  TIP3      H1            -13.4475416198       31.7748553716       56.1904977016  TIP3      5585            0.0000000000
     39007      5777  TIP3      H2            -14.9427697371       31.5979508199       56.1789912078  TIP3      5585            0.0000000000
     39008      5778  TIP3      OH2            -8.1697710449       26.9387742698       48.3347632873  TIP3      5586            0.0000000000
     39009      5778  TIP3      H1             -7.5719497117       26.4104154227       47.7942612920  TIP3      5586            0.0000000000
     39010      5778  TIP3      H2             -8.3167093593       26.3731607277       49.1036543885  TIP3      5586            0.0000000000
     39011      5779  TIP3      OH2           -13.1558383057       23.0851829589       44.7693972828  TIP3      5587            0.0000000000
     39012      5779  TIP3      H1            -13.4663892440       22.1613818206       44.7634354945  TIP3      5587            0.0000000000
     39013      5779  TIP3      H2            -12.3643377530       23.0166201022       44.2225310076  TIP3      5587            0.0000000000
     39014      5780  TIP3      OH2            -9.5277322226       25.2656772415       50.7361303143  TIP3      5588            0.0000000000
     39015      5780  TIP3      H1            -10.3539247024       25.7834246731       50.8321778812  TIP3      5588            0.0000000000
     39016      5780  TIP3      H2             -8.9759794802       25.6158364890       51.4634113614  TIP3      5588            0.0000000000
     39017      5781  TIP3      OH2            -8.9481009806       31.4704367199       42.4559960143  TIP3      5589            0.0000000000
     39018      5781  TIP3      H1             -9.7476469911       31.0063707753       42.1194931209  TIP3      5589            0.0000000000
     39019      5781  TIP3      H2             -9.1685284781       31.6006270071       43.3984104963  TIP3      5589            0.0000000000
     39020      5782  TIP3      OH2            -1.7507811231       30.6893705543       51.2498710844  TIP3      5590            0.0000000000
     39021      5782  TIP3      H1             -1.1916979361       31.1878176307       50.6242127504  TIP3      5590            0.0000000000
     39022      5782  TIP3      H2             -2.6122789086       30.7384464877       50.7866727249  TIP3      5590            0.0000000000
     39023      5783  TIP3      OH2            -5.0718730570       24.4191784755       40.4007813655  TIP3      5591            0.0000000000
     39024      5783  TIP3      H1             -6.0405910471       24.4480919780       40.5154308697  TIP3      5591            0.0000000000
     39025      5783  TIP3      H2             -4.7794469370       25.1314726222       41.0139793265  TIP3      5591            0.0000000000
     39026      5784  TIP3      OH2            -7.4768031888       31.7798958516       53.6782937223  TIP3      5592            0.0000000000
     39027      5784  TIP3      H1             -7.8019342944       31.3402795906       54.4715469145  TIP3      5592            0.0000000000
     39028      5784  TIP3      H2             -7.6983168169       32.7046102813       53.8044444895  TIP3      5592            0.0000000000
     39029      5785  TIP3      OH2            -4.2921244638       26.3431000643       42.1688098857  TIP3      5593            0.0000000000
     39030      5785  TIP3      H1             -3.4564951631       26.1311438406       42.6303336851  TIP3      5593            0.0000000000
     39031      5785  TIP3      H2             -4.1871608455       27.1605362662       41.6797044602  TIP3      5593            0.0000000000
     39032      5786  TIP3      OH2           -13.8364440269       30.8824158156       48.2456308518  TIP3      5594            0.0000000000
     39033      5786  TIP3      H1            -13.1499717192       30.8120506495       47.5512109814  TIP3      5594            0.0000000000
     39034      5786  TIP3      H2            -13.7712953714       30.0239739733       48.7011527426  TIP3      5594            0.0000000000
     39035      5787  TIP3      OH2            -6.8515182357       32.9371864973       41.4760724383  TIP3      5595            0.0000000000
     39036      5787  TIP3      H1             -7.1788720850       33.7989218798       41.8051016205  TIP3      5595            0.0000000000
     39037      5787  TIP3      H2             -7.5849514177       32.3377622473       41.7120734789  TIP3      5595            0.0000000000
     39038      5788  TIP3      OH2           -16.8415090315       29.2868431044       53.5058528509  TIP3      5596            0.0000000000
     39039      5788  TIP3      H1            -16.6730628653       28.8436924287       54.3596944041  TIP3      5596            0.0000000000
     39040      5788  TIP3      H2            -17.4632981557       28.6784178498       53.0680203945  TIP3      5596            0.0000000000
     39041      5789  TIP3      OH2            -9.8306773178       28.8489383703       55.6821418552  TIP3      5597            0.0000000000
     39042      5789  TIP3      H1            -10.1504777164       28.5362328881       54.8233505640  TIP3      5597            0.0000000000
     39043      5789  TIP3      H2             -8.9080049990       28.5238004332       55.6814261184  TIP3      5597            0.0000000000
     39044      5790  TIP3      OH2            -5.1599755916       34.2449766638       53.5633315296  TIP3      5598            0.0000000000
     39045      5790  TIP3      H1             -6.1006125411       34.3154437003       53.3873381163  TIP3      5598            0.0000000000
     39046      5790  TIP3      H2             -5.1821841855       34.4254945153       54.5351607513  TIP3      5598            0.0000000000
     39047      5791  TIP3      OH2             0.5268002469       26.3551392709       42.0210727945  TIP3      5599            0.0000000000
     39048      5791  TIP3      H1             -0.0457008083       26.0765753416       41.2825440452  TIP3      5599            0.0000000000
     39049      5791  TIP3      H2              0.5997326674       27.3054926895       41.7740513619  TIP3      5599            0.0000000000
     39050      5792  TIP3      OH2             0.5318836100       32.2020842953       54.8232754622  TIP3      5600            0.0000000000
     39051      5792  TIP3      H1             -0.3619930469       32.4459691680       54.4775387648  TIP3      5600            0.0000000000
     39052      5792  TIP3      H2              1.0611158277       32.1565750684       54.0008957828  TIP3      5600            0.0000000000
     39053      5793  TIP3      OH2            -1.0446647716       34.9432906729       42.6372024812  TIP3      5601            0.0000000000
     39054      5793  TIP3      H1             -1.6145010919       34.1995289847       42.7591181802  TIP3      5601            0.0000000000
     39055      5793  TIP3      H2             -0.9375660844       35.0320844066       41.6712962502  TIP3      5601            0.0000000000
     39056      5794  TIP3      OH2            -3.9718722158       30.0029419167       49.5343945377  TIP3      5602            0.0000000000
     39057      5794  TIP3      H1             -4.9144950528       29.8005978963       49.4193910483  TIP3      5602            0.0000000000
     39058      5794  TIP3      H2             -3.5467326731       29.2446051969       49.0897128221  TIP3      5602            0.0000000000
     39059      5795  TIP3      OH2           -11.4192704470       34.3032482889       45.5392677847  TIP3      5603            0.0000000000
     39060      5795  TIP3      H1            -10.9581611419       35.1465502041       45.4616381690  TIP3      5603            0.0000000000
     39061      5795  TIP3      H2            -12.3339503181       34.5386530907       45.3442830381  TIP3      5603            0.0000000000
     39062      5796  TIP3      OH2           -15.6920733821       29.1760079739       40.2046327540  TIP3      5604            0.0000000000
     39063      5796  TIP3      H1            -15.1086181656       29.8288512588       40.6281008684  TIP3      5604            0.0000000000
     39064      5796  TIP3      H2            -16.5840152186       29.4923257107       40.4477856436  TIP3      5604            0.0000000000
     39065      5797  TIP3      OH2           -10.0228678892       31.9926047121       45.1481793162  TIP3      5605            0.0000000000
     39066      5797  TIP3      H1            -10.3405896385       32.9135433491       45.2374562924  TIP3      5605            0.0000000000
     39067      5797  TIP3      H2            -10.7536758497       31.5122680514       45.5861531232  TIP3      5605            0.0000000000
     39068      5798  TIP3      OH2            -9.2856803399       35.8683530642       51.2435425037  TIP3      5606            0.0000000000
     39069      5798  TIP3      H1             -9.1410906055       36.8199069276       51.1713092325  TIP3      5606            0.0000000000
     39070      5798  TIP3      H2             -8.9758626327       35.7158208300       52.1481729470  TIP3      5606            0.0000000000
     39071      5799  TIP3      OH2            -6.0663322656       32.1889974995       51.1796547954  TIP3      5607            0.0000000000
     39072      5799  TIP3      H1             -6.4083643314       31.9702784656       52.0692198716  TIP3      5607            0.0000000000
     39073      5799  TIP3      H2             -5.4331282930       31.4765018117       51.0065663764  TIP3      5607            0.0000000000
     39074      5800  TIP3      OH2            -3.7363660579       33.2317826855       40.2364887700  TIP3      5608            0.0000000000
     39075      5800  TIP3      H1             -3.4313430255       32.8011585846       41.0570387135  TIP3      5608            0.0000000000
     39076      5800  TIP3      H2             -4.6900735719       33.0982682613       40.3548794522  TIP3      5608            0.0000000000
     39077      5801  TIP3      OH2           -15.1928110886       24.0225994606       53.0532597283  TIP3      5609            0.0000000000
     39078      5801  TIP3      H1            -16.0992782421       24.3745603524       53.0352396251  TIP3      5609            0.0000000000
     39079      5801  TIP3      H2            -15.3040008318       23.1777859653       53.5174393287  TIP3      5609            0.0000000000
     39080      5802  TIP3      OH2            -2.9631849205       31.8343876022       42.4867865429  TIP3      5610            0.0000000000
     39081      5802  TIP3      H1             -3.1898385095       31.0853174513       43.0747247349  TIP3      5610            0.0000000000
     39082      5802  TIP3      H2             -2.0179358007       31.9540679840       42.6906380216  TIP3      5610            0.0000000000
     39083      5803  TIP3      OH2           -15.5784668622       35.7718106839       51.4759753431  TIP3      5611            0.0000000000
     39084      5803  TIP3      H1            -15.2877110077       34.8581466121       51.5211007832  TIP3      5611            0.0000000000
     39085      5803  TIP3      H2            -15.3780028376       36.1161028104       52.3549218689  TIP3      5611            0.0000000000
     39086      5804  TIP3      OH2            -9.6199899828       34.3112863298       38.7452653420  TIP3      5612            0.0000000000
     39087      5804  TIP3      H1             -9.5230010566       33.5366020139       38.1679204568  TIP3      5612            0.0000000000
     39088      5804  TIP3      H2            -10.0283233009       33.8895108031       39.5321653142  TIP3      5612            0.0000000000
     39089      5805  TIP3      OH2           -10.8523518334       33.8167376654       41.2039630592  TIP3      5613            0.0000000000
     39090      5805  TIP3      H1            -10.5721980221       33.3281509410       41.9887767994  TIP3      5613            0.0000000000
     39091      5805  TIP3      H2            -10.7280836517       34.7528847784       41.4753754787  TIP3      5613            0.0000000000
     39092      5806  TIP3      OH2           -14.2895106848       31.1128989032       41.6994337029  TIP3      5614            0.0000000000
     39093      5806  TIP3      H1            -15.0057997935       31.5093727968       42.2325293365  TIP3      5614            0.0000000000
     39094      5806  TIP3      H2            -13.7871051925       31.8961338405       41.4045160041  TIP3      5614            0.0000000000
     39095      5807  TIP3      OH2            -6.4617911686       23.7962553810       52.0214942635  TIP3      5615            0.0000000000
     39096      5807  TIP3      H1             -5.7447144846       23.8557035801       52.6618142453  TIP3      5615            0.0000000000
     39097      5807  TIP3      H2             -6.8434324104       22.9189106070       52.2234200336  TIP3      5615            0.0000000000
     39098      5808  TIP3      OH2            -5.7235198245       24.3899643429       42.9243773430  TIP3      5616            0.0000000000
     39099      5808  TIP3      H1             -5.4878959711       23.8164105040       42.1872028138  TIP3      5616            0.0000000000
     39100      5808  TIP3      H2             -5.2839555863       23.8355897620       43.5976165381  TIP3      5616            0.0000000000
     39101      5809  TIP3      OH2            -7.9783269543       35.5575798193       41.9362808785  TIP3      5617            0.0000000000
     39102      5809  TIP3      H1             -8.8313881093       36.0267448664       41.9609488223  TIP3      5617            0.0000000000
     39103      5809  TIP3      H2             -7.5082161148       36.0559855707       41.2501260263  TIP3      5617            0.0000000000
     39104      5810  TIP3      OH2            -8.5341722825       25.1782704233       43.9224497158  TIP3      5618            0.0000000000
     39105      5810  TIP3      H1             -7.6798810088       25.6571372145       43.9487345664  TIP3      5618            0.0000000000
     39106      5810  TIP3      H2             -8.7275451004       24.9763418903       44.8544462389  TIP3      5618            0.0000000000
     39107      5811  TIP3      OH2            -7.9331289071       26.1409370023       53.1166402014  TIP3      5619            0.0000000000
     39108      5811  TIP3      H1             -7.8578077066       26.7012952623       53.9149363530  TIP3      5619            0.0000000000
     39109      5811  TIP3      H2             -7.2697218886       25.4472545753       53.2114893345  TIP3      5619            0.0000000000
     39110      5812  TIP3      OH2            -8.0669582267       22.3126670205       45.0112474975  TIP3      5620            0.0000000000
     39111      5812  TIP3      H1             -8.0519392003       22.9807234967       45.7014212503  TIP3      5620            0.0000000000
     39112      5812  TIP3      H2             -7.2274565430       22.5556059148       44.5246451858  TIP3      5620            0.0000000000
     39113      5813  TIP3      OH2           -10.5779994428      -36.4699085149       41.9662666463  TIP3      5621            0.0000000000
     39114      5813  TIP3      H1            -10.5466922498      -35.6813751092       41.3922481090  TIP3      5621            0.0000000000
     39115      5813  TIP3      H2            -10.8695849114      -36.0978726402       42.8128699182  TIP3      5621            0.0000000000
     39116      5814  TIP3      OH2           -11.9818212558       23.2901615738       41.5086128341  TIP3      5622            0.0000000000
     39117      5814  TIP3      H1            -12.0264352616       24.1810989967       41.9070278990  TIP3      5622            0.0000000000
     39118      5814  TIP3      H2            -11.0717982779       23.0400277932       41.7837018565  TIP3      5622            0.0000000000
     39119      5815  TIP3      OH2            -1.7558351051       24.0091848805       53.9605180814  TIP3      5623            0.0000000000
     39120      5815  TIP3      H1             -2.6826420909       24.3265039472       53.8317694419  TIP3      5623            0.0000000000
     39121      5815  TIP3      H2             -1.4542047223       23.9968705181       53.0366898570  TIP3      5623            0.0000000000
     39122      5816  TIP3      OH2            -3.1439335145       27.7942073332       47.9620050593  TIP3      5624            0.0000000000
     39123      5816  TIP3      H1             -3.9635084514       27.3396110061       47.6775704289  TIP3      5624            0.0000000000
     39124      5816  TIP3      H2             -2.6618188073       27.1114341451       48.4819372709  TIP3      5624            0.0000000000
     39125      5817  TIP3      OH2           -13.7276126730       33.7165893766       40.5603957792  TIP3      5625            0.0000000000
     39126      5817  TIP3      H1            -13.0571727993       34.3597546884       40.8329717091  TIP3      5625            0.0000000000
     39127      5817  TIP3      H2            -13.2208299127       33.2497403398       39.8713491201  TIP3      5625            0.0000000000
     39128      5818  TIP3      OH2           -15.4032385107       26.3958094422       39.7002479052  TIP3      5626            0.0000000000
     39129      5818  TIP3      H1            -15.3846347546       27.3537149611       39.9089256143  TIP3      5626            0.0000000000
     39130      5818  TIP3      H2            -16.2949863377       26.2216576742       39.3951284060  TIP3      5626            0.0000000000
     39131      5819  TIP3      OH2           -14.5864261885       21.1790438112       48.4483566058  TIP3      5627            0.0000000000
     39132      5819  TIP3      H1            -14.7791417687       21.1972019018       47.4848498393  TIP3      5627            0.0000000000
     39133      5819  TIP3      H2            -14.9994314126       20.3253175745       48.6971667314  TIP3      5627            0.0000000000
     39134      5820  TIP3      OH2           -15.6208402468       35.1059590005       44.5646209415  TIP3      5628            0.0000000000
     39135      5820  TIP3      H1            -16.4896090763       35.5285504459       44.5566872650  TIP3      5628            0.0000000000
     39136      5820  TIP3      H2            -15.1279723655       35.5903490912       43.8966842253  TIP3      5628            0.0000000000
     39137      5821  TIP3      OH2           -11.4578512499       36.3499597140       57.7010366493  TIP3      5629            0.0000000000
     39138      5821  TIP3      H1            -10.6029192745       35.9487328679       57.8719459747  TIP3      5629            0.0000000000
     39139      5821  TIP3      H2            -11.5347252800       36.2104401456       56.7403837759  TIP3      5629            0.0000000000
     39140      5822  TIP3      OH2            -7.5955549308       36.1184300631       39.0253620952  TIP3      5630            0.0000000000
     39141      5822  TIP3      H1             -8.3177920107       35.4738392647       39.0603991089  TIP3      5630            0.0000000000
     39142      5822  TIP3      H2             -6.8757742652       35.6175959438       38.5822421612  TIP3      5630            0.0000000000
     39143      5823  TIP3      OH2            -5.1497968279       34.6746352862       56.0850838756  TIP3      5631            0.0000000000
     39144      5823  TIP3      H1             -5.6286772458       34.0011176508       56.5985340172  TIP3      5631            0.0000000000
     39145      5823  TIP3      H2             -4.5424110760       35.0454345540       56.7413334672  TIP3      5631            0.0000000000
     39146      5824  TIP3      OH2            -2.8350764248       35.9073750781       39.2682928997  TIP3      5632            0.0000000000
     39147      5824  TIP3      H1             -2.6544336806       35.0114027036       39.5615676558  TIP3      5632            0.0000000000
     39148      5824  TIP3      H2             -2.2049274570       36.0569380545       38.5410516832  TIP3      5632            0.0000000000
     39149      5825  TIP3      OH2           -16.5022280089       31.5082778567       56.8630913088  TIP3      5633            0.0000000000
     39150      5825  TIP3      H1            -16.3539994428       30.5977227010       56.5581908329  TIP3      5633            0.0000000000
     39151      5825  TIP3      H2            -17.2441692083       31.7982287920       56.3004966752  TIP3      5633            0.0000000000
     39152      5826  TIP3      OH2           -12.1641323168       31.8473128513       38.8888634320  TIP3      5634            0.0000000000
     39153      5826  TIP3      H1            -12.0149040726       31.0902331274       39.4809796464  TIP3      5634            0.0000000000
     39154      5826  TIP3      H2            -11.4121131671       31.7441533692       38.2753625812  TIP3      5634            0.0000000000
     39155      5827  TIP3      OH2            -9.7804145380       31.5112972691       56.2458560079  TIP3      5635            0.0000000000
     39156      5827  TIP3      H1            -10.1409254808       31.8133683179       55.3906011585  TIP3      5635            0.0000000000
     39157      5827  TIP3      H2             -9.7236508452       30.5275180053       56.1488831050  TIP3      5635            0.0000000000
     39158      5828  TIP3      OH2            -6.7820761957       32.9561473585       38.6819708648  TIP3      5636            0.0000000000
     39159      5828  TIP3      H1             -7.0318395123       33.0757934113       39.6068758532  TIP3      5636            0.0000000000
     39160      5828  TIP3      H2             -6.9224600397       32.0048256788       38.5333014747  TIP3      5636            0.0000000000
     39161      5829  TIP3      OH2            -4.0975979096       31.3755071568       53.6488962078  TIP3      5637            0.0000000000
     39162      5829  TIP3      H1             -3.3120958924       31.9573722056       53.5769568550  TIP3      5637            0.0000000000
     39163      5829  TIP3      H2             -4.8010692857       32.0376472269       53.6912207109  TIP3      5637            0.0000000000
     39164      5830  TIP3      OH2           -15.5868396586       28.7624818209       56.2520782247  TIP3      5638            0.0000000000
     39165      5830  TIP3      H1            -15.1786770782       27.8947341246       56.1586489483  TIP3      5638            0.0000000000
     39166      5830  TIP3      H2            -15.8277809937       28.7591539160       57.1927057665  TIP3      5638            0.0000000000
     39167      5831  TIP3      OH2           -10.9586829498       29.8848275503       41.3222999371  TIP3      5639            0.0000000000
     39168      5831  TIP3      H1            -11.4655494162       29.3460577589       41.9478103697  TIP3      5639            0.0000000000
     39169      5831  TIP3      H2            -10.6641308795       29.2134328756       40.6643527373  TIP3      5639            0.0000000000
     39170      5832  TIP3      OH2           -11.6968945230       27.6951252358       53.6056134060  TIP3      5640            0.0000000000
     39171      5832  TIP3      H1            -12.2931977514       28.4165564025       53.8628013592  TIP3      5640            0.0000000000
     39172      5832  TIP3      H2            -11.2983002603       28.0626262959       52.7981273647  TIP3      5640            0.0000000000
     39173      5833  TIP3      OH2            -9.8833134862       28.1101064265       39.5187278672  TIP3      5641            0.0000000000
     39174      5833  TIP3      H1            -10.0358249893       28.0195008001       38.5555408601  TIP3      5641            0.0000000000
     39175      5833  TIP3      H2             -8.9057181242       28.1573560976       39.5870590969  TIP3      5641            0.0000000000
     39176      5834  TIP3      OH2            -6.6230892905       30.2625243908       56.9415551175  TIP3      5642            0.0000000000
     39177      5834  TIP3      H1             -5.6649137415       30.2513334618       56.8181474812  TIP3      5642            0.0000000000
     39178      5834  TIP3      H2             -6.7933230629       29.4951118898       57.5126561901  TIP3      5642            0.0000000000
     39179      5835  TIP3      OH2            -0.5218632177       30.4143261219       38.9251218808  TIP3      5643            0.0000000000
     39180      5835  TIP3      H1             -0.7622028111       30.0618760776       38.0538112191  TIP3      5643            0.0000000000
     39181      5835  TIP3      H2             -0.4917922007       31.3868513733       38.7469772318  TIP3      5643            0.0000000000
     39182      5836  TIP3      OH2           -11.2893524126       25.0720376026       54.6623640621  TIP3      5644            0.0000000000
     39183      5836  TIP3      H1            -11.1724889110       24.3632835259       54.0031202655  TIP3      5644            0.0000000000
     39184      5836  TIP3      H2            -11.3336142608       25.8832096621       54.1136078346  TIP3      5644            0.0000000000
     39185      5837  TIP3      OH2           -10.8844703432       23.4555846113       52.2168478264  TIP3      5645            0.0000000000
     39186      5837  TIP3      H1            -10.3765662265       23.9192849571       51.5092309105  TIP3      5645            0.0000000000
     39187      5837  TIP3      H2            -11.7783114929       23.3766969022       51.8113610910  TIP3      5645            0.0000000000
     39188      5838  TIP3      OH2            -9.3447400766       28.9445590462       52.4591471131  TIP3      5646            0.0000000000
     39189      5838  TIP3      H1             -8.5925306587       28.7772953737       51.8857624144  TIP3      5646            0.0000000000
     39190      5838  TIP3      H2             -9.7126631281       29.7763538387       52.1224694834  TIP3      5646            0.0000000000
     39191      5839  TIP3      OH2            -4.9523935761       26.6950946410       57.4195310590  TIP3      5647            0.0000000000
     39192      5839  TIP3      H1             -4.7157970575       25.7602269315       57.3295860146  TIP3      5647            0.0000000000
     39193      5839  TIP3      H2             -4.0872004645       27.1387701398       57.4537381442  TIP3      5647            0.0000000000
     39194      5840  TIP3      OH2            -3.6102767291       29.4912496702       55.5864781934  TIP3      5648            0.0000000000
     39195      5840  TIP3      H1             -3.8637443373       30.2131856994       54.9710851885  TIP3      5648            0.0000000000
     39196      5840  TIP3      H2             -2.6542739945       29.4729921922       55.4014991221  TIP3      5648            0.0000000000
     39197      5841  TIP3      OH2           -12.8285187888       26.3232201821       56.5839652004  TIP3      5649            0.0000000000
     39198      5841  TIP3      H1            -13.5965108241       25.7456705177       56.4151346460  TIP3      5649            0.0000000000
     39199      5841  TIP3      H2            -12.1730541661       25.9535979654       55.9613773421  TIP3      5649            0.0000000000
     39200      5842  TIP3      OH2           -10.0949695888       20.8906768790       52.6029564974  TIP3      5650            0.0000000000
     39201      5842  TIP3      H1            -10.2797975733       21.8536454298       52.5083627699  TIP3      5650            0.0000000000
     39202      5842  TIP3      H2            -10.8454105600       20.5244427034       52.1031940168  TIP3      5650            0.0000000000
     39203      5843  TIP3      OH2            -8.8273933074       25.2210592250       56.2341275199  TIP3      5651            0.0000000000
     39204      5843  TIP3      H1             -9.1416141067       24.9873733503       57.1293081057  TIP3      5651            0.0000000000
     39205      5843  TIP3      H2             -9.6083175011       25.0173809156       55.6921838797  TIP3      5651            0.0000000000
     39206      5844  TIP3      OH2            -6.1048274891       24.3655033191       55.3246540923  TIP3      5652            0.0000000000
     39207      5844  TIP3      H1             -7.0699511660       24.4178881954       55.4324295351  TIP3      5652            0.0000000000
     39208      5844  TIP3      H2             -5.8410290564       23.7237018545       56.0118009085  TIP3      5652            0.0000000000
     39209      5845  TIP3      OH2            -4.5232252702       22.9833916430       57.2227263802  TIP3      5653            0.0000000000
     39210      5845  TIP3      H1             -4.5713360440       22.0054813391       57.2536100032  TIP3      5653            0.0000000000
     39211      5845  TIP3      H2             -4.7718507060       23.2757174596       58.1220500498  TIP3      5653            0.0000000000
     39212      5846  TIP3      OH2           -14.7510158386       24.2605750129       56.3389627842  TIP3      5654            0.0000000000
     39213      5846  TIP3      H1            -14.5012957029       23.5247911785       55.7528595725  TIP3      5654            0.0000000000
     39214      5846  TIP3      H2            -14.8385538853       23.8120080087       57.2028010980  TIP3      5654            0.0000000000
     39215      5847  TIP3      OH2            -9.8821564529       20.2847877433       55.3055646564  TIP3      5655            0.0000000000
     39216      5847  TIP3      H1             -9.2026083719       19.5812440278       55.2888343948  TIP3      5655            0.0000000000
     39217      5847  TIP3      H2             -9.9968172821       20.4271780697       54.3454390790  TIP3      5655            0.0000000000
     39218      5848  TIP3      OH2            -9.5201764818       21.8973425017       57.4224155676  TIP3      5656            0.0000000000
     39219      5848  TIP3      H1             -9.6936124553       21.3918741828       56.5895798614  TIP3      5656            0.0000000000
     39220      5848  TIP3      H2            -10.1195179091       22.6620062468       57.3217230216  TIP3      5656            0.0000000000
     39221      5849  TIP3      OH2           -16.4709370836       33.3984999383       40.0301723726  TIP3      5657            0.0000000000
     39222      5849  TIP3      H1            -15.5212107814       33.4782349165       40.2685540456  TIP3      5657            0.0000000000
     39223      5849  TIP3      H2            -16.4166918260       32.7175948810       39.3207239189  TIP3      5657            0.0000000000
     39224      5850  TIP3      OH2            -1.3434699314       33.0222140005       57.4407834343  TIP3      5658            0.0000000000
     39225      5850  TIP3      H1             -2.2386767023       32.9757195634       57.8311832712  TIP3      5658            0.0000000000
     39226      5850  TIP3      H2             -0.9494365936       33.8090639250       57.8855662936  TIP3      5658            0.0000000000
     39227      5851  TIP3      OH2            -0.0186425412       31.3176462524       42.8736733611  TIP3      5659            0.0000000000
     39228      5851  TIP3      H1              0.8257287566       31.7520053220       43.0782017688  TIP3      5659            0.0000000000
     39229      5851  TIP3      H2             -0.0361768926       30.6194228465       43.5615658132  TIP3      5659            0.0000000000
     39230      5852  TIP3      OH2             0.3414888620       29.4210531851       44.7742369998  TIP3      5660            0.0000000000
     39231      5852  TIP3      H1             -0.4116053076       28.9193535516       45.1649675385  TIP3      5660            0.0000000000
     39232      5852  TIP3      H2              0.9335056812       29.5494046705       45.5411228451  TIP3      5660            0.0000000000
     39233      5853  TIP3      OH2             0.1013977107       32.1118144393       49.7835379733  TIP3      5661            0.0000000000
     39234      5853  TIP3      H1              0.9033460412       31.7400255367       49.3790388917  TIP3      5661            0.0000000000
     39235      5853  TIP3      H2              0.2395663452       33.0665860127       49.6060915655  TIP3      5661            0.0000000000
     39236      5854  TIP3      OH2            -1.4119912214       34.9986424922       52.0782563615  TIP3      5662            0.0000000000
     39237      5854  TIP3      H1             -2.1082712648       35.3802415014       52.6116214221  TIP3      5662            0.0000000000
     39238      5854  TIP3      H2             -1.9109994078       34.6425804916       51.3055225000  TIP3      5662            0.0000000000
     39239      5855  TIP3      OH2             0.6433075012       29.2409866935       41.1642619625  TIP3      5663            0.0000000000
     39240      5855  TIP3      H1              0.0738771070       29.5991954111       40.4481674488  TIP3      5663            0.0000000000
     39241      5855  TIP3      H2              0.5408793790       29.9552811304       41.8237282474  TIP3      5663            0.0000000000
     39242      5856  TIP3      OH2            -0.9893571302       26.4769088515       39.6801259697  TIP3      5664            0.0000000000
     39243      5856  TIP3      H1             -0.9143719416       27.1392061101       38.9803201563  TIP3      5664            0.0000000000
     39244      5856  TIP3      H2             -1.1929342312       25.6532312632       39.1927685402  TIP3      5664            0.0000000000
     39245      5857  TIP3      OH2            -1.8155332979       27.9048942747       45.3566231680  TIP3      5665            0.0000000000
     39246      5857  TIP3      H1             -1.9938781780       26.9539043597       45.2975220978  TIP3      5665            0.0000000000
     39247      5857  TIP3      H2             -2.1731537822       28.1188862064       46.2366471052  TIP3      5665            0.0000000000
     39248      5858  TIP3      OH2           -16.8371607321       29.9861215432       49.4018455418  TIP3      5666            0.0000000000
     39249      5858  TIP3      H1            -16.6614675822       29.8996768552       48.4384711124  TIP3      5666            0.0000000000
     39250      5858  TIP3      H2            -15.9440001512       29.8063803183       49.7544445691  TIP3      5666            0.0000000000
     39251      5859  TIP3      OH2            -0.9835489293       29.8651847845       55.0310431225  TIP3      5667            0.0000000000
     39252      5859  TIP3      H1             -0.3728849704       29.1087956063       55.1642596638  TIP3      5667            0.0000000000
     39253      5859  TIP3      H2             -0.3778975018       30.6372572884       55.0360913503  TIP3      5667            0.0000000000
     39254      5860  TIP3      OH2             0.5195528772       27.7438393049       55.6816385710  TIP3      5668            0.0000000000
     39255      5860  TIP3      H1             -0.3637701242       27.3455565831       55.5268915080  TIP3      5668            0.0000000000
     39256      5860  TIP3      H2              1.0890975909       26.9605986873       55.6049093982  TIP3      5668            0.0000000000
     39257      5861  TIP3      OH2            -1.7466913300       23.9419594809       38.8157495500  TIP3      5669            0.0000000000
     39258      5861  TIP3      H1             -1.1518251052       23.5100055606       39.4570824952  TIP3      5669            0.0000000000
     39259      5861  TIP3      H2             -2.6153834858       23.5339135966       38.9855517208  TIP3      5669            0.0000000000
     39260      5862  TIP3      OH2            -2.1834555958       25.4986301432       43.7587558768  TIP3      5670            0.0000000000
     39261      5862  TIP3      H1             -1.9006440060       24.5682278799       43.9097973573  TIP3      5670            0.0000000000
     39262      5862  TIP3      H2             -1.3645329853       25.8917716395       43.4329413959  TIP3      5670            0.0000000000
     39263      5863  TIP3      OH2            -1.5361155516       26.0241783163       49.2441410553  TIP3      5671            0.0000000000
     39264      5863  TIP3      H1             -0.5769885313       26.2548944880       49.2292639030  TIP3      5671            0.0000000000
     39265      5863  TIP3      H2             -1.7246849964       26.1639562507       50.1830450825  TIP3      5671            0.0000000000
     39266      5864  TIP3      OH2            -1.4677869357       26.7450003884       52.0307540164  TIP3      5672            0.0000000000
     39267      5864  TIP3      H1             -2.3532313452       27.0339687464       52.3397770509  TIP3      5672            0.0000000000
     39268      5864  TIP3      H2             -1.0363205357       27.6046783603       51.8020314492  TIP3      5672            0.0000000000
     39269      5865  TIP3      OH2           -17.2179144696       25.2865125922       55.5612958752  TIP3      5673            0.0000000000
     39270      5865  TIP3      H1            -16.2810363615       25.0707575237       55.7468911831  TIP3      5673            0.0000000000
     39271      5865  TIP3      H2            -17.6763472832       24.4601113617       55.8280481952  TIP3      5673            0.0000000000
     39272      5866  TIP3      OH2             0.8015718038       20.8103234508       57.3626750400  TIP3      5674            0.0000000000
     39273      5866  TIP3      H1              1.1539265036       20.1490691846       56.7421395979  TIP3      5674            0.0000000000
     39274      5866  TIP3      H2              0.9034779233       21.6247636603       56.8305701599  TIP3      5674            0.0000000000
     39275      5867  TIP3      OH2            -1.4767817353       22.7563090597       43.8352374285  TIP3      5675            0.0000000000
     39276      5867  TIP3      H1             -1.3043696017       22.3294014478       44.7024043968  TIP3      5675            0.0000000000
     39277      5867  TIP3      H2             -2.1001308731       22.1377906424       43.4004922872  TIP3      5675            0.0000000000
     39278      5868  TIP3      OH2           -16.0210104223       23.5738126414       48.4045981541  TIP3      5676            0.0000000000
     39279      5868  TIP3      H1            -15.5601343028       22.7471687947       48.6597391279  TIP3      5676            0.0000000000
     39280      5868  TIP3      H2            -15.4687537123       24.2661763840       48.7921768081  TIP3      5676            0.0000000000
     39281      5869  TIP3      OH2           -17.7379630569       26.5773039144       49.4398509448  TIP3      5677            0.0000000000
     39282      5869  TIP3      H1            -17.1742568072       26.3253424581       48.6801522016  TIP3      5677            0.0000000000
     39283      5869  TIP3      H2            -17.2692148672       27.3801717344       49.7096037622  TIP3      5677            0.0000000000
     39284      5870  TIP3      OH2             0.3218770407       22.9084601969       55.7178142027  TIP3      5678            0.0000000000
     39285      5870  TIP3      H1             -0.6158154069       23.1799141978       55.6653357249  TIP3      5678            0.0000000000
     39286      5870  TIP3      H2              0.3554471706       22.3571296703       54.9211479327  TIP3      5678            0.0000000000
     39287      5871  TIP3      OH2             0.3083705500       22.8033980782       40.3974412001  TIP3      5679            0.0000000000
     39288      5871  TIP3      H1              0.7217776480       22.0886993903       39.8632858984  TIP3      5679            0.0000000000
     39289      5871  TIP3      H2              1.0164393003       23.4620465340       40.4499023582  TIP3      5679            0.0000000000
     39290      5872  TIP3      OH2           -17.3690281687       22.8535204354       43.5247300336  TIP3      5680            0.0000000000
     39291      5872  TIP3      H1            -18.3124520469       23.0095902574       43.3594909075  TIP3      5680            0.0000000000
     39292      5872  TIP3      H2            -16.9519092883       23.3273454215       42.7869391238  TIP3      5680            0.0000000000
     39293      5873  TIP3      OH2           -17.4243931218       21.4851051850       51.8070173175  TIP3      5681            0.0000000000
     39294      5873  TIP3      H1            -18.0916275050       21.2953476777       52.4896812714  TIP3      5681            0.0000000000
     39295      5873  TIP3      H2            -17.8811717720       22.1617093078       51.2676039154  TIP3      5681            0.0000000000
     39296      5874  TIP3      OH2           -15.1896642479       34.7458978271       55.9879758816  TIP3      5682            0.0000000000
     39297      5874  TIP3      H1            -16.0396358353       34.8848059264       55.5312834104  TIP3      5682            0.0000000000
     39298      5874  TIP3      H2            -15.4654931966       34.5803517755       56.8952539867  TIP3      5682            0.0000000000
     39299      5875  TIP3      OH2           -12.2440186799       35.6861307233       52.3228692157  TIP3      5683            0.0000000000
     39300      5875  TIP3      H1            -12.6876314627       36.4638370430       51.9504263336  TIP3      5683            0.0000000000
     39301      5875  TIP3      H2            -11.3842355919       35.6662789508       51.8797940348  TIP3      5683            0.0000000000
     39302      5876  TIP3      OH2            -0.6556935783       20.9979932098       53.5716416104  TIP3      5684            0.0000000000
     39303      5876  TIP3      H1             -1.4860794603       21.2955846610       53.1626275310  TIP3      5684            0.0000000000
     39304      5876  TIP3      H2             -0.4892722566       20.1752220692       53.0535909106  TIP3      5684            0.0000000000
     39305      5877  TIP3      OH2           -13.0843463236       36.0351256427       47.6149260881  TIP3      5685            0.0000000000
     39306      5877  TIP3      H1            -13.4678909223       35.2745967904       48.0789684301  TIP3      5685            0.0000000000
     39307      5877  TIP3      H2            -12.5048655706       36.4002665775       48.3066330537  TIP3      5685            0.0000000000
     39308      5878  TIP3      OH2            -7.2592926947       22.4209922728       47.8898865702  TIP3      5686            0.0000000000
     39309      5878  TIP3      H1             -7.9465231443       21.7778984586       48.1308438329  TIP3      5686            0.0000000000
     39310      5878  TIP3      H2             -6.7303940667       21.9140126990       47.2556920375  TIP3      5686            0.0000000000
     39311      5879  TIP3      OH2            -2.1215373486       20.4800472805       47.9338465960  TIP3      5687            0.0000000000
     39312      5879  TIP3      H1             -1.5302059050       21.0690651236       47.3982190430  TIP3      5687            0.0000000000
     39313      5879  TIP3      H2             -3.0117677431       20.8189638058       47.6921265581  TIP3      5687            0.0000000000
     39314      5880  TIP3      OH2            -0.4441844933       21.7183141792       46.2192467325  TIP3      5688            0.0000000000
     39315      5880  TIP3      H1              0.2331587191       21.1486303579       45.7826894896  TIP3      5688            0.0000000000
     39316      5880  TIP3      H2              0.0481583366       22.5658191606       46.3009004055  TIP3      5688            0.0000000000
     39317      5881  TIP3      OH2           -14.8936400973       21.0504627161       45.7033263487  TIP3      5689            0.0000000000
     39318      5881  TIP3      H1            -15.6915733459       20.8562131153       45.1752043451  TIP3      5689            0.0000000000
     39319      5881  TIP3      H2            -14.4371898772       20.1883359809       45.6427319569  TIP3      5689            0.0000000000
     39320      5882  TIP3      OH2           -16.1294685308       20.8031814778       41.4239147356  TIP3      5690            0.0000000000
     39321      5882  TIP3      H1            -15.6366908320       21.4536498182       40.8896878029  TIP3      5690            0.0000000000
     39322      5882  TIP3      H2            -16.6965863325       21.3785512778       41.9627274958  TIP3      5690            0.0000000000
     39323      5883  TIP3      OH2           -10.4380852247       20.9801599930       45.4898247584  TIP3      5691            0.0000000000
     39324      5883  TIP3      H1             -9.5283253043       21.3505626011       45.3857705802  TIP3      5691            0.0000000000
     39325      5883  TIP3      H2            -10.4335505228       20.7611406335       46.4168569524  TIP3      5691            0.0000000000
     39326      5884  TIP3      OH2            -4.6864367806       20.9803925870       47.1145565086  TIP3      5692            0.0000000000
     39327      5884  TIP3      H1             -4.7832549073       21.1249899490       46.1501340366  TIP3      5692            0.0000000000
     39328      5884  TIP3      H2             -5.1022141995       20.0917141674       47.2353112192  TIP3      5692            0.0000000000
     39329      5885  TIP3      OH2            -3.2607016670       20.8994873763       42.6756611211  TIP3      5693            0.0000000000
     39330      5885  TIP3      H1             -4.0092548240       21.5406386179       42.6832233473  TIP3      5693            0.0000000000
     39331      5885  TIP3      H2             -3.8245366978       20.1809803036       43.0417641249  TIP3      5693            0.0000000000
     39332      5886  TIP3      OH2           -14.3007355818       22.7469981566       39.9368225925  TIP3      5694            0.0000000000
     39333      5886  TIP3      H1            -13.7674236208       22.1298454771       39.4092972550  TIP3      5694            0.0000000000
     39334      5886  TIP3      H2            -13.6348343725       23.0705443510       40.5714320240  TIP3      5694            0.0000000000
     39335      5887  TIP3      OH2            -9.3076329316       23.0024661504       42.3485345174  TIP3      5695            0.0000000000
     39336      5887  TIP3      H1             -9.0063928229       22.4225909080       43.0760289218  TIP3      5695            0.0000000000
     39337      5887  TIP3      H2             -9.1774658391       23.8632877597       42.8019211136  TIP3      5695            0.0000000000
     39338      5888  TIP3      OH2           -15.0110989677       21.5946976936       55.1523643785  TIP3      5696            0.0000000000
     39339      5888  TIP3      H1            -15.4007674888       20.7978734158       55.5591446011  TIP3      5696            0.0000000000
     39340      5888  TIP3      H2            -14.1032030645       21.5510360983       55.5352670579  TIP3      5696            0.0000000000
     39341      5889  TIP3      OH2           -13.0113532285       20.9757772167       56.7981995254  TIP3      5697            0.0000000000
     39342      5889  TIP3      H1            -12.1183664799       20.6388985898       56.5809528385  TIP3      5697            0.0000000000
     39343      5889  TIP3      H2            -13.3848878546       20.1683325690       57.2008635401  TIP3      5697            0.0000000000
     39344      5890  TIP3      OH2            -4.6096907169       20.2624218522       56.9477632095  TIP3      5698            0.0000000000
     39345      5890  TIP3      H1             -4.5150693845       19.7893139094       57.7971426833  TIP3      5698            0.0000000000
     39346      5890  TIP3      H2             -3.6922167618       20.2286980965       56.6043131774  TIP3      5698            0.0000000000
     39347      5891  TIP3      OH2            -1.5772155040      -36.7602371133       55.7469998348  TIP3      5699            0.0000000000
     39348      5891  TIP3      H1             -2.2010072761      -36.8882349977       55.0284769414  TIP3      5699            0.0000000000
     39349      5891  TIP3      H2             -1.4376315745      -35.8007440427       55.7417830446  TIP3      5699            0.0000000000
     39350      5892  TIP3      OH2            13.0074947629       30.1644625508       45.5721385722  TIP3      5700            0.0000000000
     39351      5892  TIP3      H1             13.0425165659       31.1503731607       45.5323366823  TIP3      5700            0.0000000000
     39352      5892  TIP3      H2             12.3385041104       29.9494642070       44.9097443263  TIP3      5700            0.0000000000
     39353      5893  TIP3      OH2            11.8622926006       29.4559989102       49.0514039035  TIP3      5701            0.0000000000
     39354      5893  TIP3      H1             11.9002742882       28.8147715984       49.7800029492  TIP3      5701            0.0000000000
     39355      5893  TIP3      H2             11.5837767547       28.9020310605       48.3114781827  TIP3      5701            0.0000000000
     39356      5894  TIP3      OH2             4.2520432666       29.1200815451       50.6169999534  TIP3      5702            0.0000000000
     39357      5894  TIP3      H1              4.3325984911       28.4337117844       51.3133804021  TIP3      5702            0.0000000000
     39358      5894  TIP3      H2              4.9999455528       29.6930623735       50.8417750751  TIP3      5702            0.0000000000
     39359      5895  TIP3      OH2            15.5850919884       32.3798032267       47.3550627339  TIP3      5703            0.0000000000
     39360      5895  TIP3      H1             15.1662717521       31.6676718806       47.8461854625  TIP3      5703            0.0000000000
     39361      5895  TIP3      H2             15.6265762604       33.0989507709       48.0117786022  TIP3      5703            0.0000000000
     39362      5896  TIP3      OH2             5.1998478266       33.5796393177       49.1288862580  TIP3      5704            0.0000000000
     39363      5896  TIP3      H1              4.8542879626       32.7189130473       48.8161660180  TIP3      5704            0.0000000000
     39364      5896  TIP3      H2              6.1504669011       33.3843731615       49.1634083680  TIP3      5704            0.0000000000
     39365      5897  TIP3      OH2             1.8145657519       27.1181246566       44.6095909588  TIP3      5705            0.0000000000
     39366      5897  TIP3      H1              1.3943235062       27.9973603683       44.5410673719  TIP3      5705            0.0000000000
     39367      5897  TIP3      H2              1.2545912643       26.5844173655       44.0332003973  TIP3      5705            0.0000000000
     39368      5898  TIP3      OH2             2.5229342190       29.3533303889       46.7603991451  TIP3      5706            0.0000000000
     39369      5898  TIP3      H1              2.8031427488       28.5287911804       47.2024995883  TIP3      5706            0.0000000000
     39370      5898  TIP3      H2              3.2008670567       29.4556373201       46.0768180314  TIP3      5706            0.0000000000
     39371      5899  TIP3      OH2            10.2502907392       31.8142076981       49.5175234783  TIP3      5707            0.0000000000
     39372      5899  TIP3      H1             10.6555468776       31.2034609415       48.8930083825  TIP3      5707            0.0000000000
     39373      5899  TIP3      H2             11.0443997646       32.0324086320       50.0442761559  TIP3      5707            0.0000000000
     39374      5900  TIP3      OH2            18.8696540193       23.5094070305       50.2553644091  TIP3      5708            0.0000000000
     39375      5900  TIP3      H1             19.0502626548       24.0935487453       51.0231816265  TIP3      5708            0.0000000000
     39376      5900  TIP3      H2             19.4411976528       23.9273648688       49.5954732089  TIP3      5708            0.0000000000
     39377      5901  TIP3      OH2            13.4430507358       26.3143492612       49.8465150295  TIP3      5709            0.0000000000
     39378      5901  TIP3      H1             13.6117329074       25.3554387953       49.8526573782  TIP3      5709            0.0000000000
     39379      5901  TIP3      H2             13.3393431750       26.4533819282       48.8853012245  TIP3      5709            0.0000000000
     39380      5902  TIP3      OH2             6.5582878208       24.4036392864       47.0603285378  TIP3      5710            0.0000000000
     39381      5902  TIP3      H1              6.6551704315       25.2310164306       46.5639259850  TIP3      5710            0.0000000000
     39382      5902  TIP3      H2              6.1598371292       23.8275704499       46.3744099908  TIP3      5710            0.0000000000
     39383      5903  TIP3      OH2            14.2970548094       24.4794492878       45.4331056758  TIP3      5711            0.0000000000
     39384      5903  TIP3      H1             14.9477520072       24.1661046967       46.1034238668  TIP3      5711            0.0000000000
     39385      5903  TIP3      H2             14.8608451292       25.0605719013       44.9017901803  TIP3      5711            0.0000000000
     39386      5904  TIP3      OH2             3.1823382388       26.8138514755       47.7954926226  TIP3      5712            0.0000000000
     39387      5904  TIP3      H1              3.8510293015       26.2695185333       48.2513971621  TIP3      5712            0.0000000000
     39388      5904  TIP3      H2              3.2871422545       26.4985770073       46.8848784710  TIP3      5712            0.0000000000
     39389      5905  TIP3      OH2             8.3101533239       28.1983408164       47.2287625808  TIP3      5713            0.0000000000
     39390      5905  TIP3      H1              9.0207773996       27.6160765851       47.5858394723  TIP3      5713            0.0000000000
     39391      5905  TIP3      H2              7.8144776110       27.5484185761       46.6779860947  TIP3      5713            0.0000000000
     39392      5906  TIP3      OH2            19.3130210946       24.9107707162       52.5348493572  TIP3      5714            0.0000000000
     39393      5906  TIP3      H1             18.7081674720       25.6766815731       52.4219570886  TIP3      5714            0.0000000000
     39394      5906  TIP3      H2             19.3462706643       24.8315497803       53.4946900421  TIP3      5714            0.0000000000
     39395      5907  TIP3      OH2             5.4679960090       23.3031750162       51.1015931399  TIP3      5715            0.0000000000
     39396      5907  TIP3      H1              5.1840994540       23.8733629964       50.3555263703  TIP3      5715            0.0000000000
     39397      5907  TIP3      H2              4.7899170166       23.5307445591       51.7835510541  TIP3      5715            0.0000000000
     39398      5908  TIP3      OH2            12.6805743332       32.7366404755       44.6649884420  TIP3      5716            0.0000000000
     39399      5908  TIP3      H1             12.5314469334       32.5358741235       43.7314466296  TIP3      5716            0.0000000000
     39400      5908  TIP3      H2             12.4725180108       33.6947798081       44.7109337408  TIP3      5716            0.0000000000
     39401      5909  TIP3      OH2             7.9676815069       30.9220138492       51.3105151469  TIP3      5717            0.0000000000
     39402      5909  TIP3      H1              7.2766216477       31.5665818049       51.5781147110  TIP3      5717            0.0000000000
     39403      5909  TIP3      H2              8.6863431966       31.5275220768       51.0682448101  TIP3      5717            0.0000000000
     39404      5910  TIP3      OH2            16.1075970271       23.8309988488       47.4249931437  TIP3      5718            0.0000000000
     39405      5910  TIP3      H1             15.8862908730       23.0611793522       47.9570036576  TIP3      5718            0.0000000000
     39406      5910  TIP3      H2             16.7780850573       24.2653513215       47.9793695335  TIP3      5718            0.0000000000
     39407      5911  TIP3      OH2             5.0343256200       25.1549869962       49.1364443318  TIP3      5719            0.0000000000
     39408      5911  TIP3      H1              5.6612469875       25.8459878178       49.4486064773  TIP3      5719            0.0000000000
     39409      5911  TIP3      H2              5.5545047260       24.7500072889       48.3966645531  TIP3      5719            0.0000000000
     39410      5912  TIP3      OH2             6.4435867551       32.9495841404       52.1471857120  TIP3      5720            0.0000000000
     39411      5912  TIP3      H1              6.3784032326       33.8528567437       51.7978846349  TIP3      5720            0.0000000000
     39412      5912  TIP3      H2              5.5558503617       32.8601926343       52.5775357050  TIP3      5720            0.0000000000
     39413      5913  TIP3      OH2             2.5015749667       32.6154770896       42.9556892498  TIP3      5721            0.0000000000
     39414      5913  TIP3      H1              2.2396935289       32.9314931043       42.0729931499  TIP3      5721            0.0000000000
     39415      5913  TIP3      H2              2.5864414347       33.4424479278       43.4668338070  TIP3      5721            0.0000000000
     39416      5914  TIP3      OH2            16.1165508241       34.2444803716       49.7550689117  TIP3      5722            0.0000000000
     39417      5914  TIP3      H1             15.1374540582       34.3317185190       49.8533218511  TIP3      5722            0.0000000000
     39418      5914  TIP3      H2             16.4038688044       35.1379804473       49.4933733156  TIP3      5722            0.0000000000
     39419      5915  TIP3      OH2            16.4391954329       22.5142092930       51.1008938775  TIP3      5723            0.0000000000
     39420      5915  TIP3      H1             15.7148499495       23.1479548769       51.0086776139  TIP3      5723            0.0000000000
     39421      5915  TIP3      H2             17.1527764884       22.9329306825       50.5789663324  TIP3      5723            0.0000000000
     39422      5916  TIP3      OH2             9.4034144196       20.6369401163       48.5667558090  TIP3      5724            0.0000000000
     39423      5916  TIP3      H1              9.2602831808       19.6733009045       48.4913764112  TIP3      5724            0.0000000000
     39424      5916  TIP3      H2              8.5255490800       20.9421313852       48.8742446438  TIP3      5724            0.0000000000
     39425      5917  TIP3      OH2            14.4080329917       35.7085089495       46.1217806399  TIP3      5725            0.0000000000
     39426      5917  TIP3      H1             14.9745100569       35.0964237394       45.6140698596  TIP3      5725            0.0000000000
     39427      5917  TIP3      H2             14.8072799824       36.5416347592       45.8841358962  TIP3      5725            0.0000000000
     39428      5918  TIP3      OH2            15.6209469769       33.8439237672       44.8116036978  TIP3      5726            0.0000000000
     39429      5918  TIP3      H1             15.2724776909       33.1816702172       44.2088233267  TIP3      5726            0.0000000000
     39430      5918  TIP3      H2             15.6226070619       33.3922309527       45.6778752651  TIP3      5726            0.0000000000
     39431      5919  TIP3      OH2            17.2127408483       32.5774894708       53.3234124895  TIP3      5727            0.0000000000
     39432      5919  TIP3      H1             17.3388169019       31.8984031194       52.6237097815  TIP3      5727            0.0000000000
     39433      5919  TIP3      H2             17.4377704273       33.3990741389       52.8519399579  TIP3      5727            0.0000000000
     39434      5920  TIP3      OH2            11.6878664741       29.4380550079       43.0913059397  TIP3      5728            0.0000000000
     39435      5920  TIP3      H1             11.0144648656       30.0094672391       42.6797386187  TIP3      5728            0.0000000000
     39436      5920  TIP3      H2             12.4094839984       29.5093510809       42.4301049294  TIP3      5728            0.0000000000
     39437      5921  TIP3      OH2            11.7835822527       27.9955534919       40.0840780560  TIP3      5729            0.0000000000
     39438      5921  TIP3      H1             12.4881381219       27.9770395429       40.7493306459  TIP3      5729            0.0000000000
     39439      5921  TIP3      H2             12.0893759558       27.2784976531       39.5157050111  TIP3      5729            0.0000000000
     39440      5922  TIP3      OH2            19.0922013036       28.8496044358       51.3552206628  TIP3      5730            0.0000000000
     39441      5922  TIP3      H1             18.4351343793       29.5731547568       51.3952241432  TIP3      5730            0.0000000000
     39442      5922  TIP3      H2             19.5874803145       29.0844637394       50.5495695112  TIP3      5730            0.0000000000
     39443      5923  TIP3      OH2            15.1616055202       29.6331586829       43.9975699678  TIP3      5731            0.0000000000
     39444      5923  TIP3      H1             14.4242233427       29.8771174143       44.5977428526  TIP3      5731            0.0000000000
     39445      5923  TIP3      H2             15.6286285211       28.9568868678       44.5187792038  TIP3      5731            0.0000000000
     39446      5924  TIP3      OH2            15.0797019507       27.8027850631       53.1228008809  TIP3      5732            0.0000000000
     39447      5924  TIP3      H1             15.0861407091       28.6217502326       53.6448279871  TIP3      5732            0.0000000000
     39448      5924  TIP3      H2             14.4502192162       28.0943643688       52.4310258973  TIP3      5732            0.0000000000
     39449      5925  TIP3      OH2             6.6221230533       30.3175851917       45.8608484228  TIP3      5733            0.0000000000
     39450      5925  TIP3      H1              6.2731825684       29.9619529022       44.9884159990  TIP3      5733            0.0000000000
     39451      5925  TIP3      H2              6.8021991583       29.5101877265       46.3614908462  TIP3      5733            0.0000000000
     39452      5926  TIP3      OH2             8.0803529691       33.6865266819       48.5847608481  TIP3      5734            0.0000000000
     39453      5926  TIP3      H1              8.0895730596       33.1697544741       47.7812940515  TIP3      5734            0.0000000000
     39454      5926  TIP3      H2              8.8581003978       33.3465704429       49.0661177859  TIP3      5734            0.0000000000
     39455      5927  TIP3      OH2             7.0665250836       29.0682295914       49.5693938959  TIP3      5735            0.0000000000
     39456      5927  TIP3      H1              7.6642477250       29.1120947616       48.8108938480  TIP3      5735            0.0000000000
     39457      5927  TIP3      H2              7.4677244945       29.7052608406       50.2070845615  TIP3      5735            0.0000000000
     39458      5928  TIP3      OH2            13.5379854785       34.6120576800       50.3016804092  TIP3      5736            0.0000000000
     39459      5928  TIP3      H1             13.1706432898       35.2419215879       50.9164632021  TIP3      5736            0.0000000000
     39460      5928  TIP3      H2             13.2461107183       33.7560992965       50.6983213360  TIP3      5736            0.0000000000
     39461      5929  TIP3      OH2             8.0411563877       33.4791190575       54.2749289206  TIP3      5737            0.0000000000
     39462      5929  TIP3      H1              7.6088867180       34.2219757522       54.7525207831  TIP3      5737            0.0000000000
     39463      5929  TIP3      H2              7.3758703121       33.2479015143       53.5731292611  TIP3      5737            0.0000000000
     39464      5930  TIP3      OH2            14.0207501782       28.8417144851       41.6640513547  TIP3      5738            0.0000000000
     39465      5930  TIP3      H1             14.5822992179       29.0064546215       42.4612881392  TIP3      5738            0.0000000000
     39466      5930  TIP3      H2             14.4767311373       29.3269302505       40.9394435571  TIP3      5738            0.0000000000
     39467      5931  TIP3      OH2             4.9863891410       29.6346340150       53.4262100751  TIP3      5739            0.0000000000
     39468      5931  TIP3      H1              5.0395457203       30.3035282601       54.1333272334  TIP3      5739            0.0000000000
     39469      5931  TIP3      H2              4.0435820752       29.7217083685       53.2145463738  TIP3      5739            0.0000000000
     39470      5932  TIP3      OH2            11.6961197329       35.5292822863       45.1414516005  TIP3      5740            0.0000000000
     39471      5932  TIP3      H1             12.1899264902       35.8500372362       45.9045580529  TIP3      5740            0.0000000000
     39472      5932  TIP3      H2             11.1870277070       36.3009438054       44.8725120676  TIP3      5740            0.0000000000
     39473      5933  TIP3      OH2             6.2729549206       35.4245364438       55.0067326130  TIP3      5741            0.0000000000
     39474      5933  TIP3      H1              6.1972678904       35.3967424259       54.0310422089  TIP3      5741            0.0000000000
     39475      5933  TIP3      H2              5.3337023467       35.3576461486       55.2752069111  TIP3      5741            0.0000000000
     39476      5934  TIP3      OH2            17.7516883235       20.5703956772       41.5671876920  TIP3      5742            0.0000000000
     39477      5934  TIP3      H1             16.8047834767       20.6849052668       41.8064870208  TIP3      5742            0.0000000000
     39478      5934  TIP3      H2             17.9537277271       21.4107484026       41.1224118798  TIP3      5742            0.0000000000
     39479      5935  TIP3      OH2             5.7308640208       29.3224229534       43.5477445324  TIP3      5743            0.0000000000
     39480      5935  TIP3      H1              5.4371259843       30.0936370498       43.0107964159  TIP3      5743            0.0000000000
     39481      5935  TIP3      H2              5.0867693954       28.6518026911       43.2936043911  TIP3      5743            0.0000000000
     39482      5936  TIP3      OH2            18.9093599169       34.8918989434       39.9066253989  TIP3      5744            0.0000000000
     39483      5936  TIP3      H1             18.9954309706       35.8509521045       40.0627875759  TIP3      5744            0.0000000000
     39484      5936  TIP3      H2             19.8423362618       34.6145224949       39.9253867161  TIP3      5744            0.0000000000
     39485      5937  TIP3      OH2             1.8117726296       31.7553580646       52.4309857910  TIP3      5745            0.0000000000
     39486      5937  TIP3      H1              1.3803719558       31.6666337661       51.5605922156  TIP3      5745            0.0000000000
     39487      5937  TIP3      H2              1.9014377983       30.8060140108       52.6447254146  TIP3      5745            0.0000000000
     39488      5938  TIP3      OH2             1.6144004871       34.4411685097       49.2451236625  TIP3      5746            0.0000000000
     39489      5938  TIP3      H1              2.5710126141       34.3954374740       49.1542838112  TIP3      5746            0.0000000000
     39490      5938  TIP3      H2              1.5196719788       35.2733829220       49.7338518264  TIP3      5746            0.0000000000
     39491      5939  TIP3      OH2            19.7959443502       35.1831997315       54.9813949332  TIP3      5747            0.0000000000
     39492      5939  TIP3      H1             19.6950902953       34.2275720336       54.8442744606  TIP3      5747            0.0000000000
     39493      5939  TIP3      H2             18.9047199192       35.4448487100       55.2852455068  TIP3      5747            0.0000000000
     39494      5940  TIP3      OH2            10.7604614207       34.7468567735       53.7431744716  TIP3      5748            0.0000000000
     39495      5940  TIP3      H1             10.8648507918       35.5542584380       54.2578613890  TIP3      5748            0.0000000000
     39496      5940  TIP3      H2              9.9195541824       34.3453270693       54.0304543764  TIP3      5748            0.0000000000
     39497      5941  TIP3      OH2            16.9674754104       26.6554407541       55.3632283552  TIP3      5749            0.0000000000
     39498      5941  TIP3      H1             16.4918708788       27.1066571515       54.6467463410  TIP3      5749            0.0000000000
     39499      5941  TIP3      H2             16.9523472533       25.7361709590       55.0583381098  TIP3      5749            0.0000000000
     39500      5942  TIP3      OH2             4.1139862616       33.0774767752       53.3678419893  TIP3      5750            0.0000000000
     39501      5942  TIP3      H1              4.3225543249       32.6971193972       54.2456414766  TIP3      5750            0.0000000000
     39502      5942  TIP3      H2              3.2443294018       32.6867570519       53.1439667443  TIP3      5750            0.0000000000
     39503      5943  TIP3      OH2             6.7884858267       21.5395627270       49.3175299763  TIP3      5751            0.0000000000
     39504      5943  TIP3      H1              5.8855925064       21.4126772825       48.9512234486  TIP3      5751            0.0000000000
     39505      5943  TIP3      H2              6.6541969279       22.3695958066       49.8042292594  TIP3      5751            0.0000000000
     39506      5944  TIP3      OH2            11.4319563413       21.2043758159       52.6781968752  TIP3      5752            0.0000000000
     39507      5944  TIP3      H1             11.8239168651       20.7816563226       53.4650862561  TIP3      5752            0.0000000000
     39508      5944  TIP3      H2             10.4597356827       21.0892320900       52.8248801092  TIP3      5752            0.0000000000
     39509      5945  TIP3      OH2            14.7188474325       25.0523585613       53.5804551177  TIP3      5753            0.0000000000
     39510      5945  TIP3      H1             14.1541634201       24.8379324359       54.3619447362  TIP3      5753            0.0000000000
     39511      5945  TIP3      H2             14.5344579814       25.9796615169       53.3521703984  TIP3      5753            0.0000000000
     39512      5946  TIP3      OH2            15.4829191229       29.8604773857       39.4808910794  TIP3      5754            0.0000000000
     39513      5946  TIP3      H1             15.4568686310       29.6795015191       38.5129070829  TIP3      5754            0.0000000000
     39514      5946  TIP3      H2             16.3354795998       30.3146204029       39.5308945175  TIP3      5754            0.0000000000
     39515      5947  TIP3      OH2            11.0713021367       23.7934888874       39.9879494124  TIP3      5755            0.0000000000
     39516      5947  TIP3      H1             10.7573929928       23.7299168786       40.9081890148  TIP3      5755            0.0000000000
     39517      5947  TIP3      H2             10.7638828505       22.9159271952       39.6816054075  TIP3      5755            0.0000000000
     39518      5948  TIP3      OH2             6.8862532935       26.5275885241       50.5456717673  TIP3      5756            0.0000000000
     39519      5948  TIP3      H1              6.1625787513       26.5019138348       51.1993104883  TIP3      5756            0.0000000000
     39520      5948  TIP3      H2              6.8297915908       27.4424788545       50.2056731324  TIP3      5756            0.0000000000
     39521      5949  TIP3      OH2             6.8537818052       26.6837673160       45.4159756554  TIP3      5757            0.0000000000
     39522      5949  TIP3      H1              5.9220377133       26.3770634493       45.3111140020  TIP3      5757            0.0000000000
     39523      5949  TIP3      H2              7.2238682591       26.3168779702       44.5822167297  TIP3      5757            0.0000000000
     39524      5950  TIP3      OH2            12.3701075004       27.1442665855       44.2181694521  TIP3      5758            0.0000000000
     39525      5950  TIP3      H1             11.9850467113       27.9575992538       43.8258433302  TIP3      5758            0.0000000000
     39526      5950  TIP3      H2             13.0592422296       26.9513338633       43.5549470228  TIP3      5758            0.0000000000
     39527      5951  TIP3      OH2            11.4242768446       27.3436127220       55.6424153114  TIP3      5759            0.0000000000
     39528      5951  TIP3      H1             10.8985679804       26.5664781101       55.9530840001  TIP3      5759            0.0000000000
     39529      5951  TIP3      H2             12.2619286737       27.2211386488       56.1188782457  TIP3      5759            0.0000000000
     39530      5952  TIP3      OH2            13.3789716917       26.6292941447       47.0541315198  TIP3      5760            0.0000000000
     39531      5952  TIP3      H1             13.1399880055       27.1847551098       46.2961348343  TIP3      5760            0.0000000000
     39532      5952  TIP3      H2             13.5003851034       25.7785554760       46.5901633893  TIP3      5760            0.0000000000
     39533      5953  TIP3      OH2             4.5117057662       26.7618163084       52.2505483908  TIP3      5761            0.0000000000
     39534      5953  TIP3      H1              4.5940689053       27.1699562990       53.1298037086  TIP3      5761            0.0000000000
     39535      5953  TIP3      H2              4.0707716572       25.9234748838       52.4609137618  TIP3      5761            0.0000000000
     39536      5954  TIP3      OH2             7.8826800102       24.1602155082       39.1067846354  TIP3      5762            0.0000000000
     39537      5954  TIP3      H1              7.4279498734       23.7372071829       39.8630620214  TIP3      5762            0.0000000000
     39538      5954  TIP3      H2              7.1724290019       24.5889038756       38.6131264523  TIP3      5762            0.0000000000
     39539      5955  TIP3      OH2             1.1707038583       23.8739144943       46.2395008141  TIP3      5763            0.0000000000
     39540      5955  TIP3      H1              1.8533037915       23.8317400971       46.9403300563  TIP3      5763            0.0000000000
     39541      5955  TIP3      H2              1.6176882898       23.4974917035       45.4584944421  TIP3      5763            0.0000000000
     39542      5956  TIP3      OH2             2.4329181095       24.5892462474       41.5851735263  TIP3      5764            0.0000000000
     39543      5956  TIP3      H1              2.9463634050       25.2026403924       41.0287143506  TIP3      5764            0.0000000000
     39544      5956  TIP3      H2              1.7448074468       25.2109485405       41.9053668859  TIP3      5764            0.0000000000
     39545      5957  TIP3      OH2            12.5991148911       28.2061304343       51.6011879850  TIP3      5765            0.0000000000
     39546      5957  TIP3      H1             12.9833731381       27.5178374334       51.0208851115  TIP3      5765            0.0000000000
     39547      5957  TIP3      H2             12.1341872825       27.6796112547       52.2765417253  TIP3      5765            0.0000000000
     39548      5958  TIP3      OH2             9.3955001253       24.2359867330       46.4465358566  TIP3      5766            0.0000000000
     39549      5958  TIP3      H1              8.4630127413       24.1657684505       46.7377140799  TIP3      5766            0.0000000000
     39550      5958  TIP3      H2              9.8837458499       24.0193394904       47.2571353406  TIP3      5766            0.0000000000
     39551      5959  TIP3      OH2             4.2258517684       25.7370356226       45.3120344189  TIP3      5767            0.0000000000
     39552      5959  TIP3      H1              3.3435391640       25.9002819390       44.9232355898  TIP3      5767            0.0000000000
     39553      5959  TIP3      H2              4.4988743912       24.9004800790       44.9007977658  TIP3      5767            0.0000000000
     39554      5960  TIP3      OH2             7.8586260707       25.8206504797       42.9742221302  TIP3      5768            0.0000000000
     39555      5960  TIP3      H1              8.8272888527       25.8728074416       43.0746687964  TIP3      5768            0.0000000000
     39556      5960  TIP3      H2              7.6232102619       26.4442890370       42.2598208977  TIP3      5768            0.0000000000
     39557      5961  TIP3      OH2            13.8100364737       23.4203648488       49.6795583119  TIP3      5769            0.0000000000
     39558      5961  TIP3      H1             13.1273766116       23.4676546631       50.3851558475  TIP3      5769            0.0000000000
     39559      5961  TIP3      H2             13.2998261615       23.1631277520       48.8975131680  TIP3      5769            0.0000000000
     39560      5962  TIP3      OH2             6.5637946956       26.9561892612       40.5250086527  TIP3      5770            0.0000000000
     39561      5962  TIP3      H1              6.0315605042       26.5707464661       39.8083079292  TIP3      5770            0.0000000000
     39562      5962  TIP3      H2              7.3837200727       27.1657738900       40.0509292332  TIP3      5770            0.0000000000
     39563      5963  TIP3      OH2             4.6874203226       31.5681834723       55.5731256617  TIP3      5771            0.0000000000
     39564      5963  TIP3      H1              5.4083895827       31.7750476164       56.1908402106  TIP3      5771            0.0000000000
     39565      5963  TIP3      H2              3.9132946467       31.5979262803       56.1788845311  TIP3      5771            0.0000000000
     39566      5964  TIP3      OH2            10.6679291014       26.9353731361       48.3155394239  TIP3      5772            0.0000000000
     39567      5964  TIP3      H1             11.2945443202       26.3974326102       47.8110038186  TIP3      5772            0.0000000000
     39568      5964  TIP3      H2             10.5497425228       26.3971492249       49.1168349577  TIP3      5772            0.0000000000
     39569      5965  TIP3      OH2             5.6976571237       23.0856340173       44.7723481407  TIP3      5773            0.0000000000
     39570      5965  TIP3      H1              5.3864296943       22.1619538589       44.7638390602  TIP3      5773            0.0000000000
     39571      5965  TIP3      H2              6.4868777913       23.0175069596       44.2221367979  TIP3      5773            0.0000000000
     39572      5966  TIP3      OH2             9.3241593480       25.2656293026       50.7493324446  TIP3      5774            0.0000000000
     39573      5966  TIP3      H1              8.5009951227       25.7880635829       50.8332269147  TIP3      5774            0.0000000000
     39574      5966  TIP3      H2              9.8794641810       25.6204098290       51.4704216491  TIP3      5774            0.0000000000
     39575      5967  TIP3      OH2             9.9135036299       31.4542334759       42.4617357283  TIP3      5775            0.0000000000
     39576      5967  TIP3      H1              9.1107769410       31.0143541930       42.0951525002  TIP3      5775            0.0000000000
     39577      5967  TIP3      H2              9.6846394433       31.6304725157       43.3838294422  TIP3      5775            0.0000000000
     39578      5968  TIP3      OH2            17.1049939085       30.6893673863       51.2498593105  TIP3      5776            0.0000000000
     39579      5968  TIP3      H1             17.6642912374       31.1876956150       50.6242030612  TIP3      5776            0.0000000000
     39580      5968  TIP3      H2             16.2437193894       30.7388535228       50.7866189814  TIP3      5776            0.0000000000
     39581      5969  TIP3      OH2            13.7407337522       24.3033251669       40.6224011209  TIP3      5777            0.0000000000
     39582      5969  TIP3      H1             12.7906294977       24.4581064319       40.4850761923  TIP3      5777            0.0000000000
     39583      5969  TIP3      H2             14.0830214658       25.1546906267       40.9705153759  TIP3      5777            0.0000000000
     39584      5970  TIP3      OH2            11.3779885801       31.7801868728       53.6774762469  TIP3      5778            0.0000000000
     39585      5970  TIP3      H1             11.0547444569       31.3402847309       54.4714418245  TIP3      5778            0.0000000000
     39586      5970  TIP3      H2             11.1580876601       32.7050908038       53.8050103131  TIP3      5778            0.0000000000
     39587      5971  TIP3      OH2            14.4786655416       26.2270487419       42.2455739822  TIP3      5779            0.0000000000
     39588      5971  TIP3      H1             15.3607359548       26.0919823378       42.6531836291  TIP3      5779            0.0000000000
     39589      5971  TIP3      H2             14.5852169510       27.0460564164       41.7336938183  TIP3      5779            0.0000000000
     39590      5972  TIP3      OH2             5.0204450193       30.8847604018       48.2589576864  TIP3      5780            0.0000000000
     39591      5972  TIP3      H1              5.6739384265       30.8221294527       47.5466365755  TIP3      5780            0.0000000000
     39592      5972  TIP3      H2              5.0641374073       30.0249804135       48.7185910073  TIP3      5780            0.0000000000
     39593      5973  TIP3      OH2            12.0082961952       32.9468473869       41.4691033513  TIP3      5781            0.0000000000
     39594      5973  TIP3      H1             11.6752663068       33.8009569195       41.8085147024  TIP3      5781            0.0000000000
     39595      5973  TIP3      H2             11.2791462138       32.3409871693       41.6932032202  TIP3      5781            0.0000000000
     39596      5974  TIP3      OH2             2.0126342982       29.2873733696       53.5067653822  TIP3      5782            0.0000000000
     39597      5974  TIP3      H1              2.1820411614       28.8444544555       54.3594019659  TIP3      5782            0.0000000000
     39598      5974  TIP3      H2              1.3923368831       28.6780489438       53.0680026182  TIP3      5782            0.0000000000
     39599      5975  TIP3      OH2             9.0256496045       28.8477223592       55.6830600150  TIP3      5783            0.0000000000
     39600      5975  TIP3      H1              8.7058716863       28.5360291950       54.8240373919  TIP3      5783            0.0000000000
     39601      5975  TIP3      H2              9.9486673776       28.5233296677       55.6815670401  TIP3      5783            0.0000000000
     39602      5976  TIP3      OH2            13.6961142365       34.2451997537       53.5638950606  TIP3      5784            0.0000000000
     39603      5976  TIP3      H1             12.7555574443       34.3154877195       53.3874355915  TIP3      5784            0.0000000000
     39604      5976  TIP3      H2             13.6737419163       34.4255496734       54.5356076293  TIP3      5784            0.0000000000
     39605      5977  TIP3      OH2            19.3839511552       26.3563290416       42.0211176260  TIP3      5785            0.0000000000
     39606      5977  TIP3      H1             18.8119662789       26.0755314933       41.2829780264  TIP3      5785            0.0000000000
     39607      5977  TIP3      H2             19.4588611408       27.3064636201       41.7722765799  TIP3      5785            0.0000000000
     39608      5978  TIP3      OH2            19.3836588044       32.2117859197       54.8281282086  TIP3      5786            0.0000000000
     39609      5978  TIP3      H1             18.4910557102       32.4469652651       54.4771287433  TIP3      5786            0.0000000000
     39610      5978  TIP3      H2             19.9158780142       32.1575835615       54.0050176464  TIP3      5786            0.0000000000
     39611      5979  TIP3      OH2            17.8083756184       34.9455904757       42.6337761245  TIP3      5787            0.0000000000
     39612      5979  TIP3      H1             17.2424466955       34.2011113720       42.7606728950  TIP3      5787            0.0000000000
     39613      5979  TIP3      H2             17.9174535478       35.0305170070       41.6700355074  TIP3      5787            0.0000000000
     39614      5980  TIP3      OH2            14.8793944245       30.0045506652       49.5363876372  TIP3      5788            0.0000000000
     39615      5980  TIP3      H1             13.9392286027       29.8017156924       49.4179396746  TIP3      5788            0.0000000000
     39616      5980  TIP3      H2             15.3105011533       29.2495399926       49.0943867547  TIP3      5788            0.0000000000
     39617      5981  TIP3      OH2             7.4432510438       34.2847191625       45.5240069841  TIP3      5789            0.0000000000
     39618      5981  TIP3      H1              7.8925505857       35.1414365776       45.4696451659  TIP3      5789            0.0000000000
     39619      5981  TIP3      H2              6.5263519783       34.5439553604       45.3513107987  TIP3      5789            0.0000000000
     39620      5982  TIP3      OH2             3.1662712403       29.1793495128       40.2044249102  TIP3      5790            0.0000000000
     39621      5982  TIP3      H1              3.7478490324       29.8321662050       40.6312135409  TIP3      5790            0.0000000000
     39622      5982  TIP3      H2              2.2722783090       29.4917247371       40.4476752656  TIP3      5790            0.0000000000
     39623      5983  TIP3      OH2             8.7871906583       31.9707023231       45.2154006497  TIP3      5791            0.0000000000
     39624      5983  TIP3      H1              8.5812110423       32.9368774490       45.2044994998  TIP3      5791            0.0000000000
     39625      5983  TIP3      H2              7.9225286833       31.6871632603       45.5493418269  TIP3      5791            0.0000000000
     39626      5984  TIP3      OH2             9.5710402889       35.8680311603       51.2436243226  TIP3      5792            0.0000000000
     39627      5984  TIP3      H1              9.7149349964       36.8197832603       51.1712202651  TIP3      5792            0.0000000000
     39628      5984  TIP3      H2              9.8804236582       35.7163372822       52.1485194103  TIP3      5792            0.0000000000
     39629      5985  TIP3      OH2            12.7890507226       32.1891026104       51.1799236798  TIP3      5793            0.0000000000
     39630      5985  TIP3      H1             12.4478078991       31.9702441921       52.0695773080  TIP3      5793            0.0000000000
     39631      5985  TIP3      H2             13.4228425818       31.4772707983       51.0064822767  TIP3      5793            0.0000000000
     39632      5986  TIP3      OH2            15.1246851761       33.2397909308       40.2526800048  TIP3      5794            0.0000000000
     39633      5986  TIP3      H1             15.4216118411       32.8029092570       41.0780835052  TIP3      5794            0.0000000000
     39634      5986  TIP3      H2             14.1697469529       33.0876492962       40.3490665151  TIP3      5794            0.0000000000
     39635      5987  TIP3      OH2             3.6632398028       24.0226138297       53.0533363640  TIP3      5795            0.0000000000
     39636      5987  TIP3      H1              2.7567862710       24.3745185891       53.0352233555  TIP3      5795            0.0000000000
     39637      5987  TIP3      H2              3.5519746396       23.1777505998       53.5174249328  TIP3      5795            0.0000000000
     39638      5988  TIP3      OH2            15.8940056281       31.8349679158       42.4905045561  TIP3      5796            0.0000000000
     39639      5988  TIP3      H1             15.6667397376       31.0836767811       43.0739497077  TIP3      5796            0.0000000000
     39640      5988  TIP3      H2             16.8382716789       31.9531827063       42.6896080857  TIP3      5796            0.0000000000
     39641      5989  TIP3      OH2             3.2787601441       35.7716655302       51.4753862433  TIP3      5797            0.0000000000
     39642      5989  TIP3      H1              3.5680590528       34.8576360665       51.5211562403  TIP3      5797            0.0000000000
     39643      5989  TIP3      H2              3.4778732942       36.1160364921       52.3546217480  TIP3      5797            0.0000000000
     39644      5990  TIP3      OH2             9.2594723114       34.3144977169       38.7433736603  TIP3      5798            0.0000000000
     39645      5990  TIP3      H1              9.3395815912       33.5417194266       38.1642382043  TIP3      5798            0.0000000000
     39646      5990  TIP3      H2              8.8238926387       33.8999068482       39.5203341240  TIP3      5798            0.0000000000
     39647      5991  TIP3      OH2             8.0001766654       33.8266526611       41.1931743140  TIP3      5799            0.0000000000
     39648      5991  TIP3      H1              8.2824138466       33.3379316081       41.9734388673  TIP3      5799            0.0000000000
     39649      5991  TIP3      H2              8.1277279818       34.7594015833       41.4727821938  TIP3      5799            0.0000000000
     39650      5992  TIP3      OH2             4.5715419882       31.1106586229       41.7083063174  TIP3      5800            0.0000000000
     39651      5992  TIP3      H1              3.8496973860       31.5103381054       42.2335949759  TIP3      5800            0.0000000000
     39652      5992  TIP3      H2              5.0686701438       31.8952318834       41.4058760815  TIP3      5800            0.0000000000
     39653      5993  TIP3      OH2            12.3955880866       23.7956786855       52.0202530027  TIP3      5801            0.0000000000
     39654      5993  TIP3      H1             13.1111253384       23.8558414481       52.6623115946  TIP3      5801            0.0000000000
     39655      5993  TIP3      H2             12.0123025182       22.9192011280       52.2237445519  TIP3      5801            0.0000000000
     39656      5994  TIP3      OH2            13.1368589947       23.3628687814       43.1048443466  TIP3      5802            0.0000000000
     39657      5994  TIP3      H1             13.3710603290       23.8265370757       42.2757862427  TIP3      5802            0.0000000000
     39658      5994  TIP3      H2             13.7183686809       23.8020681861       43.7385687008  TIP3      5802            0.0000000000
     39659      5995  TIP3      OH2            10.8723054465       35.5558355293       41.9338346447  TIP3      5803            0.0000000000
     39660      5995  TIP3      H1             10.0198179904       36.0290851816       41.9779856138  TIP3      5803            0.0000000000
     39661      5995  TIP3      H2             11.3438529632       36.0614679933       41.2554592146  TIP3      5803            0.0000000000
     39662      5996  TIP3      OH2            10.3602027988       25.1371344398       43.9236592990  TIP3      5804            0.0000000000
     39663      5996  TIP3      H1             11.1594947363       25.6941760908       43.9694179417  TIP3      5804            0.0000000000
     39664      5996  TIP3      H2             10.1172078764       24.9742587914       44.8547480707  TIP3      5804            0.0000000000
     39665      5997  TIP3      OH2            10.9213039317       26.1420231592       53.1152477434  TIP3      5805            0.0000000000
     39666      5997  TIP3      H1             10.9979888764       26.7011150640       53.9149556820  TIP3      5805            0.0000000000
     39667      5997  TIP3      H2             11.5859290419       25.4469400598       53.2121625577  TIP3      5805            0.0000000000
     39668      5998  TIP3      OH2            11.2152086346       22.1735353187       44.8027399503  TIP3      5806            0.0000000000
     39669      5998  TIP3      H1             10.8983030262       22.8188055369       45.4557913049  TIP3      5806            0.0000000000
     39670      5998  TIP3      H2             11.9137050890       22.7181679779       44.3640101659  TIP3      5806            0.0000000000
     39671      5999  TIP3      OH2             8.2784391551      -36.4679998470       41.9677821982  TIP3      5807            0.0000000000
     39672      5999  TIP3      H1              8.3093988308      -35.6815933819       41.3907848775  TIP3      5807            0.0000000000
     39673      5999  TIP3      H2              7.9805526703      -36.0895737172       42.8089315971  TIP3      5807            0.0000000000
     39674      6000  TIP3      OH2             6.8770538124       23.2799477691       41.5178710827  TIP3      5808            0.0000000000
     39675      6000  TIP3      H1              6.8239303270       24.1774944577       41.9016273561  TIP3      5808            0.0000000000
     39676      6000  TIP3      H2              7.7861064349       23.0346677748       41.7803631329  TIP3      5808            0.0000000000
     39677      6001  TIP3      OH2            17.1003242350       24.0092526521       53.9605554418  TIP3      5809            0.0000000000
     39678      6001  TIP3      H1             16.1734890021       24.3265883562       53.8320243804  TIP3      5809            0.0000000000
     39679      6001  TIP3      H2             17.4020987251       23.9966116018       53.0368785511  TIP3      5809            0.0000000000
     39680      6002  TIP3      OH2            15.7169751242       27.7959385969       47.9633298365  TIP3      5810            0.0000000000
     39681      6002  TIP3      H1             14.8901031130       27.3494613293       47.6998885912  TIP3      5810            0.0000000000
     39682      6002  TIP3      H2             16.1974132089       27.1122344562       48.4832954439  TIP3      5810            0.0000000000
     39683      6003  TIP3      OH2             5.1331126172       33.7059171326       40.5733395620  TIP3      5811            0.0000000000
     39684      6003  TIP3      H1              5.7986350783       34.3593704222       40.8329723113  TIP3      5811            0.0000000000
     39685      6003  TIP3      H2              5.6354064674       33.2478766044       39.8745987769  TIP3      5811            0.0000000000
     39686      6004  TIP3      OH2             3.4534966151       26.3961958028       39.7002884497  TIP3      5812            0.0000000000
     39687      6004  TIP3      H1              3.4724779682       27.3524757818       39.9144338921  TIP3      5812            0.0000000000
     39688      6004  TIP3      H2              2.5613684225       26.2221127903       39.3955119763  TIP3      5812            0.0000000000
     39689      6005  TIP3      OH2             4.2704062143       21.1796359967       48.4490633394  TIP3      5813            0.0000000000
     39690      6005  TIP3      H1              4.0777206135       21.1968616625       47.4853152868  TIP3      5813            0.0000000000
     39691      6005  TIP3      H2              3.8564330974       20.3267180895       48.6990310346  TIP3      5813            0.0000000000
     39692      6006  TIP3      OH2             3.2329812918       35.1149395039       44.5631279475  TIP3      5814            0.0000000000
     39693      6006  TIP3      H1              2.3617444212       35.5365963110       44.5522127125  TIP3      5814            0.0000000000
     39694      6006  TIP3      H2              3.7229024109       35.5986317667       43.8916919118  TIP3      5814            0.0000000000
     39695      6007  TIP3      OH2             7.3982061614       36.3500247185       57.7010432729  TIP3      5815            0.0000000000
     39696      6007  TIP3      H1              8.2525620418       35.9486296077       57.8719080278  TIP3      5815            0.0000000000
     39697      6007  TIP3      H2              7.3212033780       36.2104153928       56.7403825170  TIP3      5815            0.0000000000
     39698      6008  TIP3      OH2            11.2722119517       36.1145573411       38.9916001574  TIP3      5816            0.0000000000
     39699      6008  TIP3      H1             10.5278867314       35.4922657214       39.0708868962  TIP3      5816            0.0000000000
     39700      6008  TIP3      H2             11.9744583968       35.5869613217       38.6094522513  TIP3      5816            0.0000000000
     39701      6009  TIP3      OH2            13.7076395714       34.6746603702       56.0858321226  TIP3      5817            0.0000000000
     39702      6009  TIP3      H1             13.2271055274       34.0015817792       56.5986128926  TIP3      5817            0.0000000000
     39703      6009  TIP3      H2             14.3122889328       35.0454766285       56.7428168567  TIP3      5817            0.0000000000
     39704      6010  TIP3      OH2            15.9499215394       35.8749067832       39.2074358260  TIP3      5818            0.0000000000
     39705      6010  TIP3      H1             16.2204898312       35.0406579469       39.6031312652  TIP3      5818            0.0000000000
     39706      6010  TIP3      H2             16.6715990038       36.0917616525       38.5845159126  TIP3      5818            0.0000000000
     39707      6011  TIP3      OH2             2.3538258310       31.5083008959       56.8630653864  TIP3      5819            0.0000000000
     39708      6011  TIP3      H1              2.5019942149       30.5977160035       56.5582133051  TIP3      5819            0.0000000000
     39709      6011  TIP3      H2              1.6118624815       31.7982289600       56.3004815349  TIP3      5819            0.0000000000
     39710      6012  TIP3      OH2             6.6911496017       31.8486003382       38.8897909250  TIP3      5820            0.0000000000
     39711      6012  TIP3      H1              6.8404166654       31.0923130059       39.4801507582  TIP3      5820            0.0000000000
     39712      6012  TIP3      H2              7.4436427194       31.7442373427       38.2751028783  TIP3      5820            0.0000000000
     39713      6013  TIP3      OH2             9.0756796500       31.5112040368       56.2457885281  TIP3      5821            0.0000000000
     39714      6013  TIP3      H1              8.7150457010       31.8134863518       55.3907696687  TIP3      5821            0.0000000000
     39715      6013  TIP3      H2              9.1323993434       30.5274333487       56.1490965252  TIP3      5821            0.0000000000
     39716      6014  TIP3      OH2            12.1356801692       32.9936065803       38.6663725822  TIP3      5822            0.0000000000
     39717      6014  TIP3      H1             11.8309658457       33.0834461184       39.5834363898  TIP3      5822            0.0000000000
     39718      6014  TIP3      H2             11.9350731749       32.0417473110       38.5226623749  TIP3      5822            0.0000000000
     39719      6015  TIP3      OH2            14.7566806781       31.3723523020       53.6478868387  TIP3      5823            0.0000000000
     39720      6015  TIP3      H1             15.5442030820       31.9484105339       53.5641495485  TIP3      5823            0.0000000000
     39721      6015  TIP3      H2             14.0575026482       32.0384231361       53.6925222088  TIP3      5823            0.0000000000
     39722      6016  TIP3      OH2             3.2690937415       28.7625074826       56.2522362297  TIP3      5824            0.0000000000
     39723      6016  TIP3      H1              3.6772843984       27.8947670792       56.1587283710  TIP3      5824            0.0000000000
     39724      6016  TIP3      H2              3.0282158343       28.7591402525       57.1929141028  TIP3      5824            0.0000000000
     39725      6017  TIP3      OH2             7.9213621098       29.8781287322       41.3589225276  TIP3      5825            0.0000000000
     39726      6017  TIP3      H1              7.3631530603       29.3269984365       41.9239473119  TIP3      5825            0.0000000000
     39727      6017  TIP3      H2              8.1879627452       29.2303934510       40.6581796643  TIP3      5825            0.0000000000
     39728      6018  TIP3      OH2             7.1591724638       27.6949609414       53.6043786711  TIP3      5826            0.0000000000
     39729      6018  TIP3      H1              6.5627308493       28.4160058810       53.8630333105  TIP3      5826            0.0000000000
     39730      6018  TIP3      H2              7.5575199909       28.0630764617       52.7974953555  TIP3      5826            0.0000000000
     39731      6019  TIP3      OH2             8.9685291493       28.1134269829       39.5173246002  TIP3      5827            0.0000000000
     39732      6019  TIP3      H1              8.8190981345       28.0200957961       38.5546457363  TIP3      5827            0.0000000000
     39733      6019  TIP3      H2              9.9450988997       28.1624106506       39.5856228879  TIP3      5827            0.0000000000
     39734      6020  TIP3      OH2            12.2343306313       30.2614152895       56.9418780480  TIP3      5828            0.0000000000
     39735      6020  TIP3      H1             13.1919148270       30.2513913190       56.8186190159  TIP3      5828            0.0000000000
     39736      6020  TIP3      H2             12.0629973023       29.4955298988       57.5123228756  TIP3      5828            0.0000000000
     39737      6021  TIP3      OH2            18.3085257916       30.4215509641       38.9288570089  TIP3      5829            0.0000000000
     39738      6021  TIP3      H1             18.1087400408       30.0464955257       38.0554688865  TIP3      5829            0.0000000000
     39739      6021  TIP3      H2             18.3761041674       31.3890794041       38.7418539370  TIP3      5829            0.0000000000
     39740      6022  TIP3      OH2             7.5665864545       25.0719508847       54.6624083135  TIP3      5830            0.0000000000
     39741      6022  TIP3      H1              7.6835977976       24.3630985986       54.0032368956  TIP3      5830            0.0000000000
     39742      6022  TIP3      H2              7.5223890729       25.8830866044       54.1138515614  TIP3      5830            0.0000000000
     39743      6023  TIP3      OH2             7.9708269398       23.4547425978       52.2175894724  TIP3      5831            0.0000000000
     39744      6023  TIP3      H1              8.4794347282       23.9189796394       51.5103878168  TIP3      5831            0.0000000000
     39745      6023  TIP3      H2              7.0773880008       23.3761809298       51.8112807308  TIP3      5831            0.0000000000
     39746      6024  TIP3      OH2             9.5096884085       28.9465283389       52.4612941853  TIP3      5832            0.0000000000
     39747      6024  TIP3      H1             10.2619370095       28.7772138703       51.8853401882  TIP3      5832            0.0000000000
     39748      6024  TIP3      H2              9.1433309696       29.7762248455       52.1187183517  TIP3      5832            0.0000000000
     39749      6025  TIP3      OH2            13.9036596584       26.6950502541       57.4197446889  TIP3      5833            0.0000000000
     39750      6025  TIP3      H1             14.1402301514       25.7602052574       57.3296148774  TIP3      5833            0.0000000000
     39751      6025  TIP3      H2             14.7688367966       27.1387710230       57.4537299397  TIP3      5833            0.0000000000
     39752      6026  TIP3      OH2            15.2454746522       29.4908540055       55.5862548734  TIP3      5834            0.0000000000
     39753      6026  TIP3      H1             14.9920846147       30.2131943997       54.9712024058  TIP3      5834            0.0000000000
     39754      6026  TIP3      H2             16.2014421768       29.4729842107       55.4016346844  TIP3      5834            0.0000000000
     39755      6027  TIP3      OH2             6.0288057323       26.3240525990       56.5824523916  TIP3      5835            0.0000000000
     39756      6027  TIP3      H1              5.2594806089       25.7456880661       56.4151184527  TIP3      5835            0.0000000000
     39757      6027  TIP3      H2              6.6831034710       25.9532141142       55.9611626199  TIP3      5835            0.0000000000
     39758      6028  TIP3      OH2             8.7613758324       20.8913809583       52.6020989020  TIP3      5836            0.0000000000
     39759      6028  TIP3      H1              8.5765778388       21.8544693917       52.5076390535  TIP3      5836            0.0000000000
     39760      6028  TIP3      H2              8.0107105295       20.5242979451       52.1033381662  TIP3      5836            0.0000000000
     39761      6029  TIP3      OH2            10.0286517434       25.2210606621       56.2341777778  TIP3      5837            0.0000000000
     39762      6029  TIP3      H1              9.7143931360       24.9873918739       57.1293478292  TIP3      5837            0.0000000000
     39763      6029  TIP3      H2              9.2477235673       25.0173388173       55.6922727067  TIP3      5837            0.0000000000
     39764      6030  TIP3      OH2            12.7511938246       24.3654176452       55.3245795000  TIP3      5838            0.0000000000
     39765      6030  TIP3      H1             11.7860580579       24.4178812352       55.4324398065  TIP3      5838            0.0000000000
     39766      6030  TIP3      H2             13.0149507298       23.7237147216       56.0118223139  TIP3      5838            0.0000000000
     39767      6031  TIP3      OH2            14.3335253600       22.9834517866       57.2230065498  TIP3      5839            0.0000000000
     39768      6031  TIP3      H1             14.2840093382       22.0055771127       57.2537173471  TIP3      5839            0.0000000000
     39769      6031  TIP3      H2             14.0837559161       23.2760026255       58.1218795439  TIP3      5839            0.0000000000
     39770      6032  TIP3      OH2             4.1049663323       24.2605592111       56.3390019657  TIP3      5840            0.0000000000
     39771      6032  TIP3      H1              4.3547174192       23.5248205718       55.7528431329  TIP3      5840            0.0000000000
     39772      6032  TIP3      H2              4.0174599982       23.8119828625       57.2028260885  TIP3      5840            0.0000000000
     39773      6033  TIP3      OH2             8.9739308000       20.2848088386       55.3055348704  TIP3      5841            0.0000000000
     39774      6033  TIP3      H1              9.6533212211       19.5812063101       55.2888091732  TIP3      5841            0.0000000000
     39775      6033  TIP3      H2              8.8591868599       20.4271813557       54.3453998958  TIP3      5841            0.0000000000
     39776      6034  TIP3      OH2             9.3358524796       21.8974342380       57.4223818453  TIP3      5842            0.0000000000
     39777      6034  TIP3      H1              9.1623871786       21.3918842968       56.5896081626  TIP3      5842            0.0000000000
     39778      6034  TIP3      H2              8.7364255761       22.6620044301       57.3216993206  TIP3      5842            0.0000000000
     39779      6035  TIP3      OH2             2.3853669048       33.3877058994       40.0353490345  TIP3      5843            0.0000000000
     39780      6035  TIP3      H1              3.3355469677       33.4886021997       40.2640475691  TIP3      5843            0.0000000000
     39781      6035  TIP3      H2              2.4395451513       32.7132149812       39.3204225770  TIP3      5843            0.0000000000
     39782      6036  TIP3      OH2            17.5120718758       33.0265602012       57.4414097756  TIP3      5844            0.0000000000
     39783      6036  TIP3      H1             16.6179336236       32.9746646391       57.8345806750  TIP3      5844            0.0000000000
     39784      6036  TIP3      H2             17.9066808058       33.8101428483       57.8899172943  TIP3      5844            0.0000000000
     39785      6037  TIP3      OH2            18.8368657029       31.3170768239       42.8733793703  TIP3      5845            0.0000000000
     39786      6037  TIP3      H1             19.6814639533       31.7498109431       43.0797042387  TIP3      5845            0.0000000000
     39787      6037  TIP3      H2             18.8192020339       30.6187863094       43.5611732142  TIP3      5845            0.0000000000
     39788      6038  TIP3      OH2            19.1921100770       29.4234443799       44.7761857144  TIP3      5846            0.0000000000
     39789      6038  TIP3      H1             18.4429437099       28.9184767249       45.1677719556  TIP3      5846            0.0000000000
     39790      6038  TIP3      H2             19.7934117590       29.5486356059       45.5396258643  TIP3      5846            0.0000000000
     39791      6039  TIP3      OH2            18.9566989882       32.1127568763       49.7827175127  TIP3      5847            0.0000000000
     39792      6039  TIP3      H1             19.7590567573       31.7401666417       49.3798824726  TIP3      5847            0.0000000000
     39793      6039  TIP3      H2             19.0959078904       33.0669292250       49.6061655147  TIP3      5847            0.0000000000
     39794      6040  TIP3      OH2            17.4434797198       34.9979190461       52.0772883645  TIP3      5848            0.0000000000
     39795      6040  TIP3      H1             16.7479002174       35.3803854591       52.6110525614  TIP3      5848            0.0000000000
     39796      6040  TIP3      H2             16.9447035255       34.6421501173       51.3049516461  TIP3      5848            0.0000000000
     39797      6041  TIP3      OH2            19.5026125370       29.2389945023       41.1631501934  TIP3      5849            0.0000000000
     39798      6041  TIP3      H1             18.9295304950       29.5978240308       40.4493888946  TIP3      5849            0.0000000000
     39799      6041  TIP3      H2             19.3978203719       29.9530114064       41.8237846315  TIP3      5849            0.0000000000
     39800      6042  TIP3      OH2            17.8678563860       26.4739240204       39.6740246150  TIP3      5850            0.0000000000
     39801      6042  TIP3      H1             17.9435685596       27.1407116921       38.9808873238  TIP3      5850            0.0000000000
     39802      6042  TIP3      H2             17.6806917048       25.6521352051       39.1795925102  TIP3      5850            0.0000000000
     39803      6043  TIP3      OH2            17.0130476112       27.8948523932       45.3387719745  TIP3      5851            0.0000000000
     39804      6043  TIP3      H1             16.8652766381       26.9402374727       45.3022068652  TIP3      5851            0.0000000000
     39805      6043  TIP3      H2             16.6861403400       28.1118641539       46.2298379603  TIP3      5851            0.0000000000
     39806      6044  TIP3      OH2             2.0242922738       29.9864504523       49.3976490975  TIP3      5852            0.0000000000
     39807      6044  TIP3      H1              2.1987760047       29.8993997122       48.4342624864  TIP3      5852            0.0000000000
     39808      6044  TIP3      H2              2.9162248331       29.8054821019       49.7525065889  TIP3      5852            0.0000000000
     39809      6045  TIP3      OH2            17.8725881370       29.8651293381       55.0307809405  TIP3      5853            0.0000000000
     39810      6045  TIP3      H1             18.4830523201       29.1087116655       55.1642782653  TIP3      5853            0.0000000000
     39811      6045  TIP3      H2             18.4787624133       30.6360085473       55.0352099506  TIP3      5853            0.0000000000
     39812      6046  TIP3      OH2            19.3755625968       27.7439165430       55.6816968822  TIP3      5854            0.0000000000
     39813      6046  TIP3      H1             18.4922384600       27.3456090588       55.5269177288  TIP3      5854            0.0000000000
     39814      6046  TIP3      H2             19.9450716480       26.9606208892       55.6048221395  TIP3      5854            0.0000000000
     39815      6047  TIP3      OH2            17.1163627540       23.9515963654       38.8113604390  TIP3      5855            0.0000000000
     39816      6047  TIP3      H1             17.7036584968       23.5110345747       39.4544313150  TIP3      5855            0.0000000000
     39817      6047  TIP3      H2             16.2510085414       23.5333162953       38.9637406983  TIP3      5855            0.0000000000
     39818      6048  TIP3      OH2            16.6575172656       25.4781327494       43.7556764780  TIP3      5856            0.0000000000
     39819      6048  TIP3      H1             16.9771424446       24.5588572192       43.9161228525  TIP3      5856            0.0000000000
     39820      6048  TIP3      H2             17.4762246913       25.8906057197       43.4460046470  TIP3      5856            0.0000000000
     39821      6049  TIP3      OH2            17.3192840048       26.0245726626       49.2433753521  TIP3      5857            0.0000000000
     39822      6049  TIP3      H1             18.2802256110       26.2543164391       49.2297316079  TIP3      5857            0.0000000000
     39823      6049  TIP3      H2             17.1317035218       26.1642482300       50.1831287780  TIP3      5857            0.0000000000
     39824      6050  TIP3      OH2            17.3881547069       26.7448639869       52.0318424082  TIP3      5858            0.0000000000
     39825      6050  TIP3      H1             16.5026450624       27.0344167328       52.3398189477  TIP3      5858            0.0000000000
     39826      6050  TIP3      H2             17.8197698654       27.6045951396       51.8019644865  TIP3      5858            0.0000000000
     39827      6051  TIP3      OH2             1.6383455555       25.2863869468       55.5612595808  TIP3      5859            0.0000000000
     39828      6051  TIP3      H1              2.5751578039       25.0705735240       55.7472479319  TIP3      5859            0.0000000000
     39829      6051  TIP3      H2              1.1797062161       24.4601311809       55.8281080815  TIP3      5859            0.0000000000
     39830      6052  TIP3      OH2            19.6555116458       20.8112901692       57.3624815942  TIP3      5860            0.0000000000
     39831      6052  TIP3      H1             20.0098182901       20.1493418027       56.7427517824  TIP3      5860            0.0000000000
     39832      6052  TIP3      H2             19.7589693270       21.6249698146       56.8294838322  TIP3      5860            0.0000000000
     39833      6053  TIP3      OH2            17.3546534655       22.7683908840       43.8453686315  TIP3      5861            0.0000000000
     39834      6053  TIP3      H1             17.5663888103       22.3318616146       44.6986434489  TIP3      5861            0.0000000000
     39835      6053  TIP3      H2             16.7536923122       22.1290635229       43.4083352303  TIP3      5861            0.0000000000
     39836      6054  TIP3      OH2             2.8351730849       23.5714350135       48.4021035289  TIP3      5862            0.0000000000
     39837      6054  TIP3      H1              3.2955157711       22.7456834060       48.6595574693  TIP3      5862            0.0000000000
     39838      6054  TIP3      H2              3.3802729283       24.2627654367       48.7974529673  TIP3      5862            0.0000000000
     39839      6055  TIP3      OH2             1.1182950621       26.5771674489       49.4401093255  TIP3      5863            0.0000000000
     39840      6055  TIP3      H1              1.6816461864       26.3253558833       48.6800929847  TIP3      5863            0.0000000000
     39841      6055  TIP3      H2              1.5869829790       27.3802707612       49.7093737402  TIP3      5863            0.0000000000
     39842      6056  TIP3      OH2            19.1779230661       22.9082198223       55.7180279681  TIP3      5864            0.0000000000
     39843      6056  TIP3      H1             18.2408284968       23.1797829432       55.6640121672  TIP3      5864            0.0000000000
     39844      6056  TIP3      H2             19.2115955127       22.3572720168       54.9211172570  TIP3      5864            0.0000000000
     39845      6057  TIP3      OH2            19.1671148173       22.8022994123       40.3984731216  TIP3      5865            0.0000000000
     39846      6057  TIP3      H1             19.5802797623       22.0898489979       39.8615921342  TIP3      5865            0.0000000000
     39847      6057  TIP3      H2             19.8752805932       23.4639325889       40.4493668247  TIP3      5865            0.0000000000
     39848      6058  TIP3      OH2             1.4788108860       22.8482358858       43.5232779266  TIP3      5866            0.0000000000
     39849      6058  TIP3      H1              0.5380862402       23.0091484443       43.3582480428  TIP3      5866            0.0000000000
     39850      6058  TIP3      H2              1.9012472939       23.3241339434       42.7892577460  TIP3      5866            0.0000000000
     39851      6059  TIP3      OH2             1.4308921727       21.4866918751       51.8064110026  TIP3      5867            0.0000000000
     39852      6059  TIP3      H1              0.7643272407       21.2952814945       52.4896726553  TIP3      5867            0.0000000000
     39853      6059  TIP3      H2              0.9746439822       22.1616006517       51.2678781378  TIP3      5867            0.0000000000
     39854      6060  TIP3      OH2             3.6663411952       34.7459361976       55.9879527696  TIP3      5868            0.0000000000
     39855      6060  TIP3      H1              2.8163448979       34.8847943003       55.5312975541  TIP3      5868            0.0000000000
     39856      6060  TIP3      H2              3.3905182052       34.5803399951       56.8952428565  TIP3      5868            0.0000000000
     39857      6061  TIP3      OH2             6.6148610007       35.6813558468       52.3188680882  TIP3      5869            0.0000000000
     39858      6061  TIP3      H1              6.1703323002       36.4608090854       51.9511535661  TIP3      5869            0.0000000000
     39859      6061  TIP3      H2              7.4758847955       35.6665932176       51.8777779859  TIP3      5869            0.0000000000
     39860      6062  TIP3      OH2            18.1989696926       20.9984582508       53.5716077520  TIP3      5870            0.0000000000
     39861      6062  TIP3      H1             17.3702349255       21.2972697004       53.1592805400  TIP3      5870            0.0000000000
     39862      6062  TIP3      H2             18.3665379751       20.1756201087       53.0539971238  TIP3      5870            0.0000000000
     39863      6063  TIP3      OH2             5.7736535686       36.0337843968       47.6136474657  TIP3      5871            0.0000000000
     39864      6063  TIP3      H1              5.3877587762       35.2738608089       48.0781470299  TIP3      5871            0.0000000000
     39865      6063  TIP3      H2              6.3501933907       36.4003052102       48.3071467907  TIP3      5871            0.0000000000
     39866      6064  TIP3      OH2            11.5858458741       22.4257494366       47.8536342045  TIP3      5872            0.0000000000
     39867      6064  TIP3      H1             10.9123393363       21.7845517911       48.1373441160  TIP3      5872            0.0000000000
     39868      6064  TIP3      H2             12.1402385426       21.8899905561       47.2740701263  TIP3      5872            0.0000000000
     39869      6065  TIP3      OH2            16.7248248405       20.4724565805       47.9171890293  TIP3      5873            0.0000000000
     39870      6065  TIP3      H1             17.3366401134       21.0659530668       47.4112378777  TIP3      5873            0.0000000000
     39871      6065  TIP3      H2             15.8424470278       20.8342481675       47.6886432682  TIP3      5873            0.0000000000
     39872      6066  TIP3      OH2            18.3924749632       21.7221657670       46.1950839426  TIP3      5874            0.0000000000
     39873      6066  TIP3      H1             19.0796611565       21.1474245179       45.7810878961  TIP3      5874            0.0000000000
     39874      6066  TIP3      H2             18.8997812093       22.5589106247       46.3030213327  TIP3      5874            0.0000000000
     39875      6067  TIP3      OH2             3.9675935354       21.0485706903       45.7042891293  TIP3      5875            0.0000000000
     39876      6067  TIP3      H1              3.1686228343       20.8577446994       45.1768115638  TIP3      5875            0.0000000000
     39877      6067  TIP3      H2              4.4224864546       20.1858142243       45.6435521225  TIP3      5875            0.0000000000
     39878      6068  TIP3      OH2             2.7275702500       20.8031489544       41.4253587945  TIP3      5876            0.0000000000
     39879      6068  TIP3      H1              3.2185925932       21.4553963491       40.8917736222  TIP3      5876            0.0000000000
     39880      6068  TIP3      H2              2.1571672883       21.3771748735       41.9622550764  TIP3      5876            0.0000000000
     39881      6069  TIP3      OH2             8.4285015864       20.9785555162       45.4902132260  TIP3      5877            0.0000000000
     39882      6069  TIP3      H1              9.3300207431       21.3325315084       45.4153864987  TIP3      5877            0.0000000000
     39883      6069  TIP3      H2              8.3958707609       20.7564188905       46.4196511384  TIP3      5877            0.0000000000
     39884      6070  TIP3      OH2            14.1451629201       20.9947729625       47.1133114450  TIP3      5878            0.0000000000
     39885      6070  TIP3      H1             14.0934158571       21.1080991070       46.1554684578  TIP3      5878            0.0000000000
     39886      6070  TIP3      H2             13.7652885317       20.0910798990       47.2417451876  TIP3      5878            0.0000000000
     39887      6071  TIP3      OH2            15.4113981442       21.0244691655       42.7981329879  TIP3      5879            0.0000000000
     39888      6071  TIP3      H1             14.6624804734       21.6182326096       42.6394191712  TIP3      5879            0.0000000000
     39889      6071  TIP3      H2             14.9715662375       20.1722239089       43.0316631750  TIP3      5879            0.0000000000
     39890      6072  TIP3      OH2             4.5550697140       22.7476690913       39.9365046700  TIP3      5880            0.0000000000
     39891      6072  TIP3      H1              5.0865674113       22.1297008164       39.4079689643  TIP3      5880            0.0000000000
     39892      6072  TIP3      H2              5.2208108222       23.0694577991       40.5714281251  TIP3      5880            0.0000000000
     39893      6073  TIP3      OH2             9.5812570037       22.9922257142       42.3404761659  TIP3      5881            0.0000000000
     39894      6073  TIP3      H1              9.8341666993       22.4114108799       43.0771806259  TIP3      5881            0.0000000000
     39895      6073  TIP3      H2              9.6529249794       23.8577926565       42.7989077648  TIP3      5881            0.0000000000
     39896      6074  TIP3      OH2             3.8448940153       21.5947738918       55.1524183656  TIP3      5882            0.0000000000
     39897      6074  TIP3      H1              3.4552461731       20.7978820429       55.5591265724  TIP3      5882            0.0000000000
     39898      6074  TIP3      H2              4.7528081981       21.5510381019       55.5352666650  TIP3      5882            0.0000000000
     39899      6075  TIP3      OH2             5.8446580912       20.9757850475       56.7982076992  TIP3      5883            0.0000000000
     39900      6075  TIP3      H1              6.7376365061       20.6388935888       56.5809605065  TIP3      5883            0.0000000000
     39901      6075  TIP3      H2              5.4711132472       20.1683258276       57.2008672417  TIP3      5883            0.0000000000
     39902      6076  TIP3      OH2            14.2481765209       20.2661711024       56.9488885740  TIP3      5884            0.0000000000
     39903      6076  TIP3      H1             14.3442625257       19.7877452669       57.7953732504  TIP3      5884            0.0000000000
     39904      6076  TIP3      H2             15.1582448437       20.2396684260       56.5959217559  TIP3      5884            0.0000000000
     39905      6077  TIP3      OH2            17.2717624208      -36.7585182648       55.7514647171  TIP3      5885            0.0000000000
     39906      6077  TIP3      H1             16.6587941770      -36.8823043086       55.0234271434  TIP3      5885            0.0000000000
     39907      6077  TIP3      H2             17.4196611388      -35.7997595018       55.7407449412  TIP3      5885            0.0000000000
     39908      6078  TIP3      OH2            31.8984460704       30.1719338602       45.5605913042  TIP3      5886            0.0000000000
     39909      6078  TIP3      H1             31.9040897801       31.1570331989       45.5372872294  TIP3      5886            0.0000000000
     39910      6078  TIP3      H2             31.1710693501       29.9518667237       44.9567505833  TIP3      5886            0.0000000000
     39911      6079  TIP3      OH2            30.7631636238       29.4433999922       49.0592976788  TIP3      5887            0.0000000000
     39912      6079  TIP3      H1             30.7411557493       28.7972884304       49.7806872576  TIP3      5887            0.0000000000
     39913      6079  TIP3      H2             30.4278693114       28.9315400136       48.3022714724  TIP3      5887            0.0000000000
     39914      6080  TIP3      OH2            23.1094831545       29.1225603117       50.6135343208  TIP3      5888            0.0000000000
     39915      6080  TIP3      H1             23.1937504499       28.4349797672       51.3069906719  TIP3      5888            0.0000000000
     39916      6080  TIP3      H2             23.8595948460       29.6923107387       50.8363755535  TIP3      5888            0.0000000000
     39917      6081  TIP3      OH2            34.4607963860       32.3699787752       47.3474666144  TIP3      5889            0.0000000000
     39918      6081  TIP3      H1             34.0429538113       31.6622881408       47.8440441395  TIP3      5889            0.0000000000
     39919      6081  TIP3      H2             34.4845615942       33.0884514489       47.9990880671  TIP3      5889            0.0000000000
     39920      6082  TIP3      OH2            24.0538040898       33.5744885123       49.1441394871  TIP3      5890            0.0000000000
     39921      6082  TIP3      H1             23.7208669465       32.7183109921       48.8050618515  TIP3      5890            0.0000000000
     39922      6082  TIP3      H2             25.0063167538       33.3820821276       49.1478645481  TIP3      5890            0.0000000000
     39923      6083  TIP3      OH2            20.6736786264       27.1249913137       44.6062005621  TIP3      5891            0.0000000000
     39924      6083  TIP3      H1             20.2380930877       27.9958413439       44.5398734190  TIP3      5891            0.0000000000
     39925      6083  TIP3      H2             20.1126803678       26.5846410495       44.0343003028  TIP3      5891            0.0000000000
     39926      6084  TIP3      OH2            21.3866314189       29.3514748816       46.7534031705  TIP3      5892            0.0000000000
     39927      6084  TIP3      H1             21.6620171557       28.5298673370       47.2022001959  TIP3      5892            0.0000000000
     39928      6084  TIP3      H2             22.0805282771       29.4586718153       46.0851545003  TIP3      5892            0.0000000000
     39929      6085  TIP3      OH2            29.1200860212       31.8201289678       49.5477423529  TIP3      5893            0.0000000000
     39930      6085  TIP3      H1             29.4678563534       31.2153599525       48.8737522876  TIP3      5893            0.0000000000
     39931      6085  TIP3      H2             29.9365194619       32.0212791762       50.0378629335  TIP3      5893            0.0000000000
     39932      6086  TIP3      OH2            32.3121566493       26.3198297944       49.8422035969  TIP3      5894            0.0000000000
     39933      6086  TIP3      H1             32.4764013563       25.3596913140       49.8325624091  TIP3      5894            0.0000000000
     39934      6086  TIP3      H2             32.2101373676       26.4643225428       48.8818780216  TIP3      5894            0.0000000000
     39935      6087  TIP3      OH2            25.4123874702       24.4037710046       47.0612611988  TIP3      5895            0.0000000000
     39936      6087  TIP3      H1             25.5213035322       25.2375639144       46.5676739337  TIP3      5895            0.0000000000
     39937      6087  TIP3      H2             25.0153804864       23.8294185342       46.3713386974  TIP3      5895            0.0000000000
     39938      6088  TIP3      OH2            33.1768018459       24.5240067120       45.4497787218  TIP3      5896            0.0000000000
     39939      6088  TIP3      H1             33.8182295510       24.1624338254       46.1096629805  TIP3      5896            0.0000000000
     39940      6088  TIP3      H2             33.7716121294       25.0477240864       44.9065705162  TIP3      5896            0.0000000000
     39941      6089  TIP3      OH2            22.0380819987       26.8135175628       47.7956694421  TIP3      5897            0.0000000000
     39942      6089  TIP3      H1             22.7073429132       26.2695909602       48.2507204176  TIP3      5897            0.0000000000
     39943      6089  TIP3      H2             22.1435919731       26.4990826606       46.8844964100  TIP3      5897            0.0000000000
     39944      6090  TIP3      OH2            27.1937720377       28.3698450412       47.1183340115  TIP3      5898            0.0000000000
     39945      6090  TIP3      H1             27.8683321201       27.7883377153       47.5104727834  TIP3      5898            0.0000000000
     39946      6090  TIP3      H2             26.6803487583       27.7138172836       46.6071862511  TIP3      5898            0.0000000000
     39947      6091  TIP3      OH2            24.3236456829       23.3027724678       51.1013684207  TIP3      5899            0.0000000000
     39948      6091  TIP3      H1             24.0409032652       23.8741286027       50.3558663623  TIP3      5899            0.0000000000
     39949      6091  TIP3      H2             23.6459350282       23.5305954666       51.7835033089  TIP3      5899            0.0000000000
     39950      6092  TIP3      OH2            31.6134444477       32.7661939803       44.6403405713  TIP3      5900            0.0000000000
     39951      6092  TIP3      H1             31.3511159863       32.5167715963       43.7473310012  TIP3      5900            0.0000000000
     39952      6092  TIP3      H2             31.2974711515       33.6893155733       44.7159017248  TIP3      5900            0.0000000000
     39953      6093  TIP3      OH2            26.8366262161       30.9245660494       51.3521376034  TIP3      5901            0.0000000000
     39954      6093  TIP3      H1             26.1313425085       31.5700975185       51.5633281580  TIP3      5901            0.0000000000
     39955      6093  TIP3      H2             27.5437314975       31.5194347456       51.0546309668  TIP3      5901            0.0000000000
     39956      6094  TIP3      OH2            34.6604488493       23.8042585981       47.5413615743  TIP3      5902            0.0000000000
     39957      6094  TIP3      H1             34.6891128266       22.9834913419       48.0409230493  TIP3      5902            0.0000000000
     39958      6094  TIP3      H2             35.4276829108       24.2670709778       47.9430544638  TIP3      5902            0.0000000000
     39959      6095  TIP3      OH2            23.8921214548       25.1573564528       49.1380918313  TIP3      5903            0.0000000000
     39960      6095  TIP3      H1             24.5190686317       25.8476240571       49.4481821989  TIP3      5903            0.0000000000
     39961      6095  TIP3      H2             24.4091051071       24.7489218568       48.3988208623  TIP3      5903            0.0000000000
     39962      6096  TIP3      OH2            25.2987982210       32.9501890149       52.1479622767  TIP3      5904            0.0000000000
     39963      6096  TIP3      H1             25.2322790936       33.8541014184       51.7981673614  TIP3      5904            0.0000000000
     39964      6096  TIP3      H2             24.4109401786       32.8648314301       52.5802019185  TIP3      5904            0.0000000000
     39965      6097  TIP3      OH2            21.3578587665       32.6151653947       42.9568642364  TIP3      5905            0.0000000000
     39966      6097  TIP3      H1             21.0980375826       32.9309423247       42.0741175934  TIP3      5905            0.0000000000
     39967      6097  TIP3      H2             21.4442005243       33.4426497513       43.4669505460  TIP3      5905            0.0000000000
     39968      6098  TIP3      OH2            34.7781137086       34.1682272320       49.8396819175  TIP3      5906            0.0000000000
     39969      6098  TIP3      H1             33.8131611769       34.3506370537       49.8745559082  TIP3      5906            0.0000000000
     39970      6098  TIP3      H2             35.1684353190       34.9956248826       49.5016072018  TIP3      5906            0.0000000000
     39971      6099  TIP3      OH2            35.0911367747       22.6473527255       50.8426085273  TIP3      5907            0.0000000000
     39972      6099  TIP3      H1             34.4047987268       23.3266250167       50.9661448167  TIP3      5907            0.0000000000
     39973      6099  TIP3      H2             35.8565368777       23.1419694342       50.5285187744  TIP3      5907            0.0000000000
     39974      6100  TIP3      OH2            28.2601437085       20.6353636375       48.5661898476  TIP3      5908            0.0000000000
     39975      6100  TIP3      H1             28.1243251911       19.6708400203       48.4953756511  TIP3      5908            0.0000000000
     39976      6100  TIP3      H2             27.3817879008       20.9411789208       48.8735280401  TIP3      5908            0.0000000000
     39977      6101  TIP3      OH2            33.2888874308       35.7221140978       46.1204113703  TIP3      5909            0.0000000000
     39978      6101  TIP3      H1             33.8389640214       35.0918102855       45.6166468662  TIP3      5909            0.0000000000
     39979      6101  TIP3      H2             33.6725725928       36.5631541412       45.8822357523  TIP3      5909            0.0000000000
     39980      6102  TIP3      OH2            34.5032570351       33.8658136948       44.8067298701  TIP3      5910            0.0000000000
     39981      6102  TIP3      H1             34.1599731960       33.1914052555       44.2105131111  TIP3      5910            0.0000000000
     39982      6102  TIP3      H2             34.4934889299       33.3967937344       45.6672176097  TIP3      5910            0.0000000000
     39983      6103  TIP3      OH2            35.8028363496       32.6840103408       53.4291366779  TIP3      5911            0.0000000000
     39984      6103  TIP3      H1             36.0800228271       31.9739808539       52.8189009751  TIP3      5911            0.0000000000
     39985      6103  TIP3      H2             36.2461726180       33.4267212414       52.9736534271  TIP3      5911            0.0000000000
     39986      6104  TIP3      OH2            30.5510822000       29.4196639642       43.0707093524  TIP3      5912            0.0000000000
     39987      6104  TIP3      H1             29.8627668391       30.0058696771       42.7108588601  TIP3      5912            0.0000000000
     39988      6104  TIP3      H2             31.2669939783       29.5177041638       42.4163309708  TIP3      5912            0.0000000000
     39989      6105  TIP3      OH2            30.6365811914       27.9975438664       40.0861538951  TIP3      5913            0.0000000000
     39990      6105  TIP3      H1             31.3532184156       27.9741154854       40.7394549292  TIP3      5913            0.0000000000
     39991      6105  TIP3      H2             30.9409127982       27.2815132735       39.5151714064  TIP3      5913            0.0000000000
     39992      6106  TIP3      OH2            33.9756930753       29.6441776763       43.9668324835  TIP3      5914            0.0000000000
     39993      6106  TIP3      H1             33.2502807267       29.8945023299       44.5852214169  TIP3      5914            0.0000000000
     39994      6106  TIP3      H2             34.4570556585       29.0025254087       44.5325339913  TIP3      5914            0.0000000000
     39995      6107  TIP3      OH2            33.9517955127       27.8174940363       53.0927314188  TIP3      5915            0.0000000000
     39996      6107  TIP3      H1             33.9039344030       28.6151741523       53.6439210473  TIP3      5915            0.0000000000
     39997      6107  TIP3      H2             33.3105125374       28.0851519856       52.4085200065  TIP3      5915            0.0000000000
     39998      6108  TIP3      OH2            25.6165030492       30.2949707634       45.9155690181  TIP3      5916            0.0000000000
     39999      6108  TIP3      H1             25.2977344271       29.9063687150       45.0651623516  TIP3      5916            0.0000000000
     40000      6108  TIP3      H2             26.2327575027       29.6050877161       46.2482269320  TIP3      5916            0.0000000000
     40001      6109  TIP3      OH2            26.9415665075       33.6982864025       48.5817275844  TIP3      5917            0.0000000000
     40002      6109  TIP3      H1             26.9419268207       33.1542728731       47.7866889392  TIP3      5917            0.0000000000
     40003      6109  TIP3      H2             27.7096722833       33.3326460887       49.0588152213  TIP3      5917            0.0000000000
     40004      6110  TIP3      OH2            25.9433812374       29.0428034442       49.5754729826  TIP3      5918            0.0000000000
     40005      6110  TIP3      H1             26.4958461141       29.1411510242       48.7750875305  TIP3      5918            0.0000000000
     40006      6110  TIP3      H2             26.3341389366       29.7060969790       50.1866828512  TIP3      5918            0.0000000000
     40007      6111  TIP3      OH2            32.3034319628       34.6197081306       50.2811229578  TIP3      5919            0.0000000000
     40008      6111  TIP3      H1             32.0526443764       35.2417156183       50.9483895028  TIP3      5919            0.0000000000
     40009      6111  TIP3      H2             32.0848734765       33.7486912101       50.6984946601  TIP3      5919            0.0000000000
     40010      6112  TIP3      OH2            26.8976564801       33.4802620606       54.2752829929  TIP3      5920            0.0000000000
     40011      6112  TIP3      H1             26.4639503916       34.2224739269       54.7529155380  TIP3      5920            0.0000000000
     40012      6112  TIP3      H2             26.2337900839       33.2466677581       53.5728236635  TIP3      5920            0.0000000000
     40013      6113  TIP3      OH2            32.8730599557       28.8176548040       41.6734258158  TIP3      5921            0.0000000000
     40014      6113  TIP3      H1             33.4285645842       29.0374959221       42.4627409038  TIP3      5921            0.0000000000
     40015      6113  TIP3      H2             33.2749811805       29.3460519639       40.9538296413  TIP3      5921            0.0000000000
     40016      6114  TIP3      OH2            23.8420772601       29.6343859260       53.4263987457  TIP3      5922            0.0000000000
     40017      6114  TIP3      H1             23.8960349132       30.3035564074       54.1332462182  TIP3      5922            0.0000000000
     40018      6114  TIP3      H2             22.8994830588       29.7218644349       53.2148962098  TIP3      5922            0.0000000000
     40019      6115  TIP3      OH2            30.5473607754       35.5343608418       45.1556832575  TIP3      5923            0.0000000000
     40020      6115  TIP3      H1             31.0811105825       35.8718901345       45.8838734812  TIP3      5923            0.0000000000
     40021      6115  TIP3      H2             30.0516910699       36.3080186489       44.8705507902  TIP3      5923            0.0000000000
     40022      6116  TIP3      OH2            25.1313895973       35.4167614405       55.0072477596  TIP3      5924            0.0000000000
     40023      6116  TIP3      H1             25.0557328757       35.3953968984       54.0298119754  TIP3      5924            0.0000000000
     40024      6116  TIP3      H2             24.1906467226       35.3583620864       55.2751436104  TIP3      5924            0.0000000000
     40025      6117  TIP3      OH2            24.5759255867       29.3155071943       43.5457612194  TIP3      5925            0.0000000000
     40026      6117  TIP3      H1             24.3007369708       30.1001992387       43.0255507618  TIP3      5925            0.0000000000
     40027      6117  TIP3      H2             23.9320726184       28.6503947980       43.2968128349  TIP3      5925            0.0000000000
     40028      6118  TIP3      OH2            20.6676451570       31.7556338220       52.4299578082  TIP3      5926            0.0000000000
     40029      6118  TIP3      H1             20.2368419369       31.6668510591       51.5606164586  TIP3      5926            0.0000000000
     40030      6118  TIP3      H2             20.7576286496       30.8058396195       52.6445881141  TIP3      5926            0.0000000000
     40031      6119  TIP3      OH2            20.4704158257       34.4418507942       49.2439645883  TIP3      5927            0.0000000000
     40032      6119  TIP3      H1             21.4258218496       34.3954770913       49.1547155038  TIP3      5927            0.0000000000
     40033      6119  TIP3      H2             20.3757324046       35.2723747907       49.7347368315  TIP3      5927            0.0000000000
     40034      6120  TIP3      OH2            29.6170066775       34.7331868923       53.7484869828  TIP3      5928            0.0000000000
     40035      6120  TIP3      H1             29.7198738740       35.5471915325       54.2521605927  TIP3      5928            0.0000000000
     40036      6120  TIP3      H2             28.7694144676       34.3420327949       54.0314529014  TIP3      5928            0.0000000000
     40037      6121  TIP3      OH2            35.3272252462       26.8268700898       55.3973796048  TIP3      5929            0.0000000000
     40038      6121  TIP3      H1             35.2891532704       27.1782205002       54.5028704576  TIP3      5929            0.0000000000
     40039      6121  TIP3      H2             35.8658422868       26.0011728676       55.2415717658  TIP3      5929            0.0000000000
     40040      6122  TIP3      OH2            22.9700942588       33.0773846513       53.3677896158  TIP3      5930            0.0000000000
     40041      6122  TIP3      H1             23.1793516547       32.6970932065       54.2453479942  TIP3      5930            0.0000000000
     40042      6122  TIP3      H2             22.1002902224       32.6870210117       53.1439866400  TIP3      5930            0.0000000000
     40043      6123  TIP3      OH2            25.6443254502       21.5395071430       49.3175399872  TIP3      5931            0.0000000000
     40044      6123  TIP3      H1             24.7411820442       21.4124487860       48.9508141813  TIP3      5931            0.0000000000
     40045      6123  TIP3      H2             25.5097342752       22.3696632041       49.8036482178  TIP3      5931            0.0000000000
     40046      6124  TIP3      OH2            30.2883900121       21.2016994582       52.6778238353  TIP3      5932            0.0000000000
     40047      6124  TIP3      H1             30.6845861941       20.7851889119       53.4656407582  TIP3      5932            0.0000000000
     40048      6124  TIP3      H2             29.3158028559       21.0882720321       52.8253078434  TIP3      5932            0.0000000000
     40049      6125  TIP3      OH2            33.5021124347       25.0110905179       53.5165020793  TIP3      5933            0.0000000000
     40050      6125  TIP3      H1             33.0199506944       24.8395170087       54.3598207824  TIP3      5933            0.0000000000
     40051      6125  TIP3      H2             33.4272517739       25.9670904778       53.3843705710  TIP3      5933            0.0000000000
     40052      6126  TIP3      OH2            34.3768735996       29.7755047572       39.4804790527  TIP3      5934            0.0000000000
     40053      6126  TIP3      H1             34.3036769829       29.6272019984       38.5103269950  TIP3      5934            0.0000000000
     40054      6126  TIP3      H2             35.1452258587       30.3462210338       39.5098404787  TIP3      5934            0.0000000000
     40055      6127  TIP3      OH2            29.9346198883       23.7930058605       39.9894433039  TIP3      5935            0.0000000000
     40056      6127  TIP3      H1             29.6128617294       23.7304836942       40.9076261451  TIP3      5935            0.0000000000
     40057      6127  TIP3      H2             29.6184248456       22.9203895489       39.6800071989  TIP3      5935            0.0000000000
     40058      6128  TIP3      OH2            25.7520724617       26.5185503574       50.5809068598  TIP3      5936            0.0000000000
     40059      6128  TIP3      H1             25.0073479209       26.5038694161       51.2097924850  TIP3      5936            0.0000000000
     40060      6128  TIP3      H2             25.6981624976       27.4225467607       50.1989584509  TIP3      5936            0.0000000000
     40061      6129  TIP3      OH2            25.7058344567       26.6262148529       45.4354929500  TIP3      5937            0.0000000000
     40062      6129  TIP3      H1             24.7672776244       26.3775631788       45.3044859835  TIP3      5937            0.0000000000
     40063      6129  TIP3      H2             26.0822615042       26.3377554209       44.5797606157  TIP3      5937            0.0000000000
     40064      6130  TIP3      OH2            31.2433190258       27.1387010014       44.2186762862  TIP3      5938            0.0000000000
     40065      6130  TIP3      H1             30.8338225121       27.9528012696       43.8407687684  TIP3      5938            0.0000000000
     40066      6130  TIP3      H2             31.9245971281       26.9683529447       43.5501253388  TIP3      5938            0.0000000000
     40067      6131  TIP3      OH2            30.2914825849       27.3436685670       55.6483273724  TIP3      5939            0.0000000000
     40068      6131  TIP3      H1             29.7737895900       26.5620437216       55.9523355180  TIP3      5939            0.0000000000
     40069      6131  TIP3      H2             31.1347695245       27.2202340356       56.1186028592  TIP3      5939            0.0000000000
     40070      6132  TIP3      OH2            32.2289274587       26.6397296016       47.0695971379  TIP3      5940            0.0000000000
     40071      6132  TIP3      H1             31.9957126589       27.1861564328       46.3000085768  TIP3      5940            0.0000000000
     40072      6132  TIP3      H2             32.3573965358       25.7818637752       46.6146379982  TIP3      5940            0.0000000000
     40073      6133  TIP3      OH2            23.3665054406       26.7621788117       52.2499938286  TIP3      5941            0.0000000000
     40074      6133  TIP3      H1             23.4504016414       27.1701281327       53.1293735119  TIP3      5941            0.0000000000
     40075      6133  TIP3      H2             22.9267905495       25.9233834633       52.4611277510  TIP3      5941            0.0000000000
     40076      6134  TIP3      OH2            26.7387767993       24.1591825969       39.1058662199  TIP3      5942            0.0000000000
     40077      6134  TIP3      H1             26.2844579716       23.7383555750       39.8639069561  TIP3      5942            0.0000000000
     40078      6134  TIP3      H2             26.0292577428       24.5908317079       38.6143001418  TIP3      5942            0.0000000000
     40079      6135  TIP3      OH2            20.0256778360       23.8715587430       46.2403661947  TIP3      5943            0.0000000000
     40080      6135  TIP3      H1             20.7101975115       23.8321871587       46.9406907746  TIP3      5943            0.0000000000
     40081      6135  TIP3      H2             20.4732287173       23.4978521974       45.4592381826  TIP3      5943            0.0000000000
     40082      6136  TIP3      OH2            21.2890676810       24.5901972886       41.5852213615  TIP3      5944            0.0000000000
     40083      6136  TIP3      H1             21.8032693762       25.2026425280       41.0282506724  TIP3      5944            0.0000000000
     40084      6136  TIP3      H2             20.6028012433       25.2136439321       41.9062553629  TIP3      5944            0.0000000000
     40085      6137  TIP3      OH2            31.4420227025       28.1967356895       51.5994513452  TIP3      5945            0.0000000000
     40086      6137  TIP3      H1             31.8385157413       27.5043036255       51.0273279487  TIP3      5945            0.0000000000
     40087      6137  TIP3      H2             30.9782848867       27.6743935310       52.2774820797  TIP3      5945            0.0000000000
     40088      6138  TIP3      OH2            28.2533939811       24.1898151546       46.4456107882  TIP3      5946            0.0000000000
     40089      6138  TIP3      H1             27.3163900731       24.1878912307       46.7449532272  TIP3      5946            0.0000000000
     40090      6138  TIP3      H2             28.7523389725       24.0129967805       47.2604240917  TIP3      5946            0.0000000000
     40091      6139  TIP3      OH2            23.0686222197       25.7334276010       45.3100942089  TIP3      5947            0.0000000000
     40092      6139  TIP3      H1             22.1851446097       25.8903043430       44.9183600192  TIP3      5947            0.0000000000
     40093      6139  TIP3      H2             23.3531381512       24.8996819460       44.9002838914  TIP3      5947            0.0000000000
     40094      6140  TIP3      OH2            26.7131116731       25.7810181052       42.9355060484  TIP3      5948            0.0000000000
     40095      6140  TIP3      H1             27.6687526061       25.8927038145       43.0965231210  TIP3      5948            0.0000000000
     40096      6140  TIP3      H2             26.4758199094       26.4642861471       42.2805295944  TIP3      5948            0.0000000000
     40097      6141  TIP3      OH2            32.5947722822       23.3909580113       49.6948063498  TIP3      5949            0.0000000000
     40098      6141  TIP3      H1             31.9261814897       23.4604812625       50.3994225768  TIP3      5949            0.0000000000
     40099      6141  TIP3      H2             32.1001943998       23.1753888340       48.8899854391  TIP3      5949            0.0000000000
     40100      6142  TIP3      OH2            25.4190031148       26.9578594477       40.5252039776  TIP3      5950            0.0000000000
     40101      6142  TIP3      H1             24.8874650405       26.5710149320       39.8088879464  TIP3      5950            0.0000000000
     40102      6142  TIP3      H2             26.2390821928       27.1655424262       40.0504863557  TIP3      5950            0.0000000000
     40103      6143  TIP3      OH2            23.5428629766       31.5681199943       55.5729865552  TIP3      5951            0.0000000000
     40104      6143  TIP3      H1             24.2643443854       31.7745999896       56.1905735211  TIP3      5951            0.0000000000
     40105      6143  TIP3      H2             22.7691801961       31.5981206032       56.1792912228  TIP3      5951            0.0000000000
     40106      6144  TIP3      OH2            29.5394080069       26.9381870122       48.3332666659  TIP3      5952            0.0000000000
     40107      6144  TIP3      H1             30.1460379777       26.4080522025       47.8012603225  TIP3      5952            0.0000000000
     40108      6144  TIP3      H2             29.3965709760       26.3909011777       49.1169493753  TIP3      5952            0.0000000000
     40109      6145  TIP3      OH2            24.5524608065       23.0852596538       44.7706783263  TIP3      5953            0.0000000000
     40110      6145  TIP3      H1             24.2427997055       22.1612797479       44.7631210757  TIP3      5953            0.0000000000
     40111      6145  TIP3      H2             25.3432095764       23.0173670163       44.2218334533  TIP3      5953            0.0000000000
     40112      6146  TIP3      OH2            28.1809350682       25.2637158215       50.7488422625  TIP3      5954            0.0000000000
     40113      6146  TIP3      H1             27.3576535987       25.7849055985       50.8358146464  TIP3      5954            0.0000000000
     40114      6146  TIP3      H2             28.7371456508       25.6184458945       51.4690014723  TIP3      5954            0.0000000000
     40115      6147  TIP3      OH2            28.7710600934       31.4725490424       42.4542418096  TIP3      5955            0.0000000000
     40116      6147  TIP3      H1             27.9684917753       31.0146545088       42.1172724314  TIP3      5955            0.0000000000
     40117      6147  TIP3      H2             28.5469615035       31.6010285121       43.3961644007  TIP3      5955            0.0000000000
     40118      6148  TIP3      OH2            35.6364162866       30.7162999071       51.2468396774  TIP3      5956            0.0000000000
     40119      6148  TIP3      H1             36.3642541293       30.8421127140       50.5945950115  TIP3      5956            0.0000000000
     40120      6148  TIP3      H2             34.8781371274       30.7167903124       50.6344216364  TIP3      5956            0.0000000000
     40121      6149  TIP3      OH2            32.6311285168       24.3157102067       40.6136233686  TIP3      5957            0.0000000000
     40122      6149  TIP3      H1             31.6723749033       24.4357831754       40.4731755703  TIP3      5957            0.0000000000
     40123      6149  TIP3      H2             32.9125589037       25.1768516598       40.9844365443  TIP3      5957            0.0000000000
     40124      6150  TIP3      OH2            30.2520581261       31.7783956092       53.6766438946  TIP3      5958            0.0000000000
     40125      6150  TIP3      H1             29.9081452338       31.3420430718       54.4647484827  TIP3      5958            0.0000000000
     40126      6150  TIP3      H2             30.0399028416       32.7057587872       53.8029838156  TIP3      5958            0.0000000000
     40127      6151  TIP3      OH2            33.3322947557       26.2417340149       42.2169444860  TIP3      5959            0.0000000000
     40128      6151  TIP3      H1             34.2011416768       26.1004592711       42.6487735801  TIP3      5959            0.0000000000
     40129      6151  TIP3      H2             33.4355673978       27.0806107639       41.7367189452  TIP3      5959            0.0000000000
     40130      6152  TIP3      OH2            23.8754811639       30.8823347586       48.2457571802  TIP3      5960            0.0000000000
     40131      6152  TIP3      H1             24.5622658307       30.8121529780       47.5516734384  TIP3      5960            0.0000000000
     40132      6152  TIP3      H2             23.9406256405       30.0239016500       48.7012371217  TIP3      5960            0.0000000000
     40133      6153  TIP3      OH2            30.8403993896       32.9395612874       41.4722547207  TIP3      5961            0.0000000000
     40134      6153  TIP3      H1             30.5342499484       33.8045234259       41.8135607204  TIP3      5961            0.0000000000
     40135      6153  TIP3      H2             30.1138183333       32.3372275832       41.7205628284  TIP3      5961            0.0000000000
     40136      6154  TIP3      OH2            20.8685663591       29.2874247965       53.5068368539  TIP3      5962            0.0000000000
     40137      6154  TIP3      H1             21.0389316735       28.8432845828       54.3601183633  TIP3      5962            0.0000000000
     40138      6154  TIP3      H2             20.2484449727       28.6780885551       53.0679199102  TIP3      5962            0.0000000000
     40139      6155  TIP3      OH2            27.8805875772       28.8498088620       55.6811944728  TIP3      5963            0.0000000000
     40140      6155  TIP3      H1             27.5618379528       28.5359127165       54.8234544829  TIP3      5963            0.0000000000
     40141      6155  TIP3      H2             28.8041047352       28.5236116896       55.6818258752  TIP3      5963            0.0000000000
     40142      6156  TIP3      OH2            32.5614206613       34.2431487030       53.5727835962  TIP3      5964            0.0000000000
     40143      6156  TIP3      H1             31.6247684928       34.3013322527       53.3807907384  TIP3      5964            0.0000000000
     40144      6156  TIP3      H2             32.5293554292       34.4170860122       54.5420843086  TIP3      5964            0.0000000000
     40145      6157  TIP3      OH2            33.6763072740       29.9812610783       49.5374509455  TIP3      5965            0.0000000000
     40146      6157  TIP3      H1             32.7392595647       29.7641799945       49.3912286687  TIP3      5965            0.0000000000
     40147      6157  TIP3      H2             34.1550697539       29.2470717323       49.1126899834  TIP3      5965            0.0000000000
     40148      6158  TIP3      OH2            26.2934332333       34.3031363800       45.5377583877  TIP3      5966            0.0000000000
     40149      6158  TIP3      H1             26.7539019178       35.1472652326       45.4628415303  TIP3      5966            0.0000000000
     40150      6158  TIP3      H2             25.3782477217       34.5388351394       45.3451469275  TIP3      5966            0.0000000000
     40151      6159  TIP3      OH2            22.0198032512       29.1763940126       40.2004690187  TIP3      5967            0.0000000000
     40152      6159  TIP3      H1             22.5993455478       29.8341022143       40.6194377254  TIP3      5967            0.0000000000
     40153      6159  TIP3      H2             21.1295386254       29.4906358068       40.4493179597  TIP3      5967            0.0000000000
     40154      6160  TIP3      OH2            27.6905287985       31.9934323872       45.1474332530  TIP3      5968            0.0000000000
     40155      6160  TIP3      H1             27.3715589507       32.9138934004       45.2373332481  TIP3      5968            0.0000000000
     40156      6160  TIP3      H2             26.9615495715       31.5144117309       45.5881237051  TIP3      5968            0.0000000000
     40157      6161  TIP3      OH2            28.4075106066       35.8594139616       51.2549870106  TIP3      5969            0.0000000000
     40158      6161  TIP3      H1             28.5630808592       36.8097532917       51.1690368022  TIP3      5969            0.0000000000
     40159      6161  TIP3      H2             28.7296259468       35.7176420517       52.1554296875  TIP3      5969            0.0000000000
     40160      6162  TIP3      OH2            31.6720779264       32.1909305746       51.1845480480  TIP3      5970            0.0000000000
     40161      6162  TIP3      H1             31.3038668724       31.9673760319       52.0630069986  TIP3      5970            0.0000000000
     40162      6162  TIP3      H2             32.2862192963       31.4650286275       51.0042028902  TIP3      5970            0.0000000000
     40163      6163  TIP3      OH2            33.9640555327       33.1967950211       40.2500372972  TIP3      5971            0.0000000000
     40164      6163  TIP3      H1             34.2866225529       32.8197876958       41.0929580375  TIP3      5971            0.0000000000
     40165      6163  TIP3      H2             33.0093820046       33.0717073465       40.3526605691  TIP3      5971            0.0000000000
     40166      6164  TIP3      OH2            22.5193684996       24.0229499136       53.0539374688  TIP3      5972            0.0000000000
     40167      6164  TIP3      H1             21.6125900821       24.3745368337       53.0352529078  TIP3      5972            0.0000000000
     40168      6164  TIP3      H2             22.4079532320       23.1777188721       53.5174887592  TIP3      5972            0.0000000000
     40169      6165  TIP3      OH2            34.7618912535       31.8152595231       42.4758718793  TIP3      5973            0.0000000000
     40170      6165  TIP3      H1             34.5407314389       31.0760857791       43.0826393233  TIP3      5973            0.0000000000
     40171      6165  TIP3      H2             35.6854019245       32.0019244363       42.7147853434  TIP3      5973            0.0000000000
     40172      6166  TIP3      OH2            22.1273021115       35.7495536803       51.4777636137  TIP3      5974            0.0000000000
     40173      6166  TIP3      H1             22.4339271020       34.8438737913       51.5318668797  TIP3      5974            0.0000000000
     40174      6166  TIP3      H2             22.3331651100       36.1287345004       52.3431984841  TIP3      5974            0.0000000000
     40175      6167  TIP3      OH2            28.1160735566       34.3112388853       38.7432039273  TIP3      5975            0.0000000000
     40176      6167  TIP3      H1             28.1865286023       33.5357678871       38.1644888361  TIP3      5975            0.0000000000
     40177      6167  TIP3      H2             27.6816855366       33.9000835120       39.5228783693  TIP3      5975            0.0000000000
     40178      6168  TIP3      OH2            26.8601536329       33.8177752629       41.2019895739  TIP3      5976            0.0000000000
     40179      6168  TIP3      H1             27.1393935836       33.3291361797       41.9873180767  TIP3      5976            0.0000000000
     40180      6168  TIP3      H2             26.9827917821       34.7540109111       41.4751296326  TIP3      5976            0.0000000000
     40181      6169  TIP3      OH2            23.4221645284       31.1132808103       41.6986995109  TIP3      5977            0.0000000000
     40182      6169  TIP3      H1             22.7061731496       31.5097109932       42.2324566306  TIP3      5977            0.0000000000
     40183      6169  TIP3      H2             23.9247576821       31.8963029238       41.4042705925  TIP3      5977            0.0000000000
     40184      6170  TIP3      OH2            31.2200972677       23.7884172429       52.0317960904  TIP3      5978            0.0000000000
     40185      6170  TIP3      H1             31.9730265994       23.8555471138       52.6337337402  TIP3      5978            0.0000000000
     40186      6170  TIP3      H2             30.8569995856       22.9067987281       52.2334331364  TIP3      5978            0.0000000000
     40187      6171  TIP3      OH2            32.0556746332       23.3464490220       43.1078066012  TIP3      5979            0.0000000000
     40188      6171  TIP3      H1             32.2333732071       23.8312295820       42.2804029083  TIP3      5979            0.0000000000
     40189      6171  TIP3      H2             32.6048578033       23.8176225951       43.7473625052  TIP3      5979            0.0000000000
     40190      6172  TIP3      OH2            29.7319302025       35.5579589801       41.9344893124  TIP3      5980            0.0000000000
     40191      6172  TIP3      H1             28.8779132322       36.0295076547       41.9754230729  TIP3      5980            0.0000000000
     40192      6172  TIP3      H2             30.2099241327       36.0635914117       41.2597850191  TIP3      5980            0.0000000000
     40193      6173  TIP3      OH2            29.2303704763       25.1162878251       43.9247334045  TIP3      5981            0.0000000000
     40194      6173  TIP3      H1             30.0114601264       25.7021316053       43.9726930461  TIP3      5981            0.0000000000
     40195      6173  TIP3      H2             28.9617300930       24.9977682302       44.8552764930  TIP3      5981            0.0000000000
     40196      6174  TIP3      OH2            29.8076681909       26.1467203681       53.1151133412  TIP3      5982            0.0000000000
     40197      6174  TIP3      H1             29.8892264882       26.7063704467       53.9130904899  TIP3      5982            0.0000000000
     40198      6174  TIP3      H2             30.4587232754       25.4365370532       53.2058485715  TIP3      5982            0.0000000000
     40199      6175  TIP3      OH2            30.0336046755       22.1821947582       44.7861802300  TIP3      5983            0.0000000000
     40200      6175  TIP3      H1             29.7578874053       22.8275384480       45.4558333112  TIP3      5983            0.0000000000
     40201      6175  TIP3      H2             30.7522661898       22.7112393045       44.3600893531  TIP3      5983            0.0000000000
     40202      6176  TIP3      OH2            27.1381823080      -36.4688172049       41.9662709791  TIP3      5984            0.0000000000
     40203      6176  TIP3      H1             27.1623030281      -35.6801426734       41.3912858792  TIP3      5984            0.0000000000
     40204      6176  TIP3      H2             26.8417164691      -36.0976801833       42.8127554480  TIP3      5984            0.0000000000
     40205      6177  TIP3      OH2            25.7322578938       23.2794777756       41.5172302555  TIP3      5985            0.0000000000
     40206      6177  TIP3      H1             25.6824554634       24.1777575788       41.9018208080  TIP3      5985            0.0000000000
     40207      6177  TIP3      H2             26.6410763255       23.0353786730       41.7804050415  TIP3      5985            0.0000000000
     40208      6178  TIP3      OH2            35.8346212576       23.7787617353       53.7656952428  TIP3      5986            0.0000000000
     40209      6178  TIP3      H1             35.0038528384       24.3125293998       53.7949346927  TIP3      5986            0.0000000000
     40210      6178  TIP3      H2             36.2421883804       24.0561460719       52.9452921667  TIP3      5986            0.0000000000
     40211      6179  TIP3      OH2            34.5669227633       27.7988388573       48.0137445959  TIP3      5987            0.0000000000
     40212      6179  TIP3      H1             33.7470639378       27.3619520479       47.7041154745  TIP3      5987            0.0000000000
     40213      6179  TIP3      H2             34.9990211955       27.0869194093       48.4965417143  TIP3      5987            0.0000000000
     40214      6180  TIP3      OH2            23.9844391560       33.7193485424       40.5580013866  TIP3      5988            0.0000000000
     40215      6180  TIP3      H1             24.6580821338       34.3580450882       40.8338474836  TIP3      5988            0.0000000000
     40216      6180  TIP3      H2             24.4917793506       33.2478171500       39.8715954907  TIP3      5988            0.0000000000
     40217      6181  TIP3      OH2            22.3096744860       26.3942264453       39.7038777757  TIP3      5989            0.0000000000
     40218      6181  TIP3      H1             22.3278313165       27.3530395664       39.9103309843  TIP3      5989            0.0000000000
     40219      6181  TIP3      H2             21.4177712490       26.2211322660       39.3957086838  TIP3      5989            0.0000000000
     40220      6182  TIP3      OH2            23.1262302568       21.1796846908       48.4489291018  TIP3      5990            0.0000000000
     40221      6182  TIP3      H1             22.9329411182       21.1971943204       47.4853763557  TIP3      5990            0.0000000000
     40222      6182  TIP3      H2             22.7125946589       20.3266828492       48.6990537032  TIP3      5990            0.0000000000
     40223      6183  TIP3      OH2            22.0904467583       35.1051436201       44.5638075248  TIP3      5991            0.0000000000
     40224      6183  TIP3      H1             21.2225336438       35.5293828744       44.5571330991  TIP3      5991            0.0000000000
     40225      6183  TIP3      H2             22.5844113612       35.5931733549       43.8992295604  TIP3      5991            0.0000000000
     40226      6184  TIP3      OH2            26.2550797069       36.3483158613       57.7018872580  TIP3      5992            0.0000000000
     40227      6184  TIP3      H1             27.1095837070       35.9482773662       57.8711155849  TIP3      5992            0.0000000000
     40228      6184  TIP3      H2             26.1788688496       36.2086447789       56.7412952363  TIP3      5992            0.0000000000
     40229      6185  TIP3      OH2            30.1292152188       36.1178838497       38.9866602395  TIP3      5993            0.0000000000
     40230      6185  TIP3      H1             29.3843752302       35.4937717941       39.0679290669  TIP3      5993            0.0000000000
     40231      6185  TIP3      H2             30.8344934396       35.5774300372       38.6199623619  TIP3      5993            0.0000000000
     40232      6186  TIP3      OH2            32.5943092611       34.6805572786       56.0994450191  TIP3      5994            0.0000000000
     40233      6186  TIP3      H1             32.0979527268       34.0064985021       56.5972365772  TIP3      5994            0.0000000000
     40234      6186  TIP3      H2             33.1995863922       35.0178377689       56.7722040287  TIP3      5994            0.0000000000
     40235      6187  TIP3      OH2            34.8821044526       35.9244156552       39.2845983764  TIP3      5995            0.0000000000
     40236      6187  TIP3      H1             35.0465131216       35.0233079906       39.6025974263  TIP3      5995            0.0000000000
     40237      6187  TIP3      H2             35.5262390034       36.0661721785       38.5673519622  TIP3      5995            0.0000000000
     40238      6188  TIP3      OH2            21.2108330263       31.5140467784       56.8617590497  TIP3      5996            0.0000000000
     40239      6188  TIP3      H1             21.3580374273       30.6011822680       56.5599987252  TIP3      5996            0.0000000000
     40240      6188  TIP3      H2             20.4655660216       31.7982415156       56.3020324921  TIP3      5996            0.0000000000
     40241      6189  TIP3      OH2            25.5397383589       31.8437541479       38.8848272511  TIP3      5997            0.0000000000
     40242      6189  TIP3      H1             25.6956888328       31.0923299487       39.4808485012  TIP3      5997            0.0000000000
     40243      6189  TIP3      H2             26.2976093291       31.7443386806       38.2761864435  TIP3      5997            0.0000000000
     40244      6190  TIP3      OH2            27.9335120429       31.5125306327       56.2448651543  TIP3      5998            0.0000000000
     40245      6190  TIP3      H1             27.5709931903       31.8135086471       55.3903225205  TIP3      5998            0.0000000000
     40246      6190  TIP3      H2             27.9886412061       30.5281757589       56.1491355626  TIP3      5998            0.0000000000
     40247      6191  TIP3      OH2            30.9863178850       32.9959473417       38.6662904962  TIP3      5999            0.0000000000
     40248      6191  TIP3      H1             30.6811889288       33.0825764782       39.5839719652  TIP3      5999            0.0000000000
     40249      6191  TIP3      H2             30.7819437570       32.0419818845       38.5229366429  TIP3      5999            0.0000000000
     40250      6192  TIP3      OH2            33.5875536637       31.3377626993       53.6507155419  TIP3      6000            0.0000000000
     40251      6192  TIP3      H1             34.3774102044       31.9296920140       53.5707920104  TIP3      6000            0.0000000000
     40252      6192  TIP3      H2             32.9111163708       32.0216031368       53.6951455944  TIP3      6000            0.0000000000
     40253      6193  TIP3      OH2            22.1252993017       28.7639626435       56.2521588206  TIP3      6001            0.0000000000
     40254      6193  TIP3      H1             22.5332559999       27.8951240832       56.1585333912  TIP3      6001            0.0000000000
     40255      6193  TIP3      H2             21.8841180785       28.7594608620       57.1926834109  TIP3      6001            0.0000000000
     40256      6194  TIP3      OH2            26.7587433465       29.8840227158       41.3261618895  TIP3      6002            0.0000000000
     40257      6194  TIP3      H1             26.2462008212       29.3465648226       41.9477479990  TIP3      6002            0.0000000000
     40258      6194  TIP3      H2             27.0496241577       29.2126153568       40.6653917716  TIP3      6002            0.0000000000
     40259      6195  TIP3      OH2            26.0153925428       27.6946610619       53.6054307779  TIP3      6003            0.0000000000
     40260      6195  TIP3      H1             25.4192721473       28.4162015792       53.8625568011  TIP3      6003            0.0000000000
     40261      6195  TIP3      H2             26.4138979352       28.0624329103       52.7980538371  TIP3      6003            0.0000000000
     40262      6196  TIP3      OH2            27.8200624829       28.1121998176       39.5181702321  TIP3      6004            0.0000000000
     40263      6196  TIP3      H1             27.6734362295       28.0196038426       38.5548922261  TIP3      6004            0.0000000000
     40264      6196  TIP3      H2             28.7976820122       28.1623222976       39.5849892514  TIP3      6004            0.0000000000
     40265      6197  TIP3      OH2            31.0891196032       30.2666912708       56.9448983782  TIP3      6005            0.0000000000
     40266      6197  TIP3      H1             32.0449501213       30.2561221201       56.8325668121  TIP3      6005            0.0000000000
     40267      6197  TIP3      H2             30.9336914736       29.4910807331       57.5049353284  TIP3      6005            0.0000000000
     40268      6198  TIP3      OH2            26.4242820849       25.0712785235       54.6633398336  TIP3      6006            0.0000000000
     40269      6198  TIP3      H1             26.5396579392       24.3628645227       54.0043467269  TIP3      6006            0.0000000000
     40270      6198  TIP3      H2             26.3785452663       25.8826430140       54.1151413627  TIP3      6006            0.0000000000
     40271      6199  TIP3      OH2            26.8270036972       23.4544500349       52.2173285531  TIP3      6007            0.0000000000
     40272      6199  TIP3      H1             27.3354708308       23.9194207842       51.5103210692  TIP3      6007            0.0000000000
     40273      6199  TIP3      H2             25.9334458585       23.3765918821       51.8113188874  TIP3      6007            0.0000000000
     40274      6200  TIP3      OH2            28.3660402870       28.9433164167       52.4601697478  TIP3      6008            0.0000000000
     40275      6200  TIP3      H1             29.1193118557       28.7772376220       51.8863327212  TIP3      6008            0.0000000000
     40276      6200  TIP3      H2             27.9992018716       29.7759104096       52.1228632124  TIP3      6008            0.0000000000
     40277      6201  TIP3      OH2            32.8162567563       26.7248266293       57.4331428053  TIP3      6009            0.0000000000
     40278      6201  TIP3      H1             33.0367968847       25.7871767979       57.3186108887  TIP3      6009            0.0000000000
     40279      6201  TIP3      H2             33.6891580193       27.1423938969       57.3901015668  TIP3      6009            0.0000000000
     40280      6202  TIP3      OH2            34.1184890104       29.5317398401       55.5900986158  TIP3      6010            0.0000000000
     40281      6202  TIP3      H1             33.8256511038       30.2196760578       54.9518746075  TIP3      6010            0.0000000000
     40282      6202  TIP3      H2             35.0490633745       29.4325210020       55.3813742382  TIP3      6010            0.0000000000
     40283      6203  TIP3      OH2            24.8817462146       26.3212644730       56.5784504746  TIP3      6011            0.0000000000
     40284      6203  TIP3      H1             24.1097514121       25.7489126103       56.3963503125  TIP3      6011            0.0000000000
     40285      6203  TIP3      H2             25.5381450472       25.9545695912       55.9589006762  TIP3      6011            0.0000000000
     40286      6204  TIP3      OH2            27.6153098723       20.8896246920       52.6070692858  TIP3      6012            0.0000000000
     40287      6204  TIP3      H1             27.4334670024       21.8535672356       52.5107588118  TIP3      6012            0.0000000000
     40288      6204  TIP3      H2             26.8668733821       20.5241554258       52.1034595693  TIP3      6012            0.0000000000
     40289      6205  TIP3      OH2            28.8819190893       25.2251902028       56.2428638470  TIP3      6013            0.0000000000
     40290      6205  TIP3      H1             28.5667749056       24.9868679026       57.1341843804  TIP3      6013            0.0000000000
     40291      6205  TIP3      H2             28.1054037229       25.0187915248       55.6942948490  TIP3      6013            0.0000000000
     40292      6206  TIP3      OH2            31.5639988007       24.3869536800       55.3302537265  TIP3      6014            0.0000000000
     40293      6206  TIP3      H1             30.6023427215       24.4076997606       55.4526338640  TIP3      6014            0.0000000000
     40294      6206  TIP3      H2             31.8832798889       23.7372865875       55.9815210541  TIP3      6014            0.0000000000
     40295      6207  TIP3      OH2            33.2822625505       22.9592177240       57.2598152925  TIP3      6015            0.0000000000
     40296      6207  TIP3      H1             33.1309895819       21.9898684620       57.2546718295  TIP3      6015            0.0000000000
     40297      6207  TIP3      H2             32.9233733153       23.2694959400       58.1143868108  TIP3      6015            0.0000000000
     40298      6208  TIP3      OH2            22.9588576049       24.2597700017       56.3380809855  TIP3      6016            0.0000000000
     40299      6208  TIP3      H1             23.2112345294       23.5244530301       55.7525693913  TIP3      6016            0.0000000000
     40300      6208  TIP3      H2             22.8733951072       23.8120882813       57.2026566745  TIP3      6016            0.0000000000
     40301      6209  TIP3      OH2            27.8298801326       20.2847419613       55.3066088256  TIP3      6017            0.0000000000
     40302      6209  TIP3      H1             28.5094358595       19.5812943681       55.2888804440  TIP3      6017            0.0000000000
     40303      6209  TIP3      H2             27.7154361686       20.4280691945       54.3464161574  TIP3      6017            0.0000000000
     40304      6210  TIP3      OH2            28.1931554815       21.8987917802       57.4221751271  TIP3      6018            0.0000000000
     40305      6210  TIP3      H1             28.0184141338       21.3915106000       56.5903065008  TIP3      6018            0.0000000000
     40306      6210  TIP3      H2             27.5918504015       22.6616007371       57.3210506840  TIP3      6018            0.0000000000
     40307      6211  TIP3      OH2            21.2397501710       33.3871693912       40.0363129800  TIP3      6019            0.0000000000
     40308      6211  TIP3      H1             22.1902566998       33.4884352487       40.2639248235  TIP3      6019            0.0000000000
     40309      6211  TIP3      H2             21.2956976869       32.7145610865       39.3199680580  TIP3      6019            0.0000000000
     40310      6212  TIP3      OH2            36.2455096797       34.9513275527       52.1126431164  TIP3      6020            0.0000000000
     40311      6212  TIP3      H1             35.5641201055       35.3938545783       52.6177531600  TIP3      6020            0.0000000000
     40312      6212  TIP3      H2             35.7596452778       34.5814087937       51.3420860219  TIP3      6020            0.0000000000
     40313      6213  TIP3      OH2            35.3634164037       27.9629127848       45.4328516368  TIP3      6021            0.0000000000
     40314      6213  TIP3      H1             35.6211746183       27.0395114081       45.4711805418  TIP3      6021            0.0000000000
     40315      6213  TIP3      H2             35.4800143110       28.2260923939       46.3721249567  TIP3      6021            0.0000000000
     40316      6214  TIP3      OH2            20.8751861952       29.9860692938       49.4014416942  TIP3      6022            0.0000000000
     40317      6214  TIP3      H1             21.0506779771       29.8984965644       48.4380350131  TIP3      6022            0.0000000000
     40318      6214  TIP3      H2             21.7682026496       29.8063359419       49.7543718898  TIP3      6022            0.0000000000
     40319      6215  TIP3      OH2            35.9485059722       23.9083246559       38.8056554877  TIP3      6023            0.0000000000
     40320      6215  TIP3      H1             36.5364655953       23.4926351855       39.4373320775  TIP3      6023            0.0000000000
     40321      6215  TIP3      H2             35.0871368726       23.5018504131       38.9978450899  TIP3      6023            0.0000000000
     40322      6216  TIP3      OH2            35.5019869627       25.4165512641       43.6343159124  TIP3      6024            0.0000000000
     40323      6216  TIP3      H1             35.7869994914       24.5761092206       44.0365063055  TIP3      6024            0.0000000000
     40324      6216  TIP3      H2             36.3523570980       25.7665673670       43.3424151024  TIP3      6024            0.0000000000
     40325      6217  TIP3      OH2           -37.0579515687       25.1873013189       49.2516016434  TIP3      6025            0.0000000000
     40326      6217  TIP3      H1            -36.1692222408       25.5374674359       49.0987697482  TIP3      6025            0.0000000000
     40327      6217  TIP3      H2            -37.2697064187       25.8343631634       49.9430041067  TIP3      6025            0.0000000000
     40328      6218  TIP3      OH2            36.2595955210       26.8040606506       52.2788321234  TIP3      6026            0.0000000000
     40329      6218  TIP3      H1             35.3242519019       27.0697928944       52.3657629083  TIP3      6026            0.0000000000
     40330      6218  TIP3      H2             36.6210880805       27.4889634469       51.6858989245  TIP3      6026            0.0000000000
     40331      6219  TIP3      OH2            20.4922203806       25.2864887059       55.5617719817  TIP3      6027            0.0000000000
     40332      6219  TIP3      H1             21.4311509847       25.0701191472       55.7469216578  TIP3      6027            0.0000000000
     40333      6219  TIP3      H2             20.0356500952       24.4601404017       55.8280433052  TIP3      6027            0.0000000000
     40334      6220  TIP3      OH2            35.3098207198       22.4613876289       44.4983351166  TIP3      6028            0.0000000000
     40335      6220  TIP3      H1             36.2405998284       22.2859153008       44.7159708064  TIP3      6028            0.0000000000
     40336      6220  TIP3      H2             35.3273591696       22.0395239011       43.6116867635  TIP3      6028            0.0000000000
     40337      6221  TIP3      OH2            21.6909694258       23.5738763342       48.4044379139  TIP3      6029            0.0000000000
     40338      6221  TIP3      H1             22.1520196324       22.7473207133       48.6597226861  TIP3      6029            0.0000000000
     40339      6221  TIP3      H2             22.2433680075       24.2664076420       48.7917279168  TIP3      6029            0.0000000000
     40340      6222  TIP3      OH2            19.9740408484       26.5772696594       49.4398341492  TIP3      6030            0.0000000000
     40341      6222  TIP3      H1             20.5377712449       26.3253348495       48.6801468044  TIP3      6030            0.0000000000
     40342      6222  TIP3      H2             20.4427811511       27.3801505025       49.7096077617  TIP3      6030            0.0000000000
     40343      6223  TIP3      OH2            20.3436940642       22.8528003513       43.5249407986  TIP3      6031            0.0000000000
     40344      6223  TIP3      H1             19.3999891885       23.0095713847       43.3593342714  TIP3      6031            0.0000000000
     40345      6223  TIP3      H2             20.7601848786       23.3272681339       42.7870590032  TIP3      6031            0.0000000000
     40346      6224  TIP3      OH2            20.2875758251       21.4854071214       51.8069916360  TIP3      6032            0.0000000000
     40347      6224  TIP3      H1             19.6202836011       21.2954091588       52.4895534898  TIP3      6032            0.0000000000
     40348      6224  TIP3      H2             19.8306173283       22.1618353633       51.2674586580  TIP3      6032            0.0000000000
     40349      6225  TIP3      OH2            22.5224304151       34.7465377206       55.9892945060  TIP3      6033            0.0000000000
     40350      6225  TIP3      H1             21.6725450394       34.8844368638       55.5317400193  TIP3      6033            0.0000000000
     40351      6225  TIP3      H2             22.2465431274       34.5774359293       56.8957472583  TIP3      6033            0.0000000000
     40352      6226  TIP3      OH2            25.4673404466       35.6856659872       52.3217040193  TIP3      6034            0.0000000000
     40353      6226  TIP3      H1             25.0256612270       36.4638886744       51.9507213563  TIP3      6034            0.0000000000
     40354      6226  TIP3      H2             26.3287868692       35.6661997583       51.8792905730  TIP3      6034            0.0000000000
     40355      6227  TIP3      OH2            24.6374304190       36.0265371876       47.6100138385  TIP3      6035            0.0000000000
     40356      6227  TIP3      H1             24.2439978798       35.2749047497       48.0797111878  TIP3      6035            0.0000000000
     40357      6227  TIP3      H2             25.2065377738       36.4016874632       48.3053018608  TIP3      6035            0.0000000000
     40358      6228  TIP3      OH2            30.4238054461       22.4265084710       47.8575954832  TIP3      6036            0.0000000000
     40359      6228  TIP3      H1             29.7605483653       21.7763958356       48.1385482748  TIP3      6036            0.0000000000
     40360      6228  TIP3      H2             30.9906653962       21.9008023335       47.2777676653  TIP3      6036            0.0000000000
     40361      6229  TIP3      OH2            35.5895899668       20.4629442681       47.9314277121  TIP3      6037            0.0000000000
     40362      6229  TIP3      H1             36.1671285734       21.0873813467       47.4874105313  TIP3      6037            0.0000000000
     40363      6229  TIP3      H2             34.6979637587       20.8224637841       47.7164451766  TIP3      6037            0.0000000000
     40364      6230  TIP3      OH2            22.8179335441       21.0499609536       45.7033873523  TIP3      6038            0.0000000000
     40365      6230  TIP3      H1             22.0201346981       20.8567153277       45.1747328801  TIP3      6038            0.0000000000
     40366      6230  TIP3      H2             23.2755846787       20.1888976712       45.6429583639  TIP3      6038            0.0000000000
     40367      6231  TIP3      OH2            21.5825593045       20.8030049695       41.4243893416  TIP3      6039            0.0000000000
     40368      6231  TIP3      H1             22.0751865858       21.4535002342       40.8899801928  TIP3      6039            0.0000000000
     40369      6231  TIP3      H2             21.0153549484       21.3786719541       41.9628790840  TIP3      6039            0.0000000000
     40370      6232  TIP3      OH2            27.2841652752       20.9751184402       45.4882937897  TIP3      6040            0.0000000000
     40371      6232  TIP3      H1             28.1844648551       21.3349623120       45.4148248910  TIP3      6040            0.0000000000
     40372      6232  TIP3      H2             27.2481325318       20.7557695525       46.4182287709  TIP3      6040            0.0000000000
     40373      6233  TIP3      OH2            33.0205834882       20.9513422115       47.1162676558  TIP3      6041            0.0000000000
     40374      6233  TIP3      H1             32.9636747179       21.1336887947       46.1701632947  TIP3      6041            0.0000000000
     40375      6233  TIP3      H2             32.5877673519       20.0702352005       47.2268170157  TIP3      6041            0.0000000000
     40376      6234  TIP3      OH2            34.2278754530       20.9372909308       42.6805705879  TIP3      6042            0.0000000000
     40377      6234  TIP3      H1             33.5297234142       21.6052193168       42.6355731958  TIP3      6042            0.0000000000
     40378      6234  TIP3      H2             33.7630939214       20.1402190544       43.0069284152  TIP3      6042            0.0000000000
     40379      6235  TIP3      OH2            23.4109138056       22.7474669747       39.9364841522  TIP3      6043            0.0000000000
     40380      6235  TIP3      H1             23.9428313091       22.1298209409       39.4081201449  TIP3      6043            0.0000000000
     40381      6235  TIP3      H2             24.0769065523       23.0695848143       40.5713876918  TIP3      6043            0.0000000000
     40382      6236  TIP3      OH2            28.4388453807       22.9906883594       42.3386372357  TIP3      6044            0.0000000000
     40383      6236  TIP3      H1             28.6892237659       22.4141017910       43.0803159051  TIP3      6044            0.0000000000
     40384      6236  TIP3      H2             28.5073629811       23.8566294242       42.7977138737  TIP3      6044            0.0000000000
     40385      6237  TIP3      OH2            22.6994504189       21.5915239977       55.1519049707  TIP3      6045            0.0000000000
     40386      6237  TIP3      H1             22.3111591746       20.7969929061       55.5599329987  TIP3      6045            0.0000000000
     40387      6237  TIP3      H2             23.6083241433       21.5508702339       55.5349656821  TIP3      6045            0.0000000000
     40388      6238  TIP3      OH2            24.7023452184       20.9752036900       56.7973583882  TIP3      6046            0.0000000000
     40389      6238  TIP3      H1             25.5958513434       20.6379085686       56.5800072959  TIP3      6046            0.0000000000
     40390      6238  TIP3      H2             24.3275161084       20.1684302955       57.2003062542  TIP3      6046            0.0000000000
     40391      6239  TIP3      OH2            33.1037350197       20.2923895116       56.9374303232  TIP3      6047            0.0000000000
     40392      6239  TIP3      H1             33.1929076049       19.8105585468       57.7856875518  TIP3      6047            0.0000000000
     40393      6239  TIP3      H2             34.0226065205       20.2644060905       56.5869016466  TIP3      6047            0.0000000000
     40394      6240  TIP3      OH2            36.2252695911      -36.7804421369       55.7296929008  TIP3      6048            0.0000000000
     40395      6240  TIP3      H1             35.5592458896      -36.9165828221       55.0454177428  TIP3      6048            0.0000000000
     40396      6240  TIP3      H2             36.2810642028      -35.8116200941       55.7628720815  TIP3      6048            0.0000000000
     40397      6241  TIP3      OH2           -24.6645369616      -26.3813496589       64.4048101842  TIP3      6049            0.0000000000
     40398      6241  TIP3      H1            -24.6830141564      -25.3997523126       64.3887239443  TIP3      6049            0.0000000000
     40399      6241  TIP3      H2            -25.3970342958      -26.6120109641       63.8122980258  TIP3      6049            0.0000000000
     40400      6242  TIP3      OH2           -25.8149246866      -27.1257612628       67.9173551611  TIP3      6050            0.0000000000
     40401      6242  TIP3      H1            -25.8238078383      -27.7729131703       68.6348932713  TIP3      6050            0.0000000000
     40402      6242  TIP3      H2            -26.1596065671      -27.6338898083       67.1641671236  TIP3      6050            0.0000000000
     40403      6243  TIP3      OH2           -33.4204200206      -27.4440175564       69.4674500766  TIP3      6051            0.0000000000
     40404      6243  TIP3      H1            -33.3378103226      -28.1457813393       70.1424806341  TIP3      6051            0.0000000000
     40405      6243  TIP3      H2            -32.6887002948      -26.8542553199       69.6874706154  TIP3      6051            0.0000000000
     40406      6244  TIP3      OH2           -22.1253082029      -24.1746237988       66.2025381741  TIP3      6052            0.0000000000
     40407      6244  TIP3      H1            -22.5346135882      -24.8929676217       66.6954804413  TIP3      6052            0.0000000000
     40408      6244  TIP3      H2            -22.1015332975      -23.4660113879       66.8720209830  TIP3      6052            0.0000000000
     40409      6245  TIP3      OH2           -32.5361124707      -23.0158890869       67.9869888717  TIP3      6053            0.0000000000
     40410      6245  TIP3      H1            -32.8502206378      -23.8720538798       67.6409211804  TIP3      6053            0.0000000000
     40411      6245  TIP3      H2            -31.5779633370      -23.1842047440       68.0076336928  TIP3      6053            0.0000000000
     40412      6246  TIP3      OH2           -35.6237699999      -29.4535131589       63.0480069055  TIP3      6054            0.0000000000
     40413      6246  TIP3      H1            -36.0653966105      -28.6515155936       63.4132318966  TIP3      6054            0.0000000000
     40414      6246  TIP3      H2            -36.4135689554      -29.9853951196       63.0366884317  TIP3      6054            0.0000000000
     40415      6247  TIP3      OH2           -35.2159242591      -27.2687683500       65.5578021690  TIP3      6055            0.0000000000
     40416      6247  TIP3      H1            -34.9225561033      -28.0328483915       66.0794776337  TIP3      6055            0.0000000000
     40417      6247  TIP3      H2            -34.4782642283      -27.1076602604       64.9552716866  TIP3      6055            0.0000000000
     40418      6248  TIP3      OH2           -25.0067768687      -19.0155407868       66.4390362327  TIP3      6056            0.0000000000
     40419      6248  TIP3      H1            -24.3572179348      -19.7036504315       66.1516268307  TIP3      6056            0.0000000000
     40420      6248  TIP3      H2            -25.2216064717      -19.3523141472       67.3085940858  TIP3      6056            0.0000000000
     40421      6249  TIP3      OH2           -27.4406620733      -24.7213008107       68.3942322697  TIP3      6057            0.0000000000
     40422      6249  TIP3      H1            -27.1003776655      -25.3472038835       67.7329138964  TIP3      6057            0.0000000000
     40423      6249  TIP3      H2            -26.6263758700      -24.5646201683       68.9048258402  TIP3      6057            0.0000000000
     40424      6250  TIP3      OH2           -18.8509620302      -33.0651536768       69.1108540312  TIP3      6058            0.0000000000
     40425      6250  TIP3      H1            -18.6583183928      -32.4921690829       69.8867386258  TIP3      6058            0.0000000000
     40426      6250  TIP3      H2            -18.2847399894      -32.6426571388       68.4502000634  TIP3      6058            0.0000000000
     40427      6251  TIP3      OH2           -24.2665163783      -30.2545811683       68.7130706850  TIP3      6059            0.0000000000
     40428      6251  TIP3      H1            -24.1112539714      -31.2207888683       68.7135813375  TIP3      6059            0.0000000000
     40429      6251  TIP3      H2            -24.3721134472      -30.1088984476       67.7521020739  TIP3      6059            0.0000000000
     40430      6252  TIP3      OH2           -31.1419568838      -32.1462146320       65.9270582589  TIP3      6060            0.0000000000
     40431      6252  TIP3      H1            -31.0345783028      -31.3240253107       65.4150184381  TIP3      6060            0.0000000000
     40432      6252  TIP3      H2            -31.5385752781      -32.7247893976       65.2448461990  TIP3      6060            0.0000000000
     40433      6253  TIP3      OH2           -23.4121929186      -32.1101942835       64.2908558028  TIP3      6061            0.0000000000
     40434      6253  TIP3      H1            -22.7585944763      -32.3842750116       64.9721552502  TIP3      6061            0.0000000000
     40435      6253  TIP3      H2            -22.8639981729      -31.5185112664       63.7577853264  TIP3      6061            0.0000000000
     40436      6254  TIP3      OH2           -34.5637821130      -29.8346305042       66.5924477181  TIP3      6062            0.0000000000
     40437      6254  TIP3      H1            -33.8394405787      -30.3059602764       67.0589038965  TIP3      6062            0.0000000000
     40438      6254  TIP3      H2            -34.3831896203      -30.1175683372       65.6870706001  TIP3      6062            0.0000000000
     40439      6255  TIP3      OH2           -29.3779143405      -28.2007242595       65.9720632045  TIP3      6063            0.0000000000
     40440      6255  TIP3      H1            -28.7014516920      -28.7795344778       66.3658387016  TIP3      6063            0.0000000000
     40441      6255  TIP3      H2            -29.8909315802      -28.8593090678       65.4644696771  TIP3      6063            0.0000000000
     40442      6256  TIP3      OH2           -18.3794826352      -31.6469690618       71.4005824264  TIP3      6064            0.0000000000
     40443      6256  TIP3      H1            -19.0088913787      -30.9035353669       71.2871366053  TIP3      6064            0.0000000000
     40444      6256  TIP3      H2            -18.3618508268      -31.7553137968       72.3647333362  TIP3      6064            0.0000000000
     40445      6257  TIP3      OH2           -32.2075135640      -33.2205699690       69.9372767078  TIP3      6065            0.0000000000
     40446      6257  TIP3      H1            -32.5455768726      -32.6689025925       69.2032299839  TIP3      6065            0.0000000000
     40447      6257  TIP3      H2            -32.9054309023      -33.0402909488       70.6191194733  TIP3      6065            0.0000000000
     40448      6258  TIP3      OH2           -24.9574278037      -23.7881914171       63.5043707147  TIP3      6066            0.0000000000
     40449      6258  TIP3      H1            -25.2155160813      -24.0566352314       62.6133721934  TIP3      6066            0.0000000000
     40450      6258  TIP3      H2            -25.2635122232      -22.8531621479       63.5554814104  TIP3      6066            0.0000000000
     40451      6259  TIP3      OH2           -29.7211366635      -25.6291103436       70.2223016165  TIP3      6067            0.0000000000
     40452      6259  TIP3      H1            -30.4283839391      -24.9735597594       70.4036109425  TIP3      6067            0.0000000000
     40453      6259  TIP3      H2            -29.0212799409      -25.0348576970       69.9080138241  TIP3      6067            0.0000000000
     40454      6260  TIP3      OH2           -21.5924347565      -32.7542336677       66.2703353573  TIP3      6068            0.0000000000
     40455      6260  TIP3      H1            -21.8478780212      -33.4982149850       66.8268830413  TIP3      6068            0.0000000000
     40456      6260  TIP3      H2            -20.9368430219      -32.3074056161       66.8324902288  TIP3      6068            0.0000000000
     40457      6261  TIP3      OH2           -32.7094666863      -31.3772372742       67.9724935462  TIP3      6069            0.0000000000
     40458      6261  TIP3      H1            -32.0652281216      -30.7229984699       68.3224760314  TIP3      6069            0.0000000000
     40459      6261  TIP3      H2            -32.1645927414      -31.8040570476       67.2590009264  TIP3      6069            0.0000000000
     40460      6262  TIP3      OH2           -31.2970520104      -23.6426074458       71.0094601240  TIP3      6070            0.0000000000
     40461      6262  TIP3      H1            -31.3289609180      -22.7260692421       70.6746072647  TIP3      6070            0.0000000000
     40462      6262  TIP3      H2            -32.1841363885      -23.6854994095       71.4320588718  TIP3      6070            0.0000000000
     40463      6263  TIP3      OH2           -35.2540023379      -23.9626261561       61.7487807028  TIP3      6071            0.0000000000
     40464      6263  TIP3      H1            -35.4411404233      -23.6104424072       60.8632608921  TIP3      6071            0.0000000000
     40465      6263  TIP3      H2            -35.1178736898      -23.1721468520       62.3072401701  TIP3      6071            0.0000000000
     40466      6264  TIP3      OH2           -21.5960274065      -22.3349243325       68.5708856494  TIP3      6072            0.0000000000
     40467      6264  TIP3      H1            -22.5644111555      -22.2240477843       68.6886630034  TIP3      6072            0.0000000000
     40468      6264  TIP3      H2            -21.3284017521      -21.4197972247       68.3657119499  TIP3      6072            0.0000000000
     40469      6265  TIP3      OH2           -21.2434380257      -34.0512108160       70.0197114519  TIP3      6073            0.0000000000
     40470      6265  TIP3      H1            -21.9891070469      -33.4587611874       69.8605719428  TIP3      6073            0.0000000000
     40471      6265  TIP3      H2            -20.5474781550      -33.6520615031       69.4583037080  TIP3      6073            0.0000000000
     40472      6266  TIP3      OH2           -28.3411829253      -35.9230260899       67.2461069005  TIP3      6074            0.0000000000
     40473      6266  TIP3      H1            -28.3447944577      -36.8802952039       67.4129518636  TIP3      6074            0.0000000000
     40474      6266  TIP3      H2            -29.1283515113      -35.6619364674       67.7520819670  TIP3      6074            0.0000000000
     40475      6267  TIP3      OH2           -23.3351014281      -20.5509977995       65.1551060516  TIP3      6075            0.0000000000
     40476      6267  TIP3      H1            -22.9082009986      -21.2714489627       64.6474461769  TIP3      6075            0.0000000000
     40477      6267  TIP3      H2            -22.9002796420      -19.7629904431       64.7651167369  TIP3      6075            0.0000000000
     40478      6268  TIP3      OH2           -22.1201995251      -22.6256625769       63.6764417317  TIP3      6076            0.0000000000
     40479      6268  TIP3      H1            -22.4242023622      -23.3217340563       63.0724202345  TIP3      6076            0.0000000000
     40480      6268  TIP3      H2            -22.0892720296      -23.1162679633       64.5172710363  TIP3      6076            0.0000000000
     40481      6269  TIP3      OH2           -20.5092950257      -24.0319909736       72.1715720226  TIP3      6077            0.0000000000
     40482      6269  TIP3      H1            -20.3617480820      -24.6833376518       71.4503808272  TIP3      6077            0.0000000000
     40483      6269  TIP3      H2            -20.3179454775      -23.1882377767       71.7275542503  TIP3      6077            0.0000000000
     40484      6270  TIP3      OH2           -26.0089806372      -27.1538102077       61.9262667093  TIP3      6078            0.0000000000
     40485      6270  TIP3      H1            -26.7024130662      -26.5686985333       61.5720992008  TIP3      6078            0.0000000000
     40486      6270  TIP3      H2            -25.2989292804      -27.0420159448       61.2680060986  TIP3      6078            0.0000000000
     40487      6271  TIP3      OH2           -25.9279029928      -28.5718405284       58.9408215544  TIP3      6079            0.0000000000
     40488      6271  TIP3      H1            -25.2205488532      -28.5863814856       59.6036747054  TIP3      6079            0.0000000000
     40489      6271  TIP3      H2            -25.6227282313      -29.2899350215       58.3715738170  TIP3      6079            0.0000000000
     40490      6272  TIP3      OH2           -18.6401951922      -27.7339548076       70.1933397794  TIP3      6080            0.0000000000
     40491      6272  TIP3      H1            -19.2615793473      -26.9831075229       70.2541474315  TIP3      6080            0.0000000000
     40492      6272  TIP3      H2            -18.1244834124      -27.4863216821       69.4058758238  TIP3      6080            0.0000000000
     40493      6273  TIP3      OH2           -22.5584905488      -26.9414140717       62.8512193998  TIP3      6081            0.0000000000
     40494      6273  TIP3      H1            -23.3000778856      -26.6902898674       63.4516062652  TIP3      6081            0.0000000000
     40495      6273  TIP3      H2            -22.0855403714      -27.6096168333       63.3771306430  TIP3      6081            0.0000000000
     40496      6274  TIP3      OH2           -22.6355961726      -28.7627310994       71.9598812792  TIP3      6082            0.0000000000
     40497      6274  TIP3      H1            -22.6262102947      -27.9558862902       72.5033847591  TIP3      6082            0.0000000000
     40498      6274  TIP3      H2            -23.2681752393      -28.4667433431       71.2775945230  TIP3      6082            0.0000000000
     40499      6275  TIP3      OH2           -30.9317481273      -26.2626911748       64.7724198887  TIP3      6083            0.0000000000
     40500      6275  TIP3      H1            -31.2780730789      -26.6598503249       63.9348986250  TIP3      6083            0.0000000000
     40501      6275  TIP3      H2            -30.3275420234      -26.9658191301       65.1024209361  TIP3      6083            0.0000000000
     40502      6276  TIP3      OH2           -29.6306611099      -22.8905166915       67.4471714611  TIP3      6084            0.0000000000
     40503      6276  TIP3      H1            -29.6326966637      -23.4132075739       66.6371071991  TIP3      6084            0.0000000000
     40504      6276  TIP3      H2            -28.8472281217      -23.2420857652       67.9076016250  TIP3      6084            0.0000000000
     40505      6277  TIP3      OH2           -30.5900206362      -27.5272710306       68.4266262160  TIP3      6085            0.0000000000
     40506      6277  TIP3      H1            -30.0578334458      -27.4202539884       67.6175663953  TIP3      6085            0.0000000000
     40507      6277  TIP3      H2            -30.2230704717      -26.8418955321       69.0281429628  TIP3      6085            0.0000000000
     40508      6278  TIP3      OH2           -24.2083215921      -21.9513724061       69.1351122060  TIP3      6086            0.0000000000
     40509      6278  TIP3      H1            -24.4940407119      -21.3132226614       69.7949835173  TIP3      6086            0.0000000000
     40510      6278  TIP3      H2            -24.4614344286      -22.8033991289       69.5609019753  TIP3      6086            0.0000000000
     40511      6279  TIP3      OH2           -29.6901904401      -23.1286567994       73.1441660062  TIP3      6087            0.0000000000
     40512      6279  TIP3      H1            -30.0807571335      -22.3634625356       73.6165241643  TIP3      6087            0.0000000000
     40513      6279  TIP3      H2            -30.3360778202      -23.2770613220       72.4142530888  TIP3      6087            0.0000000000
     40514      6280  TIP3      OH2           -23.6826426980      -27.7275954730       60.5173535062  TIP3      6088            0.0000000000
     40515      6280  TIP3      H1            -23.1273540632      -27.5537133314       61.3181428461  TIP3      6088            0.0000000000
     40516      6280  TIP3      H2            -23.2320471035      -27.2326871654       59.7964752873  TIP3      6088            0.0000000000
     40517      6281  TIP3      OH2           -32.7455837561      -26.8705821000       72.3018854262  TIP3      6089            0.0000000000
     40518      6281  TIP3      H1            -32.6905626429      -26.0902818853       72.8849783141  TIP3      6089            0.0000000000
     40519      6281  TIP3      H2            -33.6731022338      -26.7694231608       71.9882781091  TIP3      6089            0.0000000000
     40520      6282  TIP3      OH2           -25.9721396329      -21.0057404119       63.9917169652  TIP3      6090            0.0000000000
     40521      6282  TIP3      H1            -25.5406960594      -20.6990043631       64.7969368086  TIP3      6090            0.0000000000
     40522      6282  TIP3      H2            -26.5290770189      -20.2565676292       63.7518458781  TIP3      6090            0.0000000000
     40523      6283  TIP3      OH2           -31.4220182572      -21.0708014641       73.8731165240  TIP3      6091            0.0000000000
     40524      6283  TIP3      H1            -31.4942184151      -21.1519982118       72.9046918866  TIP3      6091            0.0000000000
     40525      6283  TIP3      H2            -32.3538187572      -21.2077755085       74.1347583776  TIP3      6091            0.0000000000
     40526      6284  TIP3      OH2           -19.9959824553      -35.8497253443       60.1718141803  TIP3      6092            0.0000000000
     40527      6284  TIP3      H1            -20.8515828726      -35.8121011158       60.6343474781  TIP3      6092            0.0000000000
     40528      6284  TIP3      H2            -19.7546786014      -34.9391607290       59.9598909555  TIP3      6092            0.0000000000
     40529      6285  TIP3      OH2           -31.9671721277      -27.2556435206       62.4001323548  TIP3      6093            0.0000000000
     40530      6285  TIP3      H1            -32.2538532933      -26.4750921195       61.8824726845  TIP3      6093            0.0000000000
     40531      6285  TIP3      H2            -32.6209378484      -27.9166211393       62.1620207477  TIP3      6093            0.0000000000
     40532      6286  TIP3      OH2           -18.8601063077      -21.6299344514       58.7462008946  TIP3      6094            0.0000000000
     40533      6286  TIP3      H1            -18.6716399279      -20.6978424370       58.9493317553  TIP3      6094            0.0000000000
     40534      6286  TIP3      H2            -17.9359001273      -21.9575293219       58.7800475675  TIP3      6094            0.0000000000
     40535      6287  TIP3      OH2           -35.2901049673      -24.9717416717       71.0449433393  TIP3      6095            0.0000000000
     40536      6287  TIP3      H1            -36.0495940323      -24.8173780758       70.4396969867  TIP3      6095            0.0000000000
     40537      6287  TIP3      H2            -35.7025314352      -25.7432741011       71.4843473815  TIP3      6095            0.0000000000
     40538      6288  TIP3      OH2           -35.8267795681      -21.8441272597       67.7796687479  TIP3      6096            0.0000000000
     40539      6288  TIP3      H1            -35.0066489545      -22.2523381488       68.0684255380  TIP3      6096            0.0000000000
     40540      6288  TIP3      H2            -36.1155461442      -21.3829277600       68.5794461624  TIP3      6096            0.0000000000
     40541      6289  TIP3      OH2           -17.8905213401      -21.3894500073       73.7127391485  TIP3      6097            0.0000000000
     40542      6289  TIP3      H1            -18.0342207391      -22.3475072636       73.7472790449  TIP3      6097            0.0000000000
     40543      6289  TIP3      H2            -18.7376678236      -21.1171819497       74.1476877457  TIP3      6097            0.0000000000
     40544      6290  TIP3      OH2           -26.9352940946      -21.8384517681       72.6157328439  TIP3      6098            0.0000000000
     40545      6290  TIP3      H1            -26.8771617829      -21.0016695451       73.1367635225  TIP3      6098            0.0000000000
     40546      6290  TIP3      H2            -27.8078232109      -22.1966201952       72.8629272061  TIP3      6098            0.0000000000
     40547      6291  TIP3      OH2           -26.4898704859      -18.0981284933       62.4011754509  TIP3      6099            0.0000000000
     40548      6291  TIP3      H1            -26.6017523904      -18.1758462553       61.4361989170  TIP3      6099            0.0000000000
     40549      6291  TIP3      H2            -26.4890396600      -17.1357380054       62.5579822837  TIP3      6099            0.0000000000
     40550      6292  TIP3      OH2           -32.8639883310      -19.2157643527       64.2132562421  TIP3      6100            0.0000000000
     40551      6292  TIP3      H1            -32.7184693042      -19.6212989238       65.0966113518  TIP3      6100            0.0000000000
     40552      6292  TIP3      H2            -33.6954974518      -19.6498962023       63.9757551164  TIP3      6100            0.0000000000
     40553      6293  TIP3      OH2           -23.4370768396      -18.8845641936       59.3856064441  TIP3      6101            0.0000000000
     40554      6293  TIP3      H1            -22.9820255377      -19.6429566584       58.9518408989  TIP3      6101            0.0000000000
     40555      6293  TIP3      H2            -23.3973518054      -19.1457279696       60.3290623393  TIP3      6101            0.0000000000
     40556      6294  TIP3      OH2           -23.7406944072      -18.9492200201       62.1601462650  TIP3      6102            0.0000000000
     40557      6294  TIP3      H1            -24.7022776616      -18.8749958819       62.3305803778  TIP3      6102            0.0000000000
     40558      6294  TIP3      H2            -23.5077010429      -19.6915300752       62.7381727436  TIP3      6102            0.0000000000
     40559      6295  TIP3      OH2           -20.7275218741      -29.9265912111       74.1913690129  TIP3      6103            0.0000000000
     40560      6295  TIP3      H1            -21.2212742005      -29.4772099437       73.4940405111  TIP3      6103            0.0000000000
     40561      6295  TIP3      H2            -20.7454668699      -30.8566164850       73.9266279360  TIP3      6103            0.0000000000
     40562      6296  TIP3      OH2           -33.5773266317      -23.4427243052       72.2840640967  TIP3      6104            0.0000000000
     40563      6296  TIP3      H1            -33.4210425440      -23.8412985283       73.1532029387  TIP3      6104            0.0000000000
     40564      6296  TIP3      H2            -34.4266738075      -23.8528446147       71.9999390304  TIP3      6104            0.0000000000
     40565      6297  TIP3      OH2           -30.9447862872      -35.0528296834       68.2003170996  TIP3      6105            0.0000000000
     40566      6297  TIP3      H1            -31.8411606930      -35.1272247899       67.8100497131  TIP3      6105            0.0000000000
     40567      6297  TIP3      H2            -31.0598991859      -34.2019737572       68.6530089583  TIP3      6105            0.0000000000
     40568      6298  TIP3      OH2           -26.3067311734      -35.3366035327       71.5863019938  TIP3      6106            0.0000000000
     40569      6298  TIP3      H1            -25.8756866465      -35.7705021533       72.3262483643  TIP3      6106            0.0000000000
     40570      6298  TIP3      H2            -27.2608580359      -35.4459833889       71.7459370090  TIP3      6106            0.0000000000
     40571      6299  TIP3      OH2           -23.0184298283      -31.5643230470       72.4157440374  TIP3      6107            0.0000000000
     40572      6299  TIP3      H1            -23.5739012907      -31.7149099754       73.2161491523  TIP3      6107            0.0000000000
     40573      6299  TIP3      H2            -23.1493790622      -30.6228850106       72.2073481779  TIP3      6107            0.0000000000
     40574      6300  TIP3      OH2           -22.2345848692      -26.6955801094       58.3351253315  TIP3      6108            0.0000000000
     40575      6300  TIP3      H1            -22.2567582584      -26.8841339595       57.3684389794  TIP3      6108            0.0000000000
     40576      6300  TIP3      H2            -21.3751917697      -26.2526158645       58.3863440284  TIP3      6108            0.0000000000
     40577      6301  TIP3      OH2           -26.6366995671      -32.7848886309       58.8575812457  TIP3      6109            0.0000000000
     40578      6301  TIP3      H1            -26.9631252476      -32.8557729287       59.7667248698  TIP3      6109            0.0000000000
     40579      6301  TIP3      H2            -26.9541074531      -33.6544795428       58.5451818363  TIP3      6109            0.0000000000
     40580      6302  TIP3      OH2           -30.8299068922      -30.0453627800       69.4382400513  TIP3      6110            0.0000000000
     40581      6302  TIP3      H1            -31.5788877585      -30.0596737772       70.0618307411  TIP3      6110            0.0000000000
     40582      6302  TIP3      H2            -30.8550895046      -29.1462602434       69.0403505331  TIP3      6110            0.0000000000
     40583      6303  TIP3      OH2           -30.8404974535      -29.9290073780       64.2859308248  TIP3      6111            0.0000000000
     40584      6303  TIP3      H1            -31.7821443599      -30.1689976854       64.1476102068  TIP3      6111            0.0000000000
     40585      6303  TIP3      H2            -30.4678071216      -30.2320793506       63.4355343162  TIP3      6111            0.0000000000
     40586      6304  TIP3      OH2           -25.3379434883      -29.4283846354       63.0638588814  TIP3      6112            0.0000000000
     40587      6304  TIP3      H1            -25.7342445298      -28.6063800275       62.6943984949  TIP3      6112            0.0000000000
     40588      6304  TIP3      H2            -24.6485289959      -29.6075430667       62.4021451334  TIP3      6112            0.0000000000
     40589      6305  TIP3      OH2           -26.2885211294      -29.2116517023       74.5008218140  TIP3      6113            0.0000000000
     40590      6305  TIP3      H1            -26.8041007377      -29.9999027679       74.8007825746  TIP3      6113            0.0000000000
     40591      6305  TIP3      H2            -25.4375985574      -29.3426833314       74.9573050207  TIP3      6113            0.0000000000
     40592      6306  TIP3      OH2           -24.3030973518      -29.9402351213       65.9068160469  TIP3      6114            0.0000000000
     40593      6306  TIP3      H1            -24.5929718891      -29.3837619561       65.1664310719  TIP3      6114            0.0000000000
     40594      6306  TIP3      H2            -24.2159087193      -30.7910664726       65.4407688808  TIP3      6114            0.0000000000
     40595      6307  TIP3      OH2           -33.1808257005      -29.8121322285       71.1122157632  TIP3      6115            0.0000000000
     40596      6307  TIP3      H1            -33.1964035845      -29.4271423979       71.9829077520  TIP3      6115            0.0000000000
     40597      6307  TIP3      H2            -33.6804940177      -30.6303930198       71.2735202766  TIP3      6115            0.0000000000
     40598      6308  TIP3      OH2           -29.8323801713      -32.3853833057       57.9730729532  TIP3      6116            0.0000000000
     40599      6308  TIP3      H1            -30.2911439026      -32.8281229798       58.7118573680  TIP3      6116            0.0000000000
     40600      6308  TIP3      H2            -30.5422122629      -31.9986263205       57.4464972221  TIP3      6116            0.0000000000
     40601      6309  TIP3      OH2           -36.1754656737      -32.3862004326       64.8940316283  TIP3      6117            0.0000000000
     40602      6309  TIP3      H1            -35.8289485506      -32.6977247937       65.7609490082  TIP3      6117            0.0000000000
     40603      6309  TIP3      H2            -36.0186889111      -33.1340911307       64.3322171223  TIP3      6117            0.0000000000
     40604      6310  TIP3      OH2           -35.2850637993      -31.8263487245       60.4544929826  TIP3      6118            0.0000000000
     40605      6310  TIP3      H1            -34.7332687890      -31.2961869956       59.8388541342  TIP3      6118            0.0000000000
     40606      6310  TIP3      H2            -36.0183748041      -31.2577846492       60.6579476413  TIP3      6118            0.0000000000
     40607      6311  TIP3      OH2           -25.1191273502      -28.3603008436       70.4590749895  TIP3      6119            0.0000000000
     40608      6311  TIP3      H1            -24.7302967830      -29.0473469225       69.8769710856  TIP3      6119            0.0000000000
     40609      6311  TIP3      H2            -25.5785650405      -28.8911088411       71.1331210410  TIP3      6119            0.0000000000
     40610      6312  TIP3      OH2           -28.3044324605      -32.3922591085       65.2753171665  TIP3      6120            0.0000000000
     40611      6312  TIP3      H1            -29.2340449306      -32.3895667183       65.5876724778  TIP3      6120            0.0000000000
     40612      6312  TIP3      H2            -27.8131866317      -32.5428262885       66.1006433984  TIP3      6120            0.0000000000
     40613      6313  TIP3      OH2           -33.4804298493      -30.8311591337       64.1625461207  TIP3      6121            0.0000000000
     40614      6313  TIP3      H1            -34.3566497711      -30.6701023603       63.7644675607  TIP3      6121            0.0000000000
     40615      6313  TIP3      H2            -33.2197526265      -31.6662252265       63.7361958804  TIP3      6121            0.0000000000
     40616      6314  TIP3      OH2           -29.8556096010      -30.7917637206       61.7910724056  TIP3      6122            0.0000000000
     40617      6314  TIP3      H1            -28.8992364584      -30.6805263837       61.9495659373  TIP3      6122            0.0000000000
     40618      6314  TIP3      H2            -30.1080418731      -30.0957412514       61.1525054678  TIP3      6122            0.0000000000
     40619      6315  TIP3      OH2           -23.9013729540      -33.1713719042       68.5315507064  TIP3      6123            0.0000000000
     40620      6315  TIP3      H1            -24.5902234591      -33.0910122966       69.2256800460  TIP3      6123            0.0000000000
     40621      6315  TIP3      H2            -24.4033261011      -33.4362157601       67.7494828167  TIP3      6123            0.0000000000
     40622      6316  TIP3      OH2           -31.1368499606      -29.6168890626       59.3679287610  TIP3      6124            0.0000000000
     40623      6316  TIP3      H1            -31.6762627499      -29.9804368840       58.6474146757  TIP3      6124            0.0000000000
     40624      6316  TIP3      H2            -30.3149618446      -29.4005841007       58.9012248143  TIP3      6124            0.0000000000
     40625      6317  TIP3      OH2           -20.7102706939      -17.5077359629       74.8995600376  TIP3      6125            0.0000000000
     40626      6317  TIP3      H1            -20.4340242397      -17.1419548356       74.0377537980  TIP3      6125            0.0000000000
     40627      6317  TIP3      H2            -19.9746066515      -17.2035226018       75.4556889876  TIP3      6125            0.0000000000
     40628      6318  TIP3      OH2           -33.0045719524      -25.1476960639       74.4880333101  TIP3      6126            0.0000000000
     40629      6318  TIP3      H1            -32.3044605440      -24.7610904441       75.0550081836  TIP3      6126            0.0000000000
     40630      6318  TIP3      H2            -33.7822673758      -24.9106438265       75.0377891724  TIP3      6126            0.0000000000
     40631      6319  TIP3      OH2           -27.0231509141      -29.6343221414       67.1854139508  TIP3      6127            0.0000000000
     40632      6319  TIP3      H1            -26.4214695580      -30.1751975570       66.6594725028  TIP3      6127            0.0000000000
     40633      6319  TIP3      H2            -27.1736773663      -30.1763746365       67.9725112246  TIP3      6127            0.0000000000
     40634      6320  TIP3      OH2           -32.0442991770      -33.4385283779       63.6266893931  TIP3      6128            0.0000000000
     40635      6320  TIP3      H1            -32.3446394632      -34.3618138750       63.6482391922  TIP3      6128            0.0000000000
     40636      6320  TIP3      H2            -31.2583529531      -33.5185000031       63.0744116902  TIP3      6128            0.0000000000
     40637      6321  TIP3      OH2           -28.3772320402      -31.2505321085       69.5906250089  TIP3      6129            0.0000000000
     40638      6321  TIP3      H1            -29.2212776473      -30.7668257687       69.7007547208  TIP3      6129            0.0000000000
     40639      6321  TIP3      H2            -27.8320580272      -30.9371545588       70.3355010063  TIP3      6129            0.0000000000
     40640      6322  TIP3      OH2           -27.7978265155      -25.0776522610       61.3009601634  TIP3      6130            0.0000000000
     40641      6322  TIP3      H1            -28.5978705887      -25.5433595594       60.9657073399  TIP3      6130            0.0000000000
     40642      6322  TIP3      H2            -28.0246642342      -24.9540597921       62.2452647238  TIP3      6130            0.0000000000
     40643      6323  TIP3      OH2           -20.6105613901      -25.8720459871       70.1062812448  TIP3      6131            0.0000000000
     40644      6323  TIP3      H1            -20.0491051413      -25.3925230611       69.4714862404  TIP3      6131            0.0000000000
     40645      6323  TIP3      H2            -21.4706455667      -25.8309500202       69.6410781123  TIP3      6131            0.0000000000
     40646      6324  TIP3      OH2           -23.9826274350      -32.2540438966       59.4929290475  TIP3      6132            0.0000000000
     40647      6324  TIP3      H1            -24.9315352330      -32.1007811908       59.3339883887  TIP3      6132            0.0000000000
     40648      6324  TIP3      H2            -23.6330817601      -31.4034788030       59.8303217392  TIP3      6132            0.0000000000
     40649      6325  TIP3      OH2           -26.3071385332      -24.8119112261       72.5409939991  TIP3      6133            0.0000000000
     40650      6325  TIP3      H1            -26.6593107884      -25.2370006284       73.3296621849  TIP3      6133            0.0000000000
     40651      6325  TIP3      H2            -26.5612150958      -23.8877809706       72.6509669709  TIP3      6133            0.0000000000
     40652      6326  TIP3      OH2           -23.2241760157      -30.3521013986       61.0948116094  TIP3      6134            0.0000000000
     40653      6326  TIP3      H1            -22.3442667358      -30.4903860265       61.5046150761  TIP3      6134            0.0000000000
     40654      6326  TIP3      H2            -23.1239494533      -29.5197868888       60.6001958365  TIP3      6134            0.0000000000
     40655      6327  TIP3      OH2           -32.6922411633      -25.6802526652       67.0921550820  TIP3      6135            0.0000000000
     40656      6327  TIP3      H1            -32.0182991929      -25.7634374186       66.3960359602  TIP3      6135            0.0000000000
     40657      6327  TIP3      H2            -32.5978222644      -26.5220089399       67.5692514915  TIP3      6135            0.0000000000
     40658      6328  TIP3      OH2           -25.7043981196      -23.6096462665       60.3314493970  TIP3      6136            0.0000000000
     40659      6328  TIP3      H1            -26.0488187744      -22.7645958253       60.6887926848  TIP3      6136            0.0000000000
     40660      6328  TIP3      H2            -26.4344778062      -24.2273223961       60.5525512776  TIP3      6136            0.0000000000
     40661      6329  TIP3      OH2           -35.6645098673      -27.3355238540       72.3597101471  TIP3      6137            0.0000000000
     40662      6329  TIP3      H1            -35.5597810895      -27.7540222777       73.2274810255  TIP3      6137            0.0000000000
     40663      6329  TIP3      H2            -36.3268020706      -27.9043355807       71.9263853067  TIP3      6137            0.0000000000
     40664      6330  TIP3      OH2           -28.7187372145      -27.7397405933       74.5510702409  TIP3      6138            0.0000000000
     40665      6330  TIP3      H1            -28.9651536289      -28.0291651598       73.6628060210  TIP3      6138            0.0000000000
     40666      6330  TIP3      H2            -27.7762641144      -28.0195291793       74.5593868452  TIP3      6138            0.0000000000
     40667      6331  TIP3      OH2           -24.0009067724      -22.3855000983       72.4904947755  TIP3      6139            0.0000000000
     40668      6331  TIP3      H1            -24.9264083129      -22.2046769808       72.2597749436  TIP3      6139            0.0000000000
     40669      6331  TIP3      H2            -24.0328225823      -22.0945642081       73.4227714492  TIP3      6139            0.0000000000
     40670      6332  TIP3      OH2           -18.3194559948      -30.1950263677       60.8776929522  TIP3      6140            0.0000000000
     40671      6332  TIP3      H1            -18.8943976693      -30.4859225009       60.1446569406  TIP3      6140            0.0000000000
     40672      6332  TIP3      H2            -18.2523279167      -29.2457823064       60.6261023894  TIP3      6140            0.0000000000
     40673      6333  TIP3      OH2           -18.3305777211      -24.3216776023       73.6738517604  TIP3      6141            0.0000000000
     40674      6333  TIP3      H1            -19.2420335456      -24.1300307111       73.3328332895  TIP3      6141            0.0000000000
     40675      6333  TIP3      H2            -17.8081278625      -24.4058783184       72.8573500426  TIP3      6141            0.0000000000
     40676      6334  TIP3      OH2           -20.0875930193      -21.3750574088       61.2698174541  TIP3      6142            0.0000000000
     40677      6334  TIP3      H1            -20.4099304396      -22.2139093123       61.6237198336  TIP3      6142            0.0000000000
     40678      6334  TIP3      H2            -19.7045264796      -21.5983495687       60.4073558388  TIP3      6142            0.0000000000
     40679      6335  TIP3      OH2           -22.8299420912      -26.5602682579       68.3837212196  TIP3      6143            0.0000000000
     40680      6335  TIP3      H1            -23.7725754789      -26.7683632706       68.2785721041  TIP3      6143            0.0000000000
     40681      6335  TIP3      H2            -22.4044822778      -27.3219150718       67.9471814262  TIP3      6143            0.0000000000
     40682      6336  TIP3      OH2           -30.3270467520      -22.2223758832       64.5005630937  TIP3      6144            0.0000000000
     40683      6336  TIP3      H1            -29.8204244135      -21.4237455003       64.2814109751  TIP3      6144            0.0000000000
     40684      6336  TIP3      H2            -31.2058197517      -21.9944774794       64.1652939370  TIP3      6144            0.0000000000
     40685      6337  TIP3      OH2           -34.5995919106      -27.3809782411       59.0965138910  TIP3      6145            0.0000000000
     40686      6337  TIP3      H1            -33.9567098448      -26.7232895497       59.4508609527  TIP3      6145            0.0000000000
     40687      6337  TIP3      H2            -35.4532575720      -27.0276833465       59.3576367184  TIP3      6145            0.0000000000
     40688      6338  TIP3      OH2           -28.9050077555      -24.5599559750       63.9917377992  TIP3      6146            0.0000000000
     40689      6338  TIP3      H1            -29.2170061611      -23.6415532259       64.0971648972  TIP3      6146            0.0000000000
     40690      6338  TIP3      H2            -29.6154481825      -25.0572939147       64.4447479107  TIP3      6146            0.0000000000
     40691      6339  TIP3      OH2           -28.4395718739      -20.3832457095       70.4094964308  TIP3      6147            0.0000000000
     40692      6339  TIP3      H1            -27.9929843787      -19.5712213307       70.1272261302  TIP3      6147            0.0000000000
     40693      6339  TIP3      H2            -27.8208966254      -20.7231880874       71.0793459436  TIP3      6147            0.0000000000
     40694      6340  TIP3      OH2           -30.2265763898      -19.5729568072       63.5275014110  TIP3      6148            0.0000000000
     40695      6340  TIP3      H1            -31.1895968229      -19.4283853366       63.6630678028  TIP3      6148            0.0000000000
     40696      6340  TIP3      H2            -29.8608783659      -18.7363932224       63.8707307937  TIP3      6148            0.0000000000
     40697      6341  TIP3      OH2           -24.9335884310      -24.3866099361       70.0313113039  TIP3      6149            0.0000000000
     40698      6341  TIP3      H1            -25.2516801764      -24.5774009515       70.9388445424  TIP3      6149            0.0000000000
     40699      6341  TIP3      H2            -24.2875076329      -25.0916633493       69.8653346031  TIP3      6149            0.0000000000
     40700      6342  TIP3      OH2           -22.5858301341      -23.3034271651       59.1214760309  TIP3      6150            0.0000000000
     40701      6342  TIP3      H1            -22.2915823812      -23.7778504503       59.9251527225  TIP3      6150            0.0000000000
     40702      6342  TIP3      H2            -23.5395081499      -23.4884106147       59.2023708274  TIP3      6150            0.0000000000
     40703      6343  TIP3      OH2           -22.1023466383      -19.8006498375       72.5215193633  TIP3      6151            0.0000000000
     40704      6343  TIP3      H1            -22.7989786099      -20.2927803475       72.0440858843  TIP3      6151            0.0000000000
     40705      6343  TIP3      H2            -21.9268967812      -19.0984688117       71.8584167530  TIP3      6151            0.0000000000
     40706      6344  TIP3      OH2           -18.1494683630      -18.9453947766       59.3435583413  TIP3      6152            0.0000000000
     40707      6344  TIP3      H1            -17.4289319812      -18.3016301186       59.1865916360  TIP3      6152            0.0000000000
     40708      6344  TIP3      H2            -18.8463250516      -18.3297445680       59.6613025225  TIP3      6152            0.0000000000
     40709      6345  TIP3      OH2           -34.0389965505      -32.5561304323       71.8996400349  TIP3      6153            0.0000000000
     40710      6345  TIP3      H1            -34.9371025449      -32.1960090411       71.9549563882  TIP3      6153            0.0000000000
     40711      6345  TIP3      H2            -34.1830619112      -33.4232730319       72.3294237038  TIP3      6153            0.0000000000
     40712      6346  TIP3      OH2           -21.8119358814      -24.6711649063       61.3645178531  TIP3      6154            0.0000000000
     40713      6346  TIP3      H1            -22.0499237271      -25.4582776526       61.9010957741  TIP3      6154            0.0000000000
     40714      6346  TIP3      H2            -20.8588871682      -24.6285667978       61.5418697366  TIP3      6154            0.0000000000
     40715      6347  TIP3      OH2           -34.2667076907      -20.7090332440       70.2922068533  TIP3      6155            0.0000000000
     40716      6347  TIP3      H1            -34.1491496636      -21.6677411082       70.3491052201  TIP3      6155            0.0000000000
     40717      6347  TIP3      H2            -34.1824674488      -20.4768691270       71.2225819720  TIP3      6155            0.0000000000
     40718      6348  TIP3      OH2           -28.4589841286      -22.2341667000       57.6179754931  TIP3      6156            0.0000000000
     40719      6348  TIP3      H1            -28.3609081192      -22.9980736877       57.0268941212  TIP3      6156            0.0000000000
     40720      6348  TIP3      H2            -28.9018344158      -22.6645094393       58.3819813029  TIP3      6156            0.0000000000
     40721      6349  TIP3      OH2           -29.6917665942      -22.7069535552       60.0695524191  TIP3      6157            0.0000000000
     40722      6349  TIP3      H1            -29.4183154784      -23.2215217458       60.8391951072  TIP3      6157            0.0000000000
     40723      6349  TIP3      H2            -29.5965259985      -21.7809773295       60.3928553079  TIP3      6157            0.0000000000
     40724      6350  TIP3      OH2           -33.1924405407      -25.4652822259       60.5501209309  TIP3      6158            0.0000000000
     40725      6350  TIP3      H1            -33.9057498337      -25.0704259263       61.0956222792  TIP3      6158            0.0000000000
     40726      6350  TIP3      H2            -32.6737222636      -24.6828111644       60.2732167451  TIP3      6158            0.0000000000
     40727      6351  TIP3      OH2           -25.3026991630      -32.7844582782       70.8622940106  TIP3      6159            0.0000000000
     40728      6351  TIP3      H1            -24.5840415643      -32.7220754444       71.5037687370  TIP3      6159            0.0000000000
     40729      6351  TIP3      H2            -25.6761459095      -33.6658573820       71.0454868160  TIP3      6159            0.0000000000
     40730      6352  TIP3      OH2           -24.5392194007      -33.2097166289       61.9845707824  TIP3      6160            0.0000000000
     40731      6352  TIP3      H1            -24.3491836879      -32.7492060402       61.1385270484  TIP3      6160            0.0000000000
     40732      6352  TIP3      H2            -24.0028199125      -32.7027201878       62.6078736183  TIP3      6160            0.0000000000
     40733      6353  TIP3      OH2           -26.8826619929      -21.0442459426       60.7652293825  TIP3      6161            0.0000000000
     40734      6353  TIP3      H1            -27.7006745548      -20.5117446653       60.8375039817  TIP3      6161            0.0000000000
     40735      6353  TIP3      H2            -26.3438562165      -20.4936189700       60.1788452309  TIP3      6161            0.0000000000
     40736      6354  TIP3      OH2           -27.3291029058      -31.4790357925       62.7882274346  TIP3      6162            0.0000000000
     40737      6354  TIP3      H1            -26.5647560537      -30.8713039512       62.8212704014  TIP3      6162            0.0000000000
     40738      6354  TIP3      H2            -27.5907292553      -31.5641237762       63.7262324894  TIP3      6162            0.0000000000
     40739      6355  TIP3      OH2           -26.7784632923      -30.4194703182       71.9737651156  TIP3      6163            0.0000000000
     40740      6355  TIP3      H1            -26.7073470341      -29.8762643561       72.7819482963  TIP3      6163            0.0000000000
     40741      6355  TIP3      H2            -26.1230074220      -31.1224938097       72.0692976730  TIP3      6163            0.0000000000
     40742      6356  TIP3      OH2           -26.4686991948      -34.3874995592       63.7085622503  TIP3      6164            0.0000000000
     40743      6356  TIP3      H1            -26.8173089447      -33.7163719910       64.3197373060  TIP3      6164            0.0000000000
     40744      6356  TIP3      H2            -25.8121055022      -33.8384085694       63.2202869085  TIP3      6164            0.0000000000
     40745      6357  TIP3      OH2           -29.4846297172      -20.0110969625       60.7924721774  TIP3      6165            0.0000000000
     40746      6357  TIP3      H1            -29.3978446741      -19.1946649030       60.2399587751  TIP3      6165            0.0000000000
     40747      6357  TIP3      H2            -29.7596788956      -19.6410354198       61.6613921552  TIP3      6165            0.0000000000
     40748      6358  TIP3      OH2           -30.8374128683      -33.3004121765       60.3579283802  TIP3      6166            0.0000000000
     40749      6358  TIP3      H1            -30.9080481906      -32.4069275733       60.7487602061  TIP3      6166            0.0000000000
     40750      6358  TIP3      H2            -29.9155690756      -33.4968397671       60.6148602546  TIP3      6166            0.0000000000
     40751      6359  TIP3      OH2           -20.6218719853      -32.5569781890       72.8125400814  TIP3      6167            0.0000000000
     40752      6359  TIP3      H1            -21.5435295161      -32.2288314511       72.6834604112  TIP3      6167            0.0000000000
     40753      6359  TIP3      H2            -20.3151276425      -32.5859933436       71.8871603704  TIP3      6167            0.0000000000
     40754      6360  TIP3      OH2           -21.9957241747      -28.7673104145       66.8176463382  TIP3      6168            0.0000000000
     40755      6360  TIP3      H1            -22.8235532480      -29.2108245867       66.5474930422  TIP3      6168            0.0000000000
     40756      6360  TIP3      H2            -21.5157279042      -29.4527126463       67.3381676328  TIP3      6168            0.0000000000
     40757      6361  TIP3      OH2           -32.5940118984      -22.8727050778       59.4385663090  TIP3      6169            0.0000000000
     40758      6361  TIP3      H1            -31.9562705512      -22.1987038685       59.7191536845  TIP3      6169            0.0000000000
     40759      6361  TIP3      H2            -32.0782301904      -23.3204934160       58.7380089033  TIP3      6169            0.0000000000
     40760      6362  TIP3      OH2           -34.3143983758      -30.1776809650       58.5775690196  TIP3      6170            0.0000000000
     40761      6362  TIP3      H1            -34.2345650251      -29.2209436327       58.7500648463  TIP3      6170            0.0000000000
     40762      6362  TIP3      H2            -35.1848320775      -30.3509655745       58.2029878920  TIP3      6170            0.0000000000
     40763      6363  TIP3      OH2           -20.9277602539      -19.5078870269       68.4999337329  TIP3      6171            0.0000000000
     40764      6363  TIP3      H1            -21.0201597486      -18.8290929774       67.8011680633  TIP3      6171            0.0000000000
     40765      6363  TIP3      H2            -19.9655471918      -19.4572800375       68.6754129770  TIP3      6171            0.0000000000
     40766      6364  TIP3      OH2           -33.6492141325      -35.2436207229       67.3684426270  TIP3      6172            0.0000000000
     40767      6364  TIP3      H1            -33.6281706381      -35.3159996615       66.3857395932  TIP3      6172            0.0000000000
     40768      6364  TIP3      H2            -33.8644232389      -36.1574614703       67.5921510490  TIP3      6172            0.0000000000
     40769      6365  TIP3      OH2           -34.4726790356      -21.4513851592       63.4513343039  TIP3      6173            0.0000000000
     40770      6365  TIP3      H1            -35.3356034011      -21.0333870922       63.3923975107  TIP3      6173            0.0000000000
     40771      6365  TIP3      H2            -34.0092497651      -20.9924047851       62.7367628524  TIP3      6173            0.0000000000
     40772      6366  TIP3      OH2           -34.9648133391      -18.7624824302       74.7457852018  TIP3      6174            0.0000000000
     40773      6366  TIP3      H1            -34.5696887051      -19.0330589905       75.5826176476  TIP3      6174            0.0000000000
     40774      6366  TIP3      H2            -35.4937953992      -19.5680579893       74.5527257692  TIP3      6174            0.0000000000
     40775      6367  TIP3      OH2           -30.6335752041      -19.9337144643       76.3579603564  TIP3      6175            0.0000000000
     40776      6367  TIP3      H1            -29.8421857721      -20.3896592721       76.6699239350  TIP3      6175            0.0000000000
     40777      6367  TIP3      H2            -30.6514301758      -20.2119499414       75.4197675632  TIP3      6175            0.0000000000
     40778      6368  TIP3      OH2           -26.4659056129      -20.3832123312       57.7412338756  TIP3      6176            0.0000000000
     40779      6368  TIP3      H1            -27.1583480709      -21.0427404184       57.9690750499  TIP3      6176            0.0000000000
     40780      6368  TIP3      H2            -25.7475669134      -20.9817000180       57.4933822300  TIP3      6176            0.0000000000
     40781      6369  TIP3      OH2           -24.1067199805      -21.5153007755       75.0631302210  TIP3      6177            0.0000000000
     40782      6369  TIP3      H1            -24.4224720822      -22.3941036253       75.3596828267  TIP3      6177            0.0000000000
     40783      6369  TIP3      H2            -23.3240638827      -21.3900548396       75.6325699274  TIP3      6177            0.0000000000
     40784      6370  TIP3      OH2           -21.9085741313      -20.6397835213       57.9269521381  TIP3      6178            0.0000000000
     40785      6370  TIP3      H1            -21.6108633648      -21.4144153213       58.4314382955  TIP3      6178            0.0000000000
     40786      6370  TIP3      H2            -21.1445266790      -20.4140659072       57.3766411153  TIP3      6178            0.0000000000
     40787      6371  TIP3      OH2           -35.4162923615      -25.0649946124       75.7042566253  TIP3      6179            0.0000000000
     40788      6371  TIP3      H1            -35.2196066352      -25.9494367565       75.3573420634  TIP3      6179            0.0000000000
     40789      6371  TIP3      H2            -36.1138817334      -24.7494146593       75.1138410157  TIP3      6179            0.0000000000
     40790      6372  TIP3      OH2           -31.0198937917      -24.6958955770       57.7425423235  TIP3      6180            0.0000000000
     40791      6372  TIP3      H1            -30.8850619873      -25.4582984771       58.3253333982  TIP3      6180            0.0000000000
     40792      6372  TIP3      H2            -30.2699275086      -24.8165978649       57.1277926330  TIP3      6180            0.0000000000
     40793      6373  TIP3      OH2           -28.6770177306      -25.0609069234       75.1159136903  TIP3      6181            0.0000000000
     40794      6373  TIP3      H1            -28.9666310106      -24.7256951212       74.2465599683  TIP3      6181            0.0000000000
     40795      6373  TIP3      H2            -28.5628377428      -26.0293817135       74.9938203030  TIP3      6181            0.0000000000
     40796      6374  TIP3      OH2           -25.5897997587      -23.5894255321       57.5238860123  TIP3      6182            0.0000000000
     40797      6374  TIP3      H1            -25.8602854456      -23.5083244530       58.4521047746  TIP3      6182            0.0000000000
     40798      6374  TIP3      H2            -25.7793489287      -24.5470220335       57.3793168586  TIP3      6182            0.0000000000
     40799      6375  TIP3      OH2           -22.9583673284      -25.1957906484       72.5041299435  TIP3      6183            0.0000000000
     40800      6375  TIP3      H1            -22.1699730740      -24.6136668022       72.4434256102  TIP3      6183            0.0000000000
     40801      6375  TIP3      H2            -23.6553433753      -24.5247890189       72.5443884476  TIP3      6183            0.0000000000
     40802      6376  TIP3      OH2           -34.6010491142      -27.8485865589       75.1813070144  TIP3      6184            0.0000000000
     40803      6376  TIP3      H1            -34.2875263745      -28.7643734724       75.1532460840  TIP3      6184            0.0000000000
     40804      6376  TIP3      H2            -34.7652951717      -27.7915719890       76.1502517414  TIP3      6184            0.0000000000
     40805      6377  TIP3      OH2           -29.8152111840      -26.6800691543       60.1808392746  TIP3      6185            0.0000000000
     40806      6377  TIP3      H1            -30.3214406426      -27.2196664535       60.8044836243  TIP3      6185            0.0000000000
     40807      6377  TIP3      H2            -29.5191952079      -27.3511895833       59.5225392810  TIP3      6185            0.0000000000
     40808      6378  TIP3      OH2           -30.6027003019      -28.8587481158       72.4633056131  TIP3      6186            0.0000000000
     40809      6378  TIP3      H1            -31.0794709544      -28.0563110970       72.6360224305  TIP3      6186            0.0000000000
     40810      6378  TIP3      H2            -30.1225887901      -28.5589920691       71.6595979059  TIP3      6186            0.0000000000
     40811      6379  TIP3      OH2           -28.7415634458      -28.4556277864       58.3750721617  TIP3      6187            0.0000000000
     40812      6379  TIP3      H1            -28.8937392401      -28.5461143544       57.4132186598  TIP3      6187            0.0000000000
     40813      6379  TIP3      H2            -27.7653542225      -28.4055148375       58.4396139335  TIP3      6187            0.0000000000
     40814      6380  TIP3      OH2           -25.4794343401      -26.2921276356       75.8420197840  TIP3      6188            0.0000000000
     40815      6380  TIP3      H1            -24.5260892895      -26.3375937887       75.6666744164  TIP3      6188            0.0000000000
     40816      6380  TIP3      H2            -25.6506867261      -27.0732931319       76.3899808956  TIP3      6188            0.0000000000
     40817      6381  TIP3      OH2           -19.4141394157      -26.1373723527       57.7845806213  TIP3      6189            0.0000000000
     40818      6381  TIP3      H1            -19.6031150145      -26.5185108566       56.9133533394  TIP3      6189            0.0000000000
     40819      6381  TIP3      H2            -19.3220775252      -25.1752111414       57.5973403782  TIP3      6189            0.0000000000
     40820      6382  TIP3      OH2           -30.1668991712      -31.4847869872       73.5029936370  TIP3      6190            0.0000000000
     40821      6382  TIP3      H1            -30.0046084873      -32.2254988180       72.8869141229  TIP3      6190            0.0000000000
     40822      6382  TIP3      H2            -30.1815386580      -30.6982396315       72.9266883568  TIP3      6190            0.0000000000
     40823      6383  TIP3      OH2           -29.7423338450      -33.0920645867       71.0434196270  TIP3      6191            0.0000000000
     40824      6383  TIP3      H1            -29.2303087188      -32.6159931293       70.3484853210  TIP3      6191            0.0000000000
     40825      6383  TIP3      H2            -30.6369997110      -33.1991879409       70.6381375794  TIP3      6191            0.0000000000
     40826      6384  TIP3      OH2           -28.2248074389      -27.6207005832       71.3178266765  TIP3      6192            0.0000000000
     40827      6384  TIP3      H1            -27.4596814921      -27.7964104003       70.7570582299  TIP3      6192            0.0000000000
     40828      6384  TIP3      H2            -28.5552539502      -26.7785645713       70.9654086362  TIP3      6192            0.0000000000
     40829      6385  TIP3      OH2           -23.8088782546      -29.8844264106       76.2485380275  TIP3      6193            0.0000000000
     40830      6385  TIP3      H1            -23.5564116556      -30.8189017788       76.2067978128  TIP3      6193            0.0000000000
     40831      6385  TIP3      H2            -22.9332271575      -29.4594838083       76.3243392070  TIP3      6193            0.0000000000
     40832      6386  TIP3      OH2           -22.4628493857      -27.0650536487       74.4528982211  TIP3      6194            0.0000000000
     40833      6386  TIP3      H1            -22.7164918817      -26.3569207816       73.8209000686  TIP3      6194            0.0000000000
     40834      6386  TIP3      H2            -21.5096631301      -27.1181331052       74.2455233612  TIP3      6194            0.0000000000
     40835      6387  TIP3      OH2           -31.7761865220      -30.1685486363       75.3567235891  TIP3      6195            0.0000000000
     40836      6387  TIP3      H1            -32.4709940166      -30.8735754281       75.2948784440  TIP3      6195            0.0000000000
     40837      6387  TIP3      H2            -31.0580213434      -30.6165440478       74.8422466782  TIP3      6195            0.0000000000
     40838      6388  TIP3      OH2           -29.0951189076      -35.4783485882       71.7428926339  TIP3      6196            0.0000000000
     40839      6388  TIP3      H1            -29.1713825477      -34.5432388896       71.4352016382  TIP3      6196            0.0000000000
     40840      6388  TIP3      H2            -29.6811854110      -35.9014134011       71.0955668571  TIP3      6196            0.0000000000
     40841      6389  TIP3      OH2           -27.6981540493      -31.3109640731       75.0713898744  TIP3      6197            0.0000000000
     40842      6389  TIP3      H1            -27.9780668486      -31.6180968422       75.9543515846  TIP3      6197            0.0000000000
     40843      6389  TIP3      H2            -28.4525466449      -31.5790471087       74.5233135932  TIP3      6197            0.0000000000
     40844      6390  TIP3      OH2           -24.9634029807      -32.1988663910       74.1720069340  TIP3      6198            0.0000000000
     40845      6390  TIP3      H1            -25.9226941958      -32.1715281338       74.3113924502  TIP3      6198            0.0000000000
     40846      6390  TIP3      H2            -24.6646533221      -32.8201824660       74.8707167898  TIP3      6198            0.0000000000
     40847      6391  TIP3      OH2           -23.4219997316      -33.4527772427       76.1100661166  TIP3      6199            0.0000000000
     40848      6391  TIP3      H1            -23.4444823641      -34.4480783122       76.0949848734  TIP3      6199            0.0000000000
     40849      6391  TIP3      H2            -23.6478178624      -33.2598836168       77.0422431250  TIP3      6199            0.0000000000
     40850      6392  TIP3      OH2           -33.4223157995      -32.3095162842       75.2422252561  TIP3      6200            0.0000000000
     40851      6392  TIP3      H1            -33.3250511031      -33.0507069107       74.6089892870  TIP3      6200            0.0000000000
     40852      6392  TIP3      H2            -33.6583668324      -32.8008643051       76.0568278930  TIP3      6200            0.0000000000
     40853      6393  TIP3      OH2           -28.7541386381       36.7209322497       74.1933203979  TIP3      6201            0.0000000000
     40854      6393  TIP3      H1            -28.0716817568       36.0493864549       74.2447720173  TIP3      6201            0.0000000000
     40855      6393  TIP3      H2            -28.8549503812       36.9273389432       73.2413884066  TIP3      6201            0.0000000000
     40856      6394  TIP3      OH2           -28.3599583621      -34.6103656629       76.2262643154  TIP3      6202            0.0000000000
     40857      6394  TIP3      H1            -28.5306172065      -35.1799751292       75.4415296365  TIP3      6202            0.0000000000
     40858      6394  TIP3      H2            -28.9730505203      -33.8733939544       76.1459932230  TIP3      6202            0.0000000000
     40859      6395  TIP3      OH2           -28.9110434100      -17.7554372484       59.4538218809  TIP3      6203            0.0000000000
     40860      6395  TIP3      H1            -27.9442555975      -17.6713328118       59.5197188880  TIP3      6203            0.0000000000
     40861      6395  TIP3      H2            -29.0572428216      -17.1556510655       58.7134766578  TIP3      6203            0.0000000000
     40862      6396  TIP3      OH2           -35.3126897439      -23.2310280026       58.9701067968  TIP3      6204            0.0000000000
     40863      6396  TIP3      H1            -34.3583189739      -23.0527279478       59.1033141104  TIP3      6204            0.0000000000
     40864      6396  TIP3      H2            -35.2691152317      -23.8126564251       58.1903440252  TIP3      6204            0.0000000000
     40865      6397  TIP3      OH2            36.8567975353      -17.6106641778       63.7592152830  TIP3      6205            0.0000000000
     40866      6397  TIP3      H1             35.9725868042      -17.8414637682       63.3952198870  TIP3      6205            0.0000000000
     40867      6397  TIP3      H2             36.9474596864      -18.2754152173       64.4819997996  TIP3      6205            0.0000000000
     40868      6398  TIP3      OH2           -35.7236179450      -19.6234436943       65.7154174813  TIP3      6206            0.0000000000
     40869      6398  TIP3      H1            -36.0818483741      -20.5105767959       65.9463657280  TIP3      6206            0.0000000000
     40870      6398  TIP3      H2            -35.4794683688      -19.3424529974       66.6165746359  TIP3      6206            0.0000000000
     40871      6399  TIP3      OH2           -18.1797289295      -18.9043202123       68.7020490027  TIP3      6207            0.0000000000
     40872      6399  TIP3      H1            -18.1839682597      -18.6910777862       69.6517380372  TIP3      6207            0.0000000000
     40873      6399  TIP3      H2            -17.5259990096      -18.2767795473       68.3694669467  TIP3      6207            0.0000000000
     40874      6400  TIP3      OH2           -18.6079786645      -19.2752546149       71.6301291891  TIP3      6208            0.0000000000
     40875      6400  TIP3      H1            -19.1262553141      -20.0256874071       71.2646719903  TIP3      6208            0.0000000000
     40876      6400  TIP3      H2            -18.1749821779      -19.7143107910       72.3775047442  TIP3      6208            0.0000000000
     40877      6401  TIP3      OH2           -20.1877815621      -23.5588032959       76.3163920535  TIP3      6209            0.0000000000
     40878      6401  TIP3      H1            -21.0949068253      -23.5750315881       76.6828582538  TIP3      6209            0.0000000000
     40879      6401  TIP3      H2            -19.8262362954      -22.7588749998       76.7496480750  TIP3      6209            0.0000000000
     40880      6402  TIP3      OH2           -18.8824578600      -25.2189028331       61.7387945202  TIP3      6210            0.0000000000
     40881      6402  TIP3      H1            -18.0091703577      -24.8221044031       61.9158282754  TIP3      6210            0.0000000000
     40882      6402  TIP3      H2            -18.8945737711      -25.9385541106       62.4071208958  TIP3      6210            0.0000000000
     40883      6403  TIP3      OH2           -18.5171401225      -27.1438713532       63.6309719954  TIP3      6211            0.0000000000
     40884      6403  TIP3      H1            -19.2706327477      -27.6412557523       64.0209365791  TIP3      6211            0.0000000000
     40885      6403  TIP3      H2            -17.9208711846      -27.0116469240       64.3944342929  TIP3      6211            0.0000000000
     40886      6404  TIP3      OH2           -18.7456719666      -24.4524367656       68.6253844081  TIP3      6212            0.0000000000
     40887      6404  TIP3      H1            -17.9526444121      -24.8414579649       68.2190062084  TIP3      6212            0.0000000000
     40888      6404  TIP3      H2            -18.6235704443      -23.5030831087       68.4168038775  TIP3      6212            0.0000000000
     40889      6405  TIP3      OH2           -20.1701722259      -21.5460753949       70.8856173312  TIP3      6213            0.0000000000
     40890      6405  TIP3      H1            -20.8692518157      -21.1997871155       71.4649125881  TIP3      6213            0.0000000000
     40891      6405  TIP3      H2            -20.7268242412      -21.9443266449       70.1799374595  TIP3      6213            0.0000000000
     40892      6406  TIP3      OH2           -18.2190468316      -27.3200353527       60.0179377044  TIP3      6214            0.0000000000
     40893      6406  TIP3      H1            -18.7863658368      -26.9786399700       59.2948033329  TIP3      6214            0.0000000000
     40894      6406  TIP3      H2            -18.3192879330      -26.6065818231       60.6761633070  TIP3      6214            0.0000000000
     40895      6407  TIP3      OH2           -19.8381840928      -30.0852270457       58.5265975442  TIP3      6215            0.0000000000
     40896      6407  TIP3      H1            -19.7686128481      -29.4222742024       57.8333963502  TIP3      6215            0.0000000000
     40897      6407  TIP3      H2            -20.0307900879      -30.9096578493       58.0373223648  TIP3      6215            0.0000000000
     40898      6408  TIP3      OH2           -20.6987347990      -28.6692961020       64.1989028440  TIP3      6216            0.0000000000
     40899      6408  TIP3      H1            -20.8464303948      -29.6238983213       64.1551658020  TIP3      6216            0.0000000000
     40900      6408  TIP3      H2            -21.0293809638      -28.4565251965       65.0918617945  TIP3      6216            0.0000000000
     40901      6409  TIP3      OH2           -35.6790779737      -26.5998930546       68.1750237827  TIP3      6217            0.0000000000
     40902      6409  TIP3      H1            -35.4760789646      -26.6388651645       67.2166016871  TIP3      6217            0.0000000000
     40903      6409  TIP3      H2            -34.7984245014      -26.7079001998       68.5949744185  TIP3      6217            0.0000000000
     40904      6410  TIP3      OH2           -19.8263863943      -26.7061219491       73.9069848514  TIP3      6218            0.0000000000
     40905      6410  TIP3      H1            -19.2219120654      -27.4762644929       74.0344921612  TIP3      6218            0.0000000000
     40906      6410  TIP3      H2            -19.2257862308      -25.9350134875       73.8750530938  TIP3      6218            0.0000000000
     40907      6411  TIP3      OH2           -18.3281313790      -28.7986582238       74.4770750005  TIP3      6219            0.0000000000
     40908      6411  TIP3      H1            -19.2138033963      -29.2175402902       74.3880872368  TIP3      6219            0.0000000000
     40909      6411  TIP3      H2            -17.7755694577      -29.6011921703       74.5074555233  TIP3      6219            0.0000000000
     40910      6412  TIP3      OH2           -20.5987856977      -32.6093619363       57.6848799595  TIP3      6220            0.0000000000
     40911      6412  TIP3      H1            -20.0073832692      -33.0539986816       58.3231775576  TIP3      6220            0.0000000000
     40912      6412  TIP3      H2            -21.4580291420      -33.0467764325       57.8237484723  TIP3      6220            0.0000000000
     40913      6413  TIP3      OH2           -21.0554972505      -31.0748349556       62.6113257005  TIP3      6221            0.0000000000
     40914      6413  TIP3      H1            -20.7389246879      -31.9913527041       62.7687542306  TIP3      6221            0.0000000000
     40915      6413  TIP3      H2            -20.2315657793      -30.6727301524       62.3063446859  TIP3      6221            0.0000000000
     40916      6414  TIP3      OH2           -20.3951114003      -30.5202934080       68.0924521011  TIP3      6222            0.0000000000
     40917      6414  TIP3      H1            -19.4311434782      -30.3081580574       68.0858233526  TIP3      6222            0.0000000000
     40918      6414  TIP3      H2            -20.5799423911      -30.4062784355       69.0379971324  TIP3      6222            0.0000000000
     40919      6415  TIP3      OH2           -20.3349108879      -29.7952772202       70.8589099182  TIP3      6223            0.0000000000
     40920      6415  TIP3      H1            -21.2093942101      -29.5238743154       71.2051973009  TIP3      6223            0.0000000000
     40921      6415  TIP3      H2            -19.8924465966      -28.9385710850       70.6533579467  TIP3      6223            0.0000000000
     40922      6416  TIP3      OH2           -35.7866731668      -31.3981405175       74.4164454391  TIP3      6224            0.0000000000
     40923      6416  TIP3      H1            -34.9136013200      -31.6616947796       74.7257778554  TIP3      6224            0.0000000000
     40924      6416  TIP3      H2            -36.3873298362      -32.0931776751       74.7893208299  TIP3      6224            0.0000000000
     40925      6417  TIP3      OH2           -17.8871522033      -35.7319477945       76.2320806559  TIP3      6225            0.0000000000
     40926      6417  TIP3      H1            -17.7704839672      -36.4122369596       75.5526813075  TIP3      6225            0.0000000000
     40927      6417  TIP3      H2            -17.9967056789      -34.9159020374       75.7055555701  TIP3      6225            0.0000000000
     40928      6418  TIP3      OH2           -20.3663679195      -33.7693132953       62.7067269980  TIP3      6226            0.0000000000
     40929      6418  TIP3      H1            -20.1643065300      -34.2427364548       63.5438277119  TIP3      6226            0.0000000000
     40930      6418  TIP3      H2            -20.9453520209      -34.4177695848       62.2376875627  TIP3      6226            0.0000000000
     40931      6419  TIP3      OH2           -34.8630140410      -32.9762017502       67.2003951147  TIP3      6227            0.0000000000
     40932      6419  TIP3      H1            -34.4367962773      -33.8053668206       67.5220899252  TIP3      6227            0.0000000000
     40933      6419  TIP3      H2            -34.3313967647      -32.3103975036       67.6675599511  TIP3      6227            0.0000000000
     40934      6420  TIP3      OH2           -36.0188637156      -29.2406175748       68.6616652508  TIP3      6228            0.0000000000
     40935      6420  TIP3      H1            -35.9776252212      -29.6736695511       67.7824335004  TIP3      6228            0.0000000000
     40936      6420  TIP3      H2            -35.9401230832      -28.3263620772       68.3766316969  TIP3      6228            0.0000000000
     40937      6421  TIP3      OH2           -18.5297165294      -33.7085280339       74.5359463185  TIP3      6229            0.0000000000
     40938      6421  TIP3      H1            -19.4619025734      -33.4137919126       74.5096819941  TIP3      6229            0.0000000000
     40939      6421  TIP3      H2            -18.5051600712      -34.2456593963       73.7352036862  TIP3      6229            0.0000000000
     40940      6422  TIP3      OH2           -18.5177197701      -33.7584427500       59.2641938589  TIP3      6230            0.0000000000
     40941      6422  TIP3      H1            -18.1401721278      -34.4855970294       58.7156576975  TIP3      6230            0.0000000000
     40942      6422  TIP3      H2            -17.8057809687      -33.1102956572       59.2912332788  TIP3      6230            0.0000000000
     40943      6423  TIP3      OH2           -35.7691919976      -33.8080371217       61.9512744200  TIP3      6231            0.0000000000
     40944      6423  TIP3      H1            -36.7031680985      -33.5836052356       62.0631561812  TIP3      6231            0.0000000000
     40945      6423  TIP3      H2            -35.5353970111      -33.0699793710       61.3501705426  TIP3      6231            0.0000000000
     40946      6424  TIP3      OH2           -21.4907023753      -18.7825515470       64.3239742473  TIP3      6232            0.0000000000
     40947      6424  TIP3      H1            -20.8033124611      -19.0865528817       63.7025158148  TIP3      6232            0.0000000000
     40948      6424  TIP3      H2            -20.9734662910      -18.2810922929       64.9723455975  TIP3      6232            0.0000000000
     40949      6425  TIP3      OH2            36.9572705029      -35.0393317671       70.9337294151  TIP3      6233            0.0000000000
     40950      6425  TIP3      H1             36.1564882790      -35.3111089591       71.3768226166  TIP3      6233            0.0000000000
     40951      6425  TIP3      H2             36.5183791819      -34.6108325711       70.1766019819  TIP3      6233            0.0000000000
     40952      6426  TIP3      OH2           -34.0764023548      -21.8671040586       74.8317181473  TIP3      6234            0.0000000000
     40953      6426  TIP3      H1            -34.9301554305      -21.6780540699       74.4252824860  TIP3      6234            0.0000000000
     40954      6426  TIP3      H2            -34.3222848113      -21.9451009704       75.7566541072  TIP3      6234            0.0000000000
     40955      6427  TIP3      OH2           -31.1069945756      -20.8472954452       71.1424862839  TIP3      6235            0.0000000000
     40956      6427  TIP3      H1            -31.5059619833      -20.0158194105       70.8340531637  TIP3      6235            0.0000000000
     40957      6427  TIP3      H2            -30.2010961316      -20.7638416653       70.7913466974  TIP3      6235            0.0000000000
     40958      6428  TIP3      OH2           -26.8254568730      -19.4616586817       74.0109734449  TIP3      6236            0.0000000000
     40959      6428  TIP3      H1            -26.6930006106      -19.8015694498       74.9269677459  TIP3      6236            0.0000000000
     40960      6428  TIP3      H2            -25.9226846118      -19.1517784332       73.7838551175  TIP3      6236            0.0000000000
     40961      6429  TIP3      OH2           -24.5287866720      -18.1868326519       73.3175152007  TIP3      6237            0.0000000000
     40962      6429  TIP3      H1            -23.7983577548      -18.7727415100       73.0818951712  TIP3      6237            0.0000000000
     40963      6429  TIP3      H2            -24.1557146399      -17.7474432865       74.1116511595  TIP3      6237            0.0000000000
     40964      6430  TIP3      OH2           -19.4901424967      -35.5191859973       72.2882566842  TIP3      6238            0.0000000000
     40965      6430  TIP3      H1            -20.3769422150      -35.2753533168       71.9854126159  TIP3      6238            0.0000000000
     40966      6430  TIP3      H2            -19.3694643983      -36.4169128602       71.9052600964  TIP3      6238            0.0000000000
     40967      6431  TIP3      OH2           -33.6842907989      -17.6296869048       71.1230939091  TIP3      6239            0.0000000000
     40968      6431  TIP3      H1            -34.4344429684      -17.1433944747       70.7268064424  TIP3      6239            0.0000000000
     40969      6431  TIP3      H2            -34.0357755897      -17.8288562118       72.0030799842  TIP3      6239            0.0000000000
     40970      6432  TIP3      OH2           -31.2353840831      -18.0530185123       70.1600757757  TIP3      6240            0.0000000000
     40971      6432  TIP3      H1            -32.1317323712      -17.9224845773       70.5549234772  TIP3      6240            0.0000000000
     40972      6432  TIP3      H2            -31.2907030798      -17.4573755489       69.3928325975  TIP3      6240            0.0000000000
     40973      6433  TIP3      OH2           -26.5398594984      -18.1447837456       69.3407265618  TIP3      6241            0.0000000000
     40974      6433  TIP3      H1            -27.0031440068      -17.5899060650       68.6957774897  TIP3      6241            0.0000000000
     40975      6433  TIP3      H2            -26.4076613744      -17.5135622973       70.0817692000  TIP3      6241            0.0000000000
     40976      6434  TIP3      OH2           -24.2541882856      -19.3405452923       70.3747350229  TIP3      6242            0.0000000000
     40977      6434  TIP3      H1            -25.1066295304      -19.0619815632       70.0024606444  TIP3      6242            0.0000000000
     40978      6434  TIP3      H2            -23.7673430028      -18.5032793886       70.2803700305  TIP3      6242            0.0000000000
     40979      6435  TIP3      OH2           -21.6756262373      -17.7720941360       70.5928319091  TIP3      6243            0.0000000000
     40980      6435  TIP3      H1            -21.7254586991      -16.8118699638       70.3666553156  TIP3      6243            0.0000000000
     40981      6435  TIP3      H2            -21.4579157462      -18.1417751432       69.7150852329  TIP3      6243            0.0000000000
     40982      6436  TIP3      OH2           -34.3097332926      -18.9833838557       68.0290715453  TIP3      6244            0.0000000000
     40983      6436  TIP3      H1            -34.3122650200      -19.4271037476       68.9001762461  TIP3      6244            0.0000000000
     40984      6436  TIP3      H2            -33.4933778911      -19.3618534534       67.6438226301  TIP3      6244            0.0000000000
     40985      6437  TIP3      OH2           -32.2102525787      -20.2713877049       66.7041850288  TIP3      6245            0.0000000000
     40986      6437  TIP3      H1            -32.3647852393      -21.2090116846       66.9362615271  TIP3      6245            0.0000000000
     40987      6437  TIP3      H2            -31.3429321136      -20.1201152005       67.1410238168  TIP3      6245            0.0000000000
     40988      6438  TIP3      OH2           -29.5937340219      -19.7995673710       67.5784874797  TIP3      6246            0.0000000000
     40989      6438  TIP3      H1            -29.4217294548      -20.7212237364       67.3139760924  TIP3      6246            0.0000000000
     40990      6438  TIP3      H2            -29.5261795728      -19.8483431037       68.5431287431  TIP3      6246            0.0000000000
     40991      6439  TIP3      OH2           -26.2444604825      -34.0772127470       66.6927780288  TIP3      6247            0.0000000000
     40992      6439  TIP3      H1            -26.8278179427      -34.7978777049       66.9767246656  TIP3      6247            0.0000000000
     40993      6439  TIP3      H2            -25.5609066492      -34.5714753716       66.2005235399  TIP3      6247            0.0000000000
     40994      6440  TIP3      OH2           -20.9822830573      -36.0659061927       66.8075886255  TIP3      6248            0.0000000000
     40995      6440  TIP3      H1            -20.3621090442      -35.5141697790       66.2844727807  TIP3      6248            0.0000000000
     40996      6440  TIP3      H2            -21.8482120853      -35.7257254953       66.5655215117  TIP3      6248            0.0000000000
     40997      6441  TIP3      OH2           -19.2914378867      -34.8138787628       65.0548933993  TIP3      6249            0.0000000000
     40998      6441  TIP3      H1            -18.6611086457      -35.4095004254       64.6375092233  TIP3      6249            0.0000000000
     40999      6441  TIP3      H2            -18.7878820492      -33.9785450565       65.1382946020  TIP3      6249            0.0000000000
     41000      6442  TIP3      OH2           -33.7712506661      -35.4826485802       64.5773588277  TIP3      6250            0.0000000000
     41001      6442  TIP3      H1            -34.5156915335      -35.7392320621       64.0223972787  TIP3      6250            0.0000000000
     41002      6442  TIP3      H2            -33.2920326901      -36.3287098273       64.6287285520  TIP3      6250            0.0000000000
     41003      6443  TIP3      OH2           -34.9524653491      -35.7869836180       60.2346418980  TIP3      6251            0.0000000000
     41004      6443  TIP3      H1            -34.4803764770      -35.1149240544       59.7297740032  TIP3      6251            0.0000000000
     41005      6443  TIP3      H2            -35.5460515469      -35.2199302133       60.7522193086  TIP3      6251            0.0000000000
     41006      6444  TIP3      OH2           -29.2186181063      -35.6595713951       64.3344018069  TIP3      6252            0.0000000000
     41007      6444  TIP3      H1            -28.3663289338      -35.1969573693       64.2972017619  TIP3      6252            0.0000000000
     41008      6444  TIP3      H2            -29.3195329952      -35.8155964038       65.2797108023  TIP3      6252            0.0000000000
     41009      6445  TIP3      OH2           -23.8318165994      -35.2013369520       66.1269797449  TIP3      6253            0.0000000000
     41010      6445  TIP3      H1            -23.6903534007      -35.2493361371       65.1774457754  TIP3      6253            0.0000000000
     41011      6445  TIP3      H2            -23.9213566319      -36.1776347199       66.2640001002  TIP3      6253            0.0000000000
     41012      6446  TIP3      OH2           -22.2924768134      -35.4992376084       61.6878781099  TIP3      6254            0.0000000000
     41013      6446  TIP3      H1            -23.0479224862      -34.9356800554       61.4647463717  TIP3      6254            0.0000000000
     41014      6446  TIP3      H2            -22.6980090341      -36.3626637410       61.8377476942  TIP3      6254            0.0000000000
     41015      6447  TIP3      OH2           -35.0914788268      -19.7859545411       61.3431087109  TIP3      6255            0.0000000000
     41016      6447  TIP3      H1            -35.6527130527      -19.7849857885       60.5363784607  TIP3      6255            0.0000000000
     41017      6447  TIP3      H2            -35.0515507493      -18.8242092822       61.4413111686  TIP3      6255            0.0000000000
     41018      6448  TIP3      OH2           -33.1773357947      -33.8537227040       58.8379699698  TIP3      6256            0.0000000000
     41019      6448  TIP3      H1            -32.6425230237      -34.4311307361       58.2560214124  TIP3      6256            0.0000000000
     41020      6448  TIP3      H2            -32.4848332091      -33.5080157912       59.4254823733  TIP3      6256            0.0000000000
     41021      6449  TIP3      OH2           -28.2070304858      -33.5805608875       61.2449753338  TIP3      6257            0.0000000000
     41022      6449  TIP3      H1            -27.8486668163      -34.1462921174       61.9510677655  TIP3      6257            0.0000000000
     41023      6449  TIP3      H2            -28.0509715147      -32.7066937578       61.6720021689  TIP3      6257            0.0000000000
     41024      6450  TIP3      OH2           -26.1963463636      -18.5032314032       59.6433755497  TIP3      6258            0.0000000000
     41025      6450  TIP3      H1            -25.2786260421      -18.2776952578       59.4212923624  TIP3      6258            0.0000000000
     41026      6450  TIP3      H2            -26.4167978745      -19.0233328165       58.8425671537  TIP3      6258            0.0000000000
     41027      6451  TIP3      OH2           -19.5018955754      -19.0062310459       62.3643274220  TIP3      6259            0.0000000000
     41028      6451  TIP3      H1            -19.6881317871      -19.7869960008       61.7908976680  TIP3      6259            0.0000000000
     41029      6451  TIP3      H2            -19.5677613370      -18.2687557858       61.7228745734  TIP3      6259            0.0000000000
     41030      6452  TIP3      OH2           -33.9765820177      -34.9769382436       73.9078794429  TIP3      6260            0.0000000000
     41031      6452  TIP3      H1            -34.3017540092      -35.7308428707       74.4129024764  TIP3      6260            0.0000000000
     41032      6452  TIP3      H2            -33.0630808286      -34.9732595514       74.2881560726  TIP3      6260            0.0000000000
     41033      6453  TIP3      OH2           -32.1287674420      -35.3973882276       75.5313257810  TIP3      6261            0.0000000000
     41034      6453  TIP3      H1            -31.1892622591      -35.5971904643       75.3915651548  TIP3      6261            0.0000000000
     41035      6453  TIP3      H2            -32.2874871273      -36.2368561413       76.0090086955  TIP3      6261            0.0000000000
     41036      6454  TIP3      OH2           -33.1714169420      -18.7877125117       58.2240977628  TIP3      6262            0.0000000000
     41037      6454  TIP3      H1            -33.5727200592      -18.6012137521       59.0892513844  TIP3      6262            0.0000000000
     41038      6454  TIP3      H2            -32.4604054412      -19.4046074907       58.4336941013  TIP3      6262            0.0000000000
     41039      6455  TIP3      OH2           -23.5117273413       37.1161442242       75.7564336084  TIP3      6263            0.0000000000
     41040      6455  TIP3      H1            -23.4726906880       36.4855141011       76.5102414123  TIP3      6263            0.0000000000
     41041      6455  TIP3      H2            -22.6675482725       36.8360215503       75.3731800472  TIP3      6263            0.0000000000
     41042      6456  TIP3      OH2           -20.2555977637      -20.2570337381       74.4615029287  TIP3      6264            0.0000000000
     41043      6456  TIP3      H1            -21.0488965630      -20.3941366626       73.8969022912  TIP3      6264            0.0000000000
     41044      6456  TIP3      H2            -20.3698816422      -19.3077373341       74.6643309506  TIP3      6264            0.0000000000
     41045      6457  TIP3      OH2            -5.8083630820      -26.3812416604       64.4047269616  TIP3      6265            0.0000000000
     41046      6457  TIP3      H1             -5.8262329539      -25.3996194565       64.3882781621  TIP3      6265            0.0000000000
     41047      6457  TIP3      H2             -6.5414986323      -26.6122546029       63.8121336935  TIP3      6265            0.0000000000
     41048      6458  TIP3      OH2            -6.9556650796      -27.1242697477       67.9177824100  TIP3      6266            0.0000000000
     41049      6458  TIP3      H1             -6.9674690340      -27.7724587353       68.6348764643  TIP3      6266            0.0000000000
     41050      6458  TIP3      H2             -7.3019438218      -27.6326280868       67.1650322382  TIP3      6266            0.0000000000
     41051      6459  TIP3      OH2           -14.6130051967      -27.4362531358       69.4819976554  TIP3      6267            0.0000000000
     41052      6459  TIP3      H1            -14.5192680664      -28.1447466453       70.1560202477  TIP3      6267            0.0000000000
     41053      6459  TIP3      H2            -13.8394766918      -26.8948024383       69.6872556652  TIP3      6267            0.0000000000
     41054      6460  TIP3      OH2            -3.2697956381      -24.1736138737       66.2012553571  TIP3      6268            0.0000000000
     41055      6460  TIP3      H1             -3.6824690532      -24.8909457230       66.6925016785  TIP3      6268            0.0000000000
     41056      6460  TIP3      H2             -3.2441962425      -23.4660355916       66.8720396804  TIP3      6268            0.0000000000
     41057      6461  TIP3      OH2           -13.6909875346      -23.0302890961       68.0924223163  TIP3      6269            0.0000000000
     41058      6461  TIP3      H1            -13.9816542721      -23.8529611370       67.6354625363  TIP3      6269            0.0000000000
     41059      6461  TIP3      H2            -12.7237584054      -23.1730823698       67.9885774786  TIP3      6269            0.0000000000
     41060      6462  TIP3      OH2           -17.0382643535      -29.4451470382       63.4633215738  TIP3      6270            0.0000000000
     41061      6462  TIP3      H1            -17.4760265006      -28.5779391471       63.3975750004  TIP3      6270            0.0000000000
     41062      6462  TIP3      H2            -17.5990322554      -29.9840482442       62.8905901251  TIP3      6270            0.0000000000
     41063      6463  TIP3      OH2           -16.3216227886      -27.1986232393       65.6108646268  TIP3      6271            0.0000000000
     41064      6463  TIP3      H1            -16.0551298139      -28.0289041105       66.0542769602  TIP3      6271            0.0000000000
     41065      6463  TIP3      H2            -15.6319047582      -27.1075460230       64.9376700211  TIP3      6271            0.0000000000
     41066      6464  TIP3      OH2            -6.1381565772      -19.0072909647       66.4323675900  TIP3      6272            0.0000000000
     41067      6464  TIP3      H1             -5.4986317779      -19.7063267591       66.1510192743  TIP3      6272            0.0000000000
     41068      6464  TIP3      H2             -6.3626532594      -19.3502368864       67.3024575719  TIP3      6272            0.0000000000
     41069      6465  TIP3      OH2            -8.5782828090      -24.7245046691       68.3900262519  TIP3      6273            0.0000000000
     41070      6465  TIP3      H1             -8.2424075094      -25.3503785365       67.7307303680  TIP3      6273            0.0000000000
     41071      6465  TIP3      H2             -7.7680780772      -24.5656013953       68.9048402683  TIP3      6273            0.0000000000
     41072      6466  TIP3      OH2             0.0055745731      -33.0678816369       69.1114868966  TIP3      6274            0.0000000000
     41073      6466  TIP3      H1              0.1974340649      -32.4939474466       69.8874537764  TIP3      6274            0.0000000000
     41074      6466  TIP3      H2              0.5702768076      -32.6435319523       68.4506078656  TIP3      6274            0.0000000000
     41075      6467  TIP3      OH2            -5.4102027502      -30.2548926553       68.7134169868  TIP3      6275            0.0000000000
     41076      6467  TIP3      H1             -5.2552707838      -31.2210311296       68.7129925187  TIP3      6275            0.0000000000
     41077      6467  TIP3      H2             -5.5162848783      -30.1086923993       67.7524124675  TIP3      6275            0.0000000000
     41078      6468  TIP3      OH2           -12.2876670168      -32.1571762912       65.9190402502  TIP3      6276            0.0000000000
     41079      6468  TIP3      H1            -12.1880802667      -31.3245451579       65.4189933430  TIP3      6276            0.0000000000
     41080      6468  TIP3      H2            -12.7027771126      -32.7249068006       65.2400826224  TIP3      6276            0.0000000000
     41081      6469  TIP3      OH2            -4.5564066670      -32.1100098564       64.2906221688  TIP3      6277            0.0000000000
     41082      6469  TIP3      H1             -3.9028780966      -32.3844893702       64.9720652108  TIP3      6277            0.0000000000
     41083      6469  TIP3      H2             -4.0079960973      -31.5184765856       63.7576891572  TIP3      6277            0.0000000000
     41084      6470  TIP3      OH2           -15.6782458205      -29.7478853410       66.6511633698  TIP3      6278            0.0000000000
     41085      6470  TIP3      H1            -15.0079362924      -30.2959974338       67.1068924676  TIP3      6278            0.0000000000
     41086      6470  TIP3      H2            -15.5705498963      -30.0694836494       65.7422211913  TIP3      6278            0.0000000000
     41087      6471  TIP3      OH2           -10.5170100939      -28.1997676277       65.9739096593  TIP3      6279            0.0000000000
     41088      6471  TIP3      H1             -9.8434859683      -28.7809944044       66.3664548883  TIP3      6279            0.0000000000
     41089      6471  TIP3      H2            -11.0329233696      -28.8556321400       65.4650838108  TIP3      6279            0.0000000000
     41090      6472  TIP3      OH2             0.4761659347      -31.6505895372       71.3905087628  TIP3      6280            0.0000000000
     41091      6472  TIP3      H1             -0.1574085554      -30.9095298341       71.2849893944  TIP3      6280            0.0000000000
     41092      6472  TIP3      H2              0.4921235420      -31.7650127866       72.3474945857  TIP3      6280            0.0000000000
     41093      6473  TIP3      OH2           -13.3762153348      -33.2106054251       69.9453978330  TIP3      6281            0.0000000000
     41094      6473  TIP3      H1            -13.7027650335      -32.6767326472       69.1923920021  TIP3      6281            0.0000000000
     41095      6473  TIP3      H2            -14.0824180954      -33.0364038287       70.6176541420  TIP3      6281            0.0000000000
     41096      6474  TIP3      OH2            -6.0978288063      -23.7884134634       63.5044030319  TIP3      6282            0.0000000000
     41097      6474  TIP3      H1             -6.3653591530      -24.0604298213       62.6169568344  TIP3      6282            0.0000000000
     41098      6474  TIP3      H2             -6.4057527191      -22.8541917319       63.5557878449  TIP3      6282            0.0000000000
     41099      6475  TIP3      OH2           -10.8769975569      -25.6206416415       70.2038577308  TIP3      6283            0.0000000000
     41100      6475  TIP3      H1            -11.5786156850      -24.9756980257       70.4101567858  TIP3      6283            0.0000000000
     41101      6475  TIP3      H2            -10.1608622345      -25.0382186563       69.9020268624  TIP3      6283            0.0000000000
     41102      6476  TIP3      OH2            -2.7399263843      -32.7567112507       66.2663495930  TIP3      6284            0.0000000000
     41103      6476  TIP3      H1             -2.9906278949      -33.4957678185       66.8319829155  TIP3      6284            0.0000000000
     41104      6476  TIP3      H2             -2.0789249462      -32.3051445461       66.8162743375  TIP3      6284            0.0000000000
     41105      6477  TIP3      OH2           -13.8302647736      -31.3600514284       67.9679785605  TIP3      6285            0.0000000000
     41106      6477  TIP3      H1            -13.1767402414      -30.7156646802       68.3100256582  TIP3      6285            0.0000000000
     41107      6477  TIP3      H2            -13.3104956800      -31.8081511066       67.2536176446  TIP3      6285            0.0000000000
     41108      6478  TIP3      OH2           -12.4528489621      -23.6259420895       71.0005407427  TIP3      6286            0.0000000000
     41109      6478  TIP3      H1            -12.3993811411      -22.7012923032       70.6845285861  TIP3      6286            0.0000000000
     41110      6478  TIP3      H2            -13.2666788756      -23.7808864070       71.5325692175  TIP3      6286            0.0000000000
     41111      6479  TIP3      OH2           -16.4088774107      -24.0342057597       61.8173335176  TIP3      6287            0.0000000000
     41112      6479  TIP3      H1            -16.5626948354      -23.6588745401       60.9329832976  TIP3      6287            0.0000000000
     41113      6479  TIP3      H2            -16.2124041338      -23.2069953810       62.3027205511  TIP3      6287            0.0000000000
     41114      6480  TIP3      OH2            -2.7410865372      -22.3351347722       68.5694826939  TIP3      6288            0.0000000000
     41115      6480  TIP3      H1             -3.7086230293      -22.2235387452       68.6873523967  TIP3      6288            0.0000000000
     41116      6480  TIP3      H2             -2.4706874898      -21.4199491120       68.3655168455  TIP3      6288            0.0000000000
     41117      6481  TIP3      OH2            -2.3837525583      -34.0556710307       70.0153203799  TIP3      6289            0.0000000000
     41118      6481  TIP3      H1             -3.1317143030      -33.4645609872       69.8614506443  TIP3      6289            0.0000000000
     41119      6481  TIP3      H2             -1.6971465857      -33.6477849790       69.4464927999  TIP3      6289            0.0000000000
     41120      6482  TIP3      OH2            -9.4776286530      -35.9255476871       67.2478437002  TIP3      6290            0.0000000000
     41121      6482  TIP3      H1             -9.4890788876      -36.8812078836       67.4131734733  TIP3      6290            0.0000000000
     41122      6482  TIP3      H2            -10.2629624692      -35.6572617760       67.7501295248  TIP3      6290            0.0000000000
     41123      6483  TIP3      OH2            -4.4787655281      -20.5514806475       65.1545731788  TIP3      6291            0.0000000000
     41124      6483  TIP3      H1             -4.0519962539      -21.2718218802       64.6469578624  TIP3      6291            0.0000000000
     41125      6483  TIP3      H2             -4.0442476581      -19.7631922592       64.7646813554  TIP3      6291            0.0000000000
     41126      6484  TIP3      OH2            -3.2657632693      -22.6250747952       63.6771305059  TIP3      6292            0.0000000000
     41127      6484  TIP3      H1             -3.5677671369      -23.3214477486       63.0725768833  TIP3      6292            0.0000000000
     41128      6484  TIP3      H2             -3.2331731160      -23.1165348883       64.5174475496  TIP3      6292            0.0000000000
     41129      6485  TIP3      OH2            -1.6535734826      -24.0272732678       72.1684247170  TIP3      6293            0.0000000000
     41130      6485  TIP3      H1             -1.5051116587      -24.6823193099       71.4504549303  TIP3      6293            0.0000000000
     41131      6485  TIP3      H2             -1.4475275264      -23.1850634029       71.7236154347  TIP3      6293            0.0000000000
     41132      6486  TIP3      OH2            -7.1528001148      -27.1540348220       61.9262288409  TIP3      6294            0.0000000000
     41133      6486  TIP3      H1             -7.8462411695      -26.5677867137       61.5717040398  TIP3      6294            0.0000000000
     41134      6486  TIP3      H2             -6.4431645261      -27.0417921587       61.2678921833  TIP3      6294            0.0000000000
     41135      6487  TIP3      OH2            -7.0728452813      -28.5714249649       58.9404389793  TIP3      6295            0.0000000000
     41136      6487  TIP3      H1             -6.3645664664      -28.5855197523       59.6035149771  TIP3      6295            0.0000000000
     41137      6487  TIP3      H2             -6.7664997965      -29.2899514761       58.3715951732  TIP3      6295            0.0000000000
     41138      6488  TIP3      OH2             0.2374465656      -27.7146621092       70.2130508585  TIP3      6296            0.0000000000
     41139      6488  TIP3      H1             -0.4232283564      -26.9945033938       70.2490356226  TIP3      6296            0.0000000000
     41140      6488  TIP3      H2              0.7290817028      -27.4826182961       69.4046851815  TIP3      6296            0.0000000000
     41141      6489  TIP3      OH2            -3.7037438505      -26.9423138618       62.8522920845  TIP3      6297            0.0000000000
     41142      6489  TIP3      H1             -4.4489344779      -26.6887211084       63.4518835024  TIP3      6297            0.0000000000
     41143      6489  TIP3      H2             -3.2299176920      -27.6097456192       63.3775963252  TIP3      6297            0.0000000000
     41144      6490  TIP3      OH2            -3.7789058995      -28.7673673163       71.9809810763  TIP3      6298            0.0000000000
     41145      6490  TIP3      H1             -3.7705723912      -27.9435588357       72.4958914216  TIP3      6298            0.0000000000
     41146      6490  TIP3      H2             -4.4048822578      -28.4761789788       71.2852883648  TIP3      6298            0.0000000000
     41147      6491  TIP3      OH2           -12.0905155186      -26.2741658191       64.7792472386  TIP3      6299            0.0000000000
     41148      6491  TIP3      H1            -12.4140556624      -26.6431481211       63.9207367906  TIP3      6299            0.0000000000
     41149      6491  TIP3      H2            -11.4762482642      -26.9712494582       65.1029680214  TIP3      6299            0.0000000000
     41150      6492  TIP3      OH2           -10.8314551837      -22.9134838374       67.4960070480  TIP3      6300            0.0000000000
     41151      6492  TIP3      H1            -10.7792836683      -23.3881187773       66.6484537039  TIP3      6300            0.0000000000
     41152      6492  TIP3      H2             -9.9970855861      -23.2293414706       67.9026529503  TIP3      6300            0.0000000000
     41153      6493  TIP3      OH2           -11.7648232818      -27.5282132711       68.4333034080  TIP3      6301            0.0000000000
     41154      6493  TIP3      H1            -11.2184397928      -27.4266515503       67.6293017223  TIP3      6301            0.0000000000
     41155      6493  TIP3      H2            -11.3679609365      -26.8658843304       69.0409732705  TIP3      6301            0.0000000000
     41156      6494  TIP3      OH2            -5.3599529339      -21.9484561590       69.1324316582  TIP3      6302            0.0000000000
     41157      6494  TIP3      H1             -5.6364585746      -21.3133400714       69.7994427478  TIP3      6302            0.0000000000
     41158      6494  TIP3      H2             -5.6033365210      -22.8025787771       69.5607863439  TIP3      6302            0.0000000000
     41159      6495  TIP3      OH2           -10.8432354342      -23.0993100911       73.1477244189  TIP3      6303            0.0000000000
     41160      6495  TIP3      H1            -11.2222670281      -22.3230035010       73.6066323079  TIP3      6303            0.0000000000
     41161      6495  TIP3      H2            -11.4814518590      -23.3031675883       72.4346775346  TIP3      6303            0.0000000000
     41162      6496  TIP3      OH2            -4.8265832075      -27.7275953779       60.5172662724  TIP3      6304            0.0000000000
     41163      6496  TIP3      H1             -4.2716529179      -27.5541634017       61.3179968502  TIP3      6304            0.0000000000
     41164      6496  TIP3      H2             -4.3761064374      -27.2324836091       59.7963757006  TIP3      6304            0.0000000000
     41165      6497  TIP3      OH2           -13.8612269599      -26.9037777418       72.2540906048  TIP3      6305            0.0000000000
     41166      6497  TIP3      H1            -13.8232896925      -26.2942377244       73.0125910810  TIP3      6305            0.0000000000
     41167      6497  TIP3      H2            -14.8148590631      -26.8812368315       72.0770763466  TIP3      6305            0.0000000000
     41168      6498  TIP3      OH2            -7.1098110426      -21.0009867364       63.9809359604  TIP3      6306            0.0000000000
     41169      6498  TIP3      H1             -6.6844442304      -20.7008356813       64.7941170954  TIP3      6306            0.0000000000
     41170      6498  TIP3      H2             -7.6806854808      -20.2579421097       63.7594473711  TIP3      6306            0.0000000000
     41171      6499  TIP3      OH2           -12.5708900561      -21.0690884606       73.8618451717  TIP3      6307            0.0000000000
     41172      6499  TIP3      H1            -12.6090480500      -21.1463719529       72.9039933872  TIP3      6307            0.0000000000
     41173      6499  TIP3      H2            -13.4956076412      -21.1758525424       74.1633645867  TIP3      6307            0.0000000000
     41174      6500  TIP3      OH2            -1.1399198119      -35.8495547178       60.1717713449  TIP3      6308            0.0000000000
     41175      6500  TIP3      H1             -1.9955472590      -35.8120603728       60.6343253773  TIP3      6308            0.0000000000
     41176      6500  TIP3      H2             -0.8984673929      -34.9389758755       59.9598199685  TIP3      6308            0.0000000000
     41177      6501  TIP3      OH2           -13.1275841252      -27.2705105131       62.3932471189  TIP3      6309            0.0000000000
     41178      6501  TIP3      H1            -13.4070745165      -26.4668226246       61.8951665995  TIP3      6309            0.0000000000
     41179      6501  TIP3      H2            -13.7860002323      -27.9229418276       62.1500480884  TIP3      6309            0.0000000000
     41180      6502  TIP3      OH2             0.0243622449      -21.6553444732       58.7782559315  TIP3      6310            0.0000000000
     41181      6502  TIP3      H1              0.2020889556      -20.7105848149       58.9216558461  TIP3      6310            0.0000000000
     41182      6502  TIP3      H2              0.9497358520      -21.9560651773       58.7450985765  TIP3      6310            0.0000000000
     41183      6503  TIP3      OH2           -17.0018470666      -24.8093213907       71.2596395217  TIP3      6311            0.0000000000
     41184      6503  TIP3      H1            -17.4981543419      -24.9115234053       70.4238514190  TIP3      6311            0.0000000000
     41185      6503  TIP3      H2            -16.9591712651      -25.7592841134       71.5021358447  TIP3      6311            0.0000000000
     41186      6504  TIP3      OH2           -17.2506895317      -22.1015901928       68.1208793475  TIP3      6312            0.0000000000
     41187      6504  TIP3      H1            -16.3024973633      -22.1695741395       67.9644693599  TIP3      6312            0.0000000000
     41188      6504  TIP3      H2            -17.3739412329      -21.2369648507       68.5319884412  TIP3      6312            0.0000000000
     41189      6505  TIP3      OH2             0.9522514392      -21.3825531143       73.7180870817  TIP3      6313            0.0000000000
     41190      6505  TIP3      H1              0.8425213558      -22.3431973558       73.7309629912  TIP3      6313            0.0000000000
     41191      6505  TIP3      H2              0.1015369718      -21.1315588724       74.1539462769  TIP3      6313            0.0000000000
     41192      6506  TIP3      OH2            -8.0669430286      -21.8333253035       72.6113563655  TIP3      6314            0.0000000000
     41193      6506  TIP3      H1             -8.0168206234      -20.9989958673       73.1363021606  TIP3      6314            0.0000000000
     41194      6506  TIP3      H2             -8.9247117456      -22.2039101472       72.8765472753  TIP3      6314            0.0000000000
     41195      6507  TIP3      OH2            -7.5888355373      -18.0930257043       62.3910049114  TIP3      6315            0.0000000000
     41196      6507  TIP3      H1             -7.7719383957      -18.1798619109       61.4397970368  TIP3      6315            0.0000000000
     41197      6507  TIP3      H2             -7.6544454597      -17.1372462984       62.5680976815  TIP3      6315            0.0000000000
     41198      6508  TIP3      OH2           -14.0158991426      -19.1642637104       64.2571220014  TIP3      6316            0.0000000000
     41199      6508  TIP3      H1            -13.8556087904      -19.6525130263       65.0869208986  TIP3      6316            0.0000000000
     41200      6508  TIP3      H2            -14.8137530943      -19.6502255074       63.9515025331  TIP3      6316            0.0000000000
     41201      6509  TIP3      OH2            -4.5316259847      -18.8281511009       59.3771072562  TIP3      6317            0.0000000000
     41202      6509  TIP3      H1             -4.1495710242      -19.6479589711       58.9650433154  TIP3      6317            0.0000000000
     41203      6509  TIP3      H2             -4.5632297326      -19.1442428203       60.3157561213  TIP3      6317            0.0000000000
     41204      6510  TIP3      OH2            -4.8790305805      -18.9453474988       62.1461551725  TIP3      6318            0.0000000000
     41205      6510  TIP3      H1             -5.8409015509      -18.8745962502       62.3393135503  TIP3      6318            0.0000000000
     41206      6510  TIP3      H2             -4.6467397976      -19.6835237022       62.7356032280  TIP3      6318            0.0000000000
     41207      6511  TIP3      OH2            -1.8809258796      -29.9245730705       74.1853811015  TIP3      6319            0.0000000000
     41208      6511  TIP3      H1             -2.3737406612      -29.4683435540       73.4857066431  TIP3      6319            0.0000000000
     41209      6511  TIP3      H2             -1.9091254698      -30.8501123487       73.9027401838  TIP3      6319            0.0000000000
     41210      6512  TIP3      OH2           -14.7778118704      -23.7251819681       72.3719558065  TIP3      6320            0.0000000000
     41211      6512  TIP3      H1            -14.5920232411      -24.0394249358       73.2945299808  TIP3      6320            0.0000000000
     41212      6512  TIP3      H2            -15.6699862531      -24.0954168430       72.1670321347  TIP3      6320            0.0000000000
     41213      6513  TIP3      OH2           -12.0929723851      -35.0650743047       68.2057312235  TIP3      6321            0.0000000000
     41214      6513  TIP3      H1            -12.9833535925      -35.1253806821       67.8072416656  TIP3      6321            0.0000000000
     41215      6513  TIP3      H2            -12.2012956968      -34.2085226002       68.6492667643  TIP3      6321            0.0000000000
     41216      6514  TIP3      OH2            -7.4477291539      -35.3395251820       71.5860335602  TIP3      6322            0.0000000000
     41217      6514  TIP3      H1             -7.0221122017      -35.7589314702       72.3357525179  TIP3      6322            0.0000000000
     41218      6514  TIP3      H2             -8.4020698933      -35.4459679957       71.7442939886  TIP3      6322            0.0000000000
     41219      6515  TIP3      OH2            -4.1323910046      -31.5499292268       72.4515089602  TIP3      6323            0.0000000000
     41220      6515  TIP3      H1             -4.7221324062      -31.7117911862       73.2228895907  TIP3      6323            0.0000000000
     41221      6515  TIP3      H2             -4.3046514197      -30.6250675696       72.1974845122  TIP3      6323            0.0000000000
     41222      6516  TIP3      OH2            -3.3807287617      -26.6949944135       58.3348948755  TIP3      6324            0.0000000000
     41223      6516  TIP3      H1             -3.4006259690      -26.8842598896       57.3684774520  TIP3      6324            0.0000000000
     41224      6516  TIP3      H2             -2.5198390152      -26.2548709311       58.3852410380  TIP3      6324            0.0000000000
     41225      6517  TIP3      OH2            -7.7808318704      -32.7846570586       58.8575636093  TIP3      6325            0.0000000000
     41226      6517  TIP3      H1             -8.1062189869      -32.8553354365       59.7671214437  TIP3      6325            0.0000000000
     41227      6517  TIP3      H2             -8.0981794950      -33.6544569482       58.5454017853  TIP3      6325            0.0000000000
     41228      6518  TIP3      OH2           -11.9616126481      -30.0514931353       69.4407960507  TIP3      6326            0.0000000000
     41229      6518  TIP3      H1            -12.7070756539      -30.0643351728       70.0678712274  TIP3      6326            0.0000000000
     41230      6518  TIP3      H2            -12.0132909481      -29.1480948524       69.0563141321  TIP3      6326            0.0000000000
     41231      6519  TIP3      OH2           -12.0052727174      -29.9388999521       64.2890929296  TIP3      6327            0.0000000000
     41232      6519  TIP3      H1            -12.9469916586      -30.1773796556       64.1601512881  TIP3      6327            0.0000000000
     41233      6519  TIP3      H2            -11.6293455624      -30.2305446110       63.4355174280  TIP3      6327            0.0000000000
     41234      6520  TIP3      OH2            -6.4824464526      -29.4283494358       63.0635667054  TIP3      6328            0.0000000000
     41235      6520  TIP3      H1             -6.8785466513      -28.6072707669       62.6928338581  TIP3      6328            0.0000000000
     41236      6520  TIP3      H2             -5.7926048462      -29.6073655822       62.4022713736  TIP3      6328            0.0000000000
     41237      6521  TIP3      OH2            -7.4419946351      -29.2113488303       74.4964375998  TIP3      6329            0.0000000000
     41238      6521  TIP3      H1             -7.9509037511      -30.0019460143       74.7993774519  TIP3      6329            0.0000000000
     41239      6521  TIP3      H2             -6.5927256345      -29.3396772245       74.9517635657  TIP3      6329            0.0000000000
     41240      6522  TIP3      OH2            -5.4466829344      -29.9402659941       65.9066618861  TIP3      6330            0.0000000000
     41241      6522  TIP3      H1             -5.7374279770      -29.3836853008       65.1662383077  TIP3      6330            0.0000000000
     41242      6522  TIP3      H2             -5.3599092614      -30.7911567820       65.4406778061  TIP3      6330            0.0000000000
     41243      6523  TIP3      OH2           -14.3514308202      -29.7930427878       71.1077452042  TIP3      6331            0.0000000000
     41244      6523  TIP3      H1            -14.2606354304      -29.3947035720       71.9889362415  TIP3      6331            0.0000000000
     41245      6523  TIP3      H2            -14.7931845467      -30.6309788301       71.3183709505  TIP3      6331            0.0000000000
     41246      6524  TIP3      OH2           -10.9773688296      -32.3878806876       57.9753871753  TIP3      6332            0.0000000000
     41247      6524  TIP3      H1            -11.4413451134      -32.8283910771       58.7131008962  TIP3      6332            0.0000000000
     41248      6524  TIP3      H2            -11.6823065036      -31.9875051587       57.4523883176  TIP3      6332            0.0000000000
     41249      6525  TIP3      OH2           -17.6797257463      -32.6639361817       65.0750961606  TIP3      6333            0.0000000000
     41250      6525  TIP3      H1            -17.0023998838      -32.7008122780       65.7842218934  TIP3      6333            0.0000000000
     41251      6525  TIP3      H2            -17.2319949839      -33.0575661841       64.3082401863  TIP3      6333            0.0000000000
     41252      6526  TIP3      OH2           -16.4204094095      -31.9583015020       60.4743496260  TIP3      6334            0.0000000000
     41253      6526  TIP3      H1            -15.9083606529      -31.3737538876       59.8834566159  TIP3      6334            0.0000000000
     41254      6526  TIP3      H2            -17.1142067641      -31.3359253871       60.7668411494  TIP3      6334            0.0000000000
     41255      6527  TIP3      OH2            -6.2582041490      -28.3588003583       70.4601298325  TIP3      6335            0.0000000000
     41256      6527  TIP3      H1             -5.8754859846      -29.0466957912       69.8761691751  TIP3      6335            0.0000000000
     41257      6527  TIP3      H2             -6.7230769706      -28.8894538694       71.1322302085  TIP3      6335            0.0000000000
     41258      6528  TIP3      OH2            -9.4463326814      -32.3920929361       65.2749761521  TIP3      6336            0.0000000000
     41259      6528  TIP3      H1            -10.3747718644      -32.3920126678       65.5860192742  TIP3      6336            0.0000000000
     41260      6528  TIP3      H2             -8.9564438044      -32.5422724415       66.1008935045  TIP3      6336            0.0000000000
     41261      6529  TIP3      OH2           -14.6396167879      -30.8277640791       64.1669407022  TIP3      6337            0.0000000000
     41262      6529  TIP3      H1            -15.5255860832      -30.6829393733       63.7731619993  TIP3      6337            0.0000000000
     41263      6529  TIP3      H2            -14.3444667402      -31.6596704226       63.7514973607  TIP3      6337            0.0000000000
     41264      6530  TIP3      OH2           -10.9966800203      -30.7904785018       61.7892951156  TIP3      6338            0.0000000000
     41265      6530  TIP3      H1            -10.0413796902      -30.6828802616       61.9525197416  TIP3      6338            0.0000000000
     41266      6530  TIP3      H2            -11.2354359196      -30.0968074639       61.1440634418  TIP3      6338            0.0000000000
     41267      6531  TIP3      OH2            -5.0451272259      -33.1713638490       68.5317746905  TIP3      6339            0.0000000000
     41268      6531  TIP3      H1             -5.7345033930      -33.0914395602       69.2250527849  TIP3      6339            0.0000000000
     41269      6531  TIP3      H2             -5.5468496996      -33.4361510760       67.7493712027  TIP3      6339            0.0000000000
     41270      6532  TIP3      OH2           -12.2941081243      -29.6098762292       59.3795262813  TIP3      6340            0.0000000000
     41271      6532  TIP3      H1            -12.8265056539      -29.9886651325       58.6598570872  TIP3      6340            0.0000000000
     41272      6532  TIP3      H2            -11.4730183598      -29.4025422317       58.9069102296  TIP3      6340            0.0000000000
     41273      6533  TIP3      OH2            -1.8549497743      -17.5061082425       74.8995859731  TIP3      6341            0.0000000000
     41274      6533  TIP3      H1             -1.5772474690      -17.1432423074       74.0376901933  TIP3      6341            0.0000000000
     41275      6533  TIP3      H2             -1.1175785701      -17.2043485424       75.4557761476  TIP3      6341            0.0000000000
     41276      6534  TIP3      OH2           -14.1339458522      -25.0469320645       74.4843265365  TIP3      6342            0.0000000000
     41277      6534  TIP3      H1            -13.4476603379      -24.7831400272       75.0971698872  TIP3      6342            0.0000000000
     41278      6534  TIP3      H2            -14.9457528555      -24.9767789284       75.0437475897  TIP3      6342            0.0000000000
     41279      6535  TIP3      OH2            -8.1636731471      -29.6324656796       67.1865149152  TIP3      6343            0.0000000000
     41280      6535  TIP3      H1             -7.5670831217      -30.1768766871       66.6588084390  TIP3      6343            0.0000000000
     41281      6535  TIP3      H2             -8.3183822408      -30.1760348452       67.9717379263  TIP3      6343            0.0000000000
     41282      6536  TIP3      OH2           -13.1734106652      -33.4527240438       63.6319874245  TIP3      6344            0.0000000000
     41283      6536  TIP3      H1            -13.4861335649      -34.3730068338       63.6497160799  TIP3      6344            0.0000000000
     41284      6536  TIP3      H2            -12.3930620393      -33.5376091657       63.0730960220  TIP3      6344            0.0000000000
     41285      6537  TIP3      OH2            -9.5195820481      -31.2516403177       69.5904772523  TIP3      6345            0.0000000000
     41286      6537  TIP3      H1            -10.3641611405      -30.7669164734       69.6999890711  TIP3      6345            0.0000000000
     41287      6537  TIP3      H2             -8.9763768529      -30.9370531136       70.3352369202  TIP3      6345            0.0000000000
     41288      6538  TIP3      OH2            -8.9365909016      -25.0918286795       61.3068057637  TIP3      6346            0.0000000000
     41289      6538  TIP3      H1             -9.7510436097      -25.5299123215       60.9669720911  TIP3      6346            0.0000000000
     41290      6538  TIP3      H2             -9.1801832135      -24.9384347201       62.2416929265  TIP3      6346            0.0000000000
     41291      6539  TIP3      OH2            -1.7539823237      -25.8745286951       70.1047451353  TIP3      6347            0.0000000000
     41292      6539  TIP3      H1             -1.1918422137      -25.3912506457       69.4719796755  TIP3      6347            0.0000000000
     41293      6539  TIP3      H2             -2.6146928200      -25.8302022014       69.6410084472  TIP3      6347            0.0000000000
     41294      6540  TIP3      OH2            -5.1266467226      -32.2540447581       59.4929121586  TIP3      6348            0.0000000000
     41295      6540  TIP3      H1             -6.0755190642      -32.1007771979       59.3339923223  TIP3      6348            0.0000000000
     41296      6540  TIP3      H2             -4.7770696242      -31.4034927429       59.8303242048  TIP3      6348            0.0000000000
     41297      6541  TIP3      OH2            -7.4469324085      -24.8062449587       72.5349908239  TIP3      6349            0.0000000000
     41298      6541  TIP3      H1             -7.7849887328      -25.2440020048       73.3211311544  TIP3      6349            0.0000000000
     41299      6541  TIP3      H2             -7.7051486039      -23.8857764756       72.6535975557  TIP3      6349            0.0000000000
     41300      6542  TIP3      OH2            -4.3681658035      -30.3520445412       61.0947595775  TIP3      6350            0.0000000000
     41301      6542  TIP3      H1             -3.4882871960      -30.4903754296       61.5046189183  TIP3      6350            0.0000000000
     41302      6542  TIP3      H2             -4.2678973823      -29.5197427098       60.6001545272  TIP3      6350            0.0000000000
     41303      6543  TIP3      OH2           -13.8162738360      -25.6669136738       67.1188151829  TIP3      6351            0.0000000000
     41304      6543  TIP3      H1            -13.1604479262      -25.7684658062       66.3996957019  TIP3      6351            0.0000000000
     41305      6543  TIP3      H2            -13.7774523609      -26.5424099123       67.5440720442  TIP3      6351            0.0000000000
     41306      6544  TIP3      OH2            -6.8507700859      -23.6090426702       60.3318768972  TIP3      6352            0.0000000000
     41307      6544  TIP3      H1             -7.1955142068      -22.7640419788       60.6894609685  TIP3      6352            0.0000000000
     41308      6544  TIP3      H2             -7.5824180236      -24.2251934230       60.5521496171  TIP3      6352            0.0000000000
     41309      6545  TIP3      OH2           -16.8437023836      -27.2559829952       72.3677612773  TIP3      6353            0.0000000000
     41310      6545  TIP3      H1            -16.6783517364      -27.7185404388       73.2159833372  TIP3      6353            0.0000000000
     41311      6545  TIP3      H2            -17.4544487419      -27.8759106172       71.9225747178  TIP3      6353            0.0000000000
     41312      6546  TIP3      OH2            -9.8321171062      -27.6990038251       74.5465229005  TIP3      6354            0.0000000000
     41313      6546  TIP3      H1            -10.1478387006      -28.0356132688       73.6918791658  TIP3      6354            0.0000000000
     41314      6546  TIP3      H2             -8.9130480287      -28.0461161517       74.5338896088  TIP3      6354            0.0000000000
     41315      6547  TIP3      OH2            -5.1478942778      -22.3899686185       72.4936290318  TIP3      6355            0.0000000000
     41316      6547  TIP3      H1             -6.0716349884      -22.2040962084       72.2603122061  TIP3      6355            0.0000000000
     41317      6547  TIP3      H2             -5.1769087815      -22.0940049690       73.4237137243  TIP3      6355            0.0000000000
     41318      6548  TIP3      OH2             0.5361865228      -30.1952723334       60.8776827311  TIP3      6356            0.0000000000
     41319      6548  TIP3      H1             -0.0385640849      -30.4871496508       60.1442917269  TIP3      6356            0.0000000000
     41320      6548  TIP3      H2              0.6039369349      -29.2460318624       60.6258613306  TIP3      6356            0.0000000000
     41321      6549  TIP3      OH2             0.5134659087      -24.3480940454       73.6833117649  TIP3      6357            0.0000000000
     41322      6549  TIP3      H1             -0.3794337651      -24.1213282183       73.3231111052  TIP3      6357            0.0000000000
     41323      6549  TIP3      H2              1.0566128332      -24.3935067760       72.8699043030  TIP3      6357            0.0000000000
     41324      6550  TIP3      OH2            -1.1974789325      -21.3837844606       61.2817418063  TIP3      6358            0.0000000000
     41325      6550  TIP3      H1             -1.5516295542      -22.2170714610       61.6164597574  TIP3      6358            0.0000000000
     41326      6550  TIP3      H2             -0.8596491350      -21.5803459583       60.3884049843  TIP3      6358            0.0000000000
     41327      6551  TIP3      OH2            -3.9780439588      -26.5608448099       68.3867130359  TIP3      6359            0.0000000000
     41328      6551  TIP3      H1             -4.9190040336      -26.7706862591       68.2756843663  TIP3      6359            0.0000000000
     41329      6551  TIP3      H2             -3.5465832674      -27.3190085054       67.9492222491  TIP3      6359            0.0000000000
     41330      6552  TIP3      OH2           -11.4741127623      -22.2114204001       64.5317505388  TIP3      6360            0.0000000000
     41331      6552  TIP3      H1            -10.9757716000      -21.4211267150       64.2682664554  TIP3      6360            0.0000000000
     41332      6552  TIP3      H2            -12.3317574960      -22.0183842083       64.1065677963  TIP3      6360            0.0000000000
     41333      6553  TIP3      OH2           -15.6853017252      -27.3826336849       59.0618431227  TIP3      6361            0.0000000000
     41334      6553  TIP3      H1            -15.1166598649      -26.7038984056       59.4706702626  TIP3      6361            0.0000000000
     41335      6553  TIP3      H2            -16.5849077283      -27.0840488079       59.3043256063  TIP3      6361            0.0000000000
     41336      6554  TIP3      OH2           -10.0281512787      -24.5673575473       64.0223225392  TIP3      6362            0.0000000000
     41337      6554  TIP3      H1            -10.3548077359      -23.6485212275       64.0939689412  TIP3      6362            0.0000000000
     41338      6554  TIP3      H2            -10.7733662375      -25.0485636364       64.4332272021  TIP3      6362            0.0000000000
     41339      6555  TIP3      OH2            -9.6161185031      -20.3807855223       70.4333043775  TIP3      6363            0.0000000000
     41340      6555  TIP3      H1             -9.1551130825      -19.5832832883       70.1222986347  TIP3      6363            0.0000000000
     41341      6555  TIP3      H2             -8.9551925518      -20.7174801369       71.0634919426  TIP3      6363            0.0000000000
     41342      6556  TIP3      OH2           -11.3648155653      -19.5828280762       63.5374463688  TIP3      6364            0.0000000000
     41343      6556  TIP3      H1            -12.3374817053      -19.4698367627       63.6288314308  TIP3      6364            0.0000000000
     41344      6556  TIP3      H2            -11.0270298169      -18.7344189675       63.8696286345  TIP3      6364            0.0000000000
     41345      6557  TIP3      OH2            -6.0764424784      -24.3858766144       70.0313715845  TIP3      6365            0.0000000000
     41346      6557  TIP3      H1             -6.3959568095      -24.5770603383       70.9386000368  TIP3      6365            0.0000000000
     41347      6557  TIP3      H2             -5.4314174475      -25.0917899834       69.8651118420  TIP3      6365            0.0000000000
     41348      6558  TIP3      OH2            -3.7305843663      -23.3021210560       59.1205470461  TIP3      6366            0.0000000000
     41349      6558  TIP3      H1             -3.4353959402      -23.7773457160       59.9240429710  TIP3      6366            0.0000000000
     41350      6558  TIP3      H2             -4.6837241405      -23.4888402938       59.2028293816  TIP3      6366            0.0000000000
     41351      6559  TIP3      OH2            -3.2479777718      -19.8001860082       72.5204412164  TIP3      6367            0.0000000000
     41352      6559  TIP3      H1             -3.9431450206      -20.2925911233       72.0435018379  TIP3      6367            0.0000000000
     41353      6559  TIP3      H2             -3.0693548295      -19.0990305533       71.8588365250  TIP3      6367            0.0000000000
     41354      6560  TIP3      OH2             0.6825675702      -18.9530737885       59.3941468181  TIP3      6368            0.0000000000
     41355      6560  TIP3      H1              1.4201482056      -18.3435202124       59.1529697312  TIP3      6368            0.0000000000
     41356      6560  TIP3      H2              0.0086350264      -18.3087871148       59.6780561308  TIP3      6368            0.0000000000
     41357      6561  TIP3      OH2           -15.1961967228      -32.5655433278       71.9275862802  TIP3      6369            0.0000000000
     41358      6561  TIP3      H1            -16.1049139088      -32.2070367022       71.9086821480  TIP3      6369            0.0000000000
     41359      6561  TIP3      H2            -15.3255644546      -33.4315094367       72.3488016379  TIP3      6369            0.0000000000
     41360      6562  TIP3      OH2            -2.9573978507      -24.6711797587       61.3641786839  TIP3      6370            0.0000000000
     41361      6562  TIP3      H1             -3.1964871555      -25.4578749654       61.9010973449  TIP3      6370            0.0000000000
     41362      6562  TIP3      H2             -2.0044247421      -24.6280256501       61.5418408050  TIP3      6370            0.0000000000
     41363      6563  TIP3      OH2           -15.5849438114      -20.5296577669       70.2664053893  TIP3      6371            0.0000000000
     41364      6563  TIP3      H1            -15.6150409364      -21.4503443872       70.0805520141  TIP3      6371            0.0000000000
     41365      6563  TIP3      H2            -15.3994326208      -20.3503757249       71.2034849133  TIP3      6371            0.0000000000
     41366      6564  TIP3      OH2            -9.5781492998      -22.2382328463       57.6090369371  TIP3      6372            0.0000000000
     41367      6564  TIP3      H1             -9.5013240269      -23.0081174350       57.0241670871  TIP3      6372            0.0000000000
     41368      6564  TIP3      H2            -10.0516723485      -22.6449823675       58.3764903767  TIP3      6372            0.0000000000
     41369      6565  TIP3      OH2           -10.7830273304      -22.7215569062       60.0477858778  TIP3      6373            0.0000000000
     41370      6565  TIP3      H1            -10.5858279309      -23.2149281157       60.8485144789  TIP3      6373            0.0000000000
     41371      6565  TIP3      H2            -10.7999929005      -21.7941689215       60.3885352568  TIP3      6373            0.0000000000
     41372      6566  TIP3      OH2           -14.2911031019      -25.4609943319       60.5513855046  TIP3      6374            0.0000000000
     41373      6566  TIP3      H1            -14.9897505581      -25.0456972854       61.0958479334  TIP3      6374            0.0000000000
     41374      6566  TIP3      H2            -13.7893922691      -24.6704062708       60.2712310371  TIP3      6374            0.0000000000
     41375      6567  TIP3      OH2            -6.4500536777      -32.7832178585       70.8654556197  TIP3      6375            0.0000000000
     41376      6567  TIP3      H1             -5.7312342964      -32.7198458496       71.5051234042  TIP3      6375            0.0000000000
     41377      6567  TIP3      H2             -6.8194967199      -33.6677268714       71.0469188843  TIP3      6375            0.0000000000
     41378      6568  TIP3      OH2            -5.6820636295      -33.2093905464       61.9846576694  TIP3      6376            0.0000000000
     41379      6568  TIP3      H1             -5.4929482007      -32.7489023689       61.1384300994  TIP3      6376            0.0000000000
     41380      6568  TIP3      H2             -5.1462928946      -32.7021461891       62.6083101753  TIP3      6376            0.0000000000
     41381      6569  TIP3      OH2            -8.0354612994      -21.0535206057       60.7692454981  TIP3      6377            0.0000000000
     41382      6569  TIP3      H1             -8.8662188325      -20.5288798582       60.8377157636  TIP3      6377            0.0000000000
     41383      6569  TIP3      H2             -7.5084814389      -20.5099673110       60.1752137204  TIP3      6377            0.0000000000
     41384      6570  TIP3      OH2            -8.4691311205      -31.4845212338       62.7899883828  TIP3      6378            0.0000000000
     41385      6570  TIP3      H1             -7.7113720611      -30.8669216854       62.8194714822  TIP3      6378            0.0000000000
     41386      6570  TIP3      H2             -8.7348718210      -31.5649308408       63.7263628225  TIP3      6378            0.0000000000
     41387      6571  TIP3      OH2            -7.9153345075      -30.4177134856       71.9708872012  TIP3      6379            0.0000000000
     41388      6571  TIP3      H1             -7.8525365483      -29.8765305399       72.7807889495  TIP3      6379            0.0000000000
     41389      6571  TIP3      H2             -7.2668987641      -31.1238766151       72.0709786774  TIP3      6379            0.0000000000
     41390      6572  TIP3      OH2            -7.6125809244      -34.3875510165       63.7084778370  TIP3      6380            0.0000000000
     41391      6572  TIP3      H1             -7.9613776530      -33.7164175558       64.3196526260  TIP3      6380            0.0000000000
     41392      6572  TIP3      H2             -6.9560139066      -33.8382759802       63.2203896889  TIP3      6380            0.0000000000
     41393      6573  TIP3      OH2           -10.5736553848      -20.0069042623       60.8037828409  TIP3      6381            0.0000000000
     41394      6573  TIP3      H1            -10.5547315909      -19.1967075532       60.2430021778  TIP3      6381            0.0000000000
     41395      6573  TIP3      H2            -10.9420011838      -19.6738227251       61.6518189705  TIP3      6381            0.0000000000
     41396      6574  TIP3      OH2           -11.9956311994      -33.2983657441       60.3593242332  TIP3      6382            0.0000000000
     41397      6574  TIP3      H1            -12.0496417064      -32.4035428782       60.7491778373  TIP3      6382            0.0000000000
     41398      6574  TIP3      H2            -11.0720734628      -33.4991223597       60.6105022104  TIP3      6382            0.0000000000
     41399      6575  TIP3      OH2            -1.7532818772      -32.5548429739       72.8337447894  TIP3      6383            0.0000000000
     41400      6575  TIP3      H1             -2.6795245758      -32.2334803270       72.6924075070  TIP3      6383            0.0000000000
     41401      6575  TIP3      H2             -1.4566038923      -32.5861383146       71.9040864648  TIP3      6383            0.0000000000
     41402      6576  TIP3      OH2            -3.1397686226      -28.7670475250       66.8178812942  TIP3      6384            0.0000000000
     41403      6576  TIP3      H1             -3.9671687612      -29.2110159430       66.5476785672  TIP3      6384            0.0000000000
     41404      6576  TIP3      H2             -2.6596564146      -29.4526551542       67.3380078218  TIP3      6384            0.0000000000
     41405      6577  TIP3      OH2           -13.7096092356      -22.9085589652       58.9703314114  TIP3      6385            0.0000000000
     41406      6577  TIP3      H1            -13.2521653264      -22.3671985162       59.6725770306  TIP3      6385            0.0000000000
     41407      6577  TIP3      H2            -12.9788390524      -23.4105360405       58.5732216172  TIP3      6385            0.0000000000
     41408      6578  TIP3      OH2           -15.4090629303      -30.1610731390       58.5706327811  TIP3      6386            0.0000000000
     41409      6578  TIP3      H1            -15.3880971265      -29.2021830052       58.7679627281  TIP3      6386            0.0000000000
     41410      6578  TIP3      H2            -16.2951887153      -30.3421615922       58.2524080763  TIP3      6386            0.0000000000
     41411      6579  TIP3      OH2            -2.0778789789      -19.5073599546       68.4964726710  TIP3      6387            0.0000000000
     41412      6579  TIP3      H1             -2.1653258373      -18.8279670702       67.8002080064  TIP3      6387            0.0000000000
     41413      6579  TIP3      H2             -1.1139780570      -19.4562225074       68.6748335955  TIP3      6387            0.0000000000
     41414      6580  TIP3      OH2           -14.8251308695      -35.2254327396       67.3562629427  TIP3      6388            0.0000000000
     41415      6580  TIP3      H1            -14.7656413040      -35.3266313195       66.3778762950  TIP3      6388            0.0000000000
     41416      6580  TIP3      H2            -14.9713451116      -36.1490380900       67.5819267729  TIP3      6388            0.0000000000
     41417      6581  TIP3      OH2           -15.7642271389      -21.2616123382       63.7221518513  TIP3      6389            0.0000000000
     41418      6581  TIP3      H1            -16.5854540108      -20.9414995271       63.3489401652  TIP3      6389            0.0000000000
     41419      6581  TIP3      H2            -15.1957162207      -21.1747832348       62.9036957670  TIP3      6389            0.0000000000
     41420      6582  TIP3      OH2           -16.3933676904      -18.8408850147       74.7132314709  TIP3      6390            0.0000000000
     41421      6582  TIP3      H1            -15.8340350541      -19.0132286210       75.4976409170  TIP3      6390            0.0000000000
     41422      6582  TIP3      H2            -16.8616213865      -19.6810896592       74.5889621655  TIP3      6390            0.0000000000
     41423      6583  TIP3      OH2           -11.7775544248      -19.9802540738       76.3926000047  TIP3      6391            0.0000000000
     41424      6583  TIP3      H1            -10.9497168317      -20.3797358757       76.6648015396  TIP3      6391            0.0000000000
     41425      6583  TIP3      H2            -11.7664609411      -20.1452646742       75.4291048334  TIP3      6391            0.0000000000
     41426      6584  TIP3      OH2            -7.5840275359      -20.3736028104       57.7567336180  TIP3      6392            0.0000000000
     41427      6584  TIP3      H1             -8.2948806667      -21.0226394396       57.9677972952  TIP3      6392            0.0000000000
     41428      6584  TIP3      H2             -6.8999689820      -21.0007880543       57.4829979430  TIP3      6392            0.0000000000
     41429      6585  TIP3      OH2            -5.2537205708      -21.5122028935       75.0687079356  TIP3      6393            0.0000000000
     41430      6585  TIP3      H1             -5.5683884867      -22.3931891835       75.3588180658  TIP3      6393            0.0000000000
     41431      6585  TIP3      H2             -4.4669436499      -21.3903431024       75.6332721925  TIP3      6393            0.0000000000
     41432      6586  TIP3      OH2            -3.0516761624      -20.6136929918       57.9520369472  TIP3      6394            0.0000000000
     41433      6586  TIP3      H1             -2.7598995487      -21.4152463507       58.4204235216  TIP3      6394            0.0000000000
     41434      6586  TIP3      H2             -2.2984292667      -20.4411779131       57.3628698135  TIP3      6394            0.0000000000
     41435      6587  TIP3      OH2           -16.5013385655      -25.0527230713       75.6791123939  TIP3      6395            0.0000000000
     41436      6587  TIP3      H1            -16.3522676024      -25.9790811913       75.4064596917  TIP3      6395            0.0000000000
     41437      6587  TIP3      H2            -17.2696648282      -24.8007616692       75.1426557748  TIP3      6395            0.0000000000
     41438      6588  TIP3      OH2           -12.1477922077      -24.7282409869       57.7131909056  TIP3      6396            0.0000000000
     41439      6588  TIP3      H1            -12.0187349743      -25.4570498526       58.3404125114  TIP3      6396            0.0000000000
     41440      6588  TIP3      H2            -11.3847237155      -24.8278842265       57.1223173777  TIP3      6396            0.0000000000
     41441      6589  TIP3      OH2            -9.8223796692      -25.0650323557       75.1456110211  TIP3      6397            0.0000000000
     41442      6589  TIP3      H1            -10.1076607870      -24.7333821734       74.2661666647  TIP3      6397            0.0000000000
     41443      6589  TIP3      H2             -9.7158972313      -26.0340530762       74.9791028033  TIP3      6397            0.0000000000
     41444      6590  TIP3      OH2            -6.7283875743      -23.5830846737       57.5243256498  TIP3      6398            0.0000000000
     41445      6590  TIP3      H1             -7.0017333639      -23.5100380041       58.4525601347  TIP3      6398            0.0000000000
     41446      6590  TIP3      H2             -6.9218170227      -24.5408139365       57.3783764675  TIP3      6398            0.0000000000
     41447      6591  TIP3      OH2            -4.1020314738      -25.1959122145       72.5052845640  TIP3      6399            0.0000000000
     41448      6591  TIP3      H1             -3.3137246396      -24.6135840223       72.4433146572  TIP3      6399            0.0000000000
     41449      6591  TIP3      H2             -4.7987434237      -24.5242628268       72.5441942798  TIP3      6399            0.0000000000
     41450      6592  TIP3      OH2           -15.5702497648      -27.8082908786       75.1130966768  TIP3      6400            0.0000000000
     41451      6592  TIP3      H1            -15.1980163005      -28.6924354426       75.0243912050  TIP3      6400            0.0000000000
     41452      6592  TIP3      H2            -15.8296074515      -27.8210551736       76.0555086328  TIP3      6400            0.0000000000
     41453      6593  TIP3      OH2           -10.9436584245      -26.6994864459       60.1773019193  TIP3      6401            0.0000000000
     41454      6593  TIP3      H1            -11.4634956587      -27.2299318160       60.7991495028  TIP3      6401            0.0000000000
     41455      6593  TIP3      H2            -10.6587955494      -27.3690530144       59.5141016616  TIP3      6401            0.0000000000
     41456      6594  TIP3      OH2           -11.6954883610      -28.8820617458       72.4595293495  TIP3      6402            0.0000000000
     41457      6594  TIP3      H1            -12.2860125790      -28.1610751245       72.7250670799  TIP3      6402            0.0000000000
     41458      6594  TIP3      H2            -11.3058409962      -28.4961538474       71.6558431787  TIP3      6402            0.0000000000
     41459      6595  TIP3      OH2            -9.8886553477      -28.4475507823       58.3736805146  TIP3      6403            0.0000000000
     41460      6595  TIP3      H1            -10.0416831651      -28.5447199823       57.4130044849  TIP3      6403            0.0000000000
     41461      6595  TIP3      H2             -8.9116423329      -28.4049625692       58.4397061454  TIP3      6403            0.0000000000
     41462      6596  TIP3      OH2            -6.6353216071      -26.2728778652       75.8661633159  TIP3      6404            0.0000000000
     41463      6596  TIP3      H1             -5.6894797442      -26.3228219498       75.6464296836  TIP3      6404            0.0000000000
     41464      6596  TIP3      H2             -6.7817154116      -27.0844366470       76.3763584282  TIP3      6404            0.0000000000
     41465      6597  TIP3      OH2            -0.5857408056      -26.1486513772       57.7898631607  TIP3      6405            0.0000000000
     41466      6597  TIP3      H1             -0.7486909529      -26.5240729056       56.9124032592  TIP3      6405            0.0000000000
     41467      6597  TIP3      H2             -0.4664271248      -25.1876118664       57.6036548010  TIP3      6405            0.0000000000
     41468      6598  TIP3      OH2           -11.2733673819      -31.4871186454       73.5022924689  TIP3      6406            0.0000000000
     41469      6598  TIP3      H1            -11.1672880821      -32.2067037733       72.8577108188  TIP3      6406            0.0000000000
     41470      6598  TIP3      H2            -11.3472778977      -30.6754931216       72.9598692143  TIP3      6406            0.0000000000
     41471      6599  TIP3      OH2           -10.8890335333      -33.0931975583       71.0428292688  TIP3      6407            0.0000000000
     41472      6599  TIP3      H1            -10.3726755255      -32.6202286928       70.3494275395  TIP3      6407            0.0000000000
     41473      6599  TIP3      H2            -11.7824974224      -33.1975238817       70.6367025798  TIP3      6407            0.0000000000
     41474      6600  TIP3      OH2            -9.3498617976      -27.6231006344       71.3187174159  TIP3      6408            0.0000000000
     41475      6600  TIP3      H1             -8.5946495170      -27.7897670744       70.7444281251  TIP3      6408            0.0000000000
     41476      6600  TIP3      H2             -9.7127663008      -26.7892475105       70.9784595682  TIP3      6408            0.0000000000
     41477      6601  TIP3      OH2            -4.9712639456      -29.8853957760       76.2515117952  TIP3      6409            0.0000000000
     41478      6601  TIP3      H1             -4.7262069213      -30.8220347052       76.1943285605  TIP3      6409            0.0000000000
     41479      6601  TIP3      H2             -4.1057006941      -29.4464755837       76.3057647039  TIP3      6409            0.0000000000
     41480      6602  TIP3      OH2            -3.6014714552      -27.0690340526       74.4535922212  TIP3      6410            0.0000000000
     41481      6602  TIP3      H1             -3.8564102108      -26.3595945034       73.8223908883  TIP3      6410            0.0000000000
     41482      6602  TIP3      H2             -2.6428322916      -27.1159137925       74.2482605324  TIP3      6410            0.0000000000
     41483      6603  TIP3      OH2           -12.7929761027      -30.2661982449       75.4663140693  TIP3      6411            0.0000000000
     41484      6603  TIP3      H1            -13.5984228039      -30.7990831234       75.2755107123  TIP3      6411            0.0000000000
     41485      6603  TIP3      H2            -12.1771312468      -30.6046414389       74.7900059773  TIP3      6411            0.0000000000
     41486      6604  TIP3      OH2           -10.2428855719      -35.4815672947       71.7376058136  TIP3      6412            0.0000000000
     41487      6604  TIP3      H1            -10.2981150607      -34.5407905090       71.4392820355  TIP3      6412            0.0000000000
     41488      6604  TIP3      H2            -10.8248281889      -35.8959085992       71.0848856250  TIP3      6412            0.0000000000
     41489      6605  TIP3      OH2            -8.8410611171      -31.3152698979       75.0707464093  TIP3      6413            0.0000000000
     41490      6605  TIP3      H1             -9.1242063779      -31.6187571526       75.9537181274  TIP3      6413            0.0000000000
     41491      6605  TIP3      H2             -9.6116613284      -31.5592999826       74.5260878772  TIP3      6413            0.0000000000
     41492      6606  TIP3      OH2            -6.1068394124      -32.1943580017       74.1743799665  TIP3      6414            0.0000000000
     41493      6606  TIP3      H1             -7.0705582378      -32.1670577891       74.3065294944  TIP3      6414            0.0000000000
     41494      6606  TIP3      H2             -5.8225159937      -32.8287323636       74.8636789223  TIP3      6414            0.0000000000
     41495      6607  TIP3      OH2            -4.5637224724      -33.4710294224       76.1130352104  TIP3      6415            0.0000000000
     41496      6607  TIP3      H1             -4.6080965223      -34.4628358687       76.1079476006  TIP3      6415            0.0000000000
     41497      6607  TIP3      H2             -4.8070530623      -33.2797858096       77.0416953216  TIP3      6415            0.0000000000
     41498      6608  TIP3      OH2           -14.7106915771      -32.3161499172       75.1930559186  TIP3      6416            0.0000000000
     41499      6608  TIP3      H1            -14.5052809270      -33.0665736646       74.6114931542  TIP3      6416            0.0000000000
     41500      6608  TIP3      H2            -14.8354230362      -32.7630375532       76.0527577184  TIP3      6416            0.0000000000
     41501      6609  TIP3      OH2            -9.8987883681       36.7214889238       74.1908651693  TIP3      6417            0.0000000000
     41502      6609  TIP3      H1             -9.2161234377       36.0501523821       74.2480158803  TIP3      6417            0.0000000000
     41503      6609  TIP3      H2             -9.9984884495       36.9281267235       73.2398535835  TIP3      6417            0.0000000000
     41504      6610  TIP3      OH2            -9.4935496010      -34.6142704664       76.2241627868  TIP3      6418            0.0000000000
     41505      6610  TIP3      H1             -9.6781500657      -35.1812964372       75.4418785275  TIP3      6418            0.0000000000
     41506      6610  TIP3      H2            -10.1102639653      -33.8750328919       76.1533194184  TIP3      6418            0.0000000000
     41507      6611  TIP3      OH2           -10.0523265576      -17.7465027893       59.4438772887  TIP3      6419            0.0000000000
     41508      6611  TIP3      H1             -9.0891311575      -17.6682568051       59.5218695964  TIP3      6419            0.0000000000
     41509      6611  TIP3      H2            -10.1998133932      -17.1522388662       58.7027776011  TIP3      6419            0.0000000000
     41510      6612  TIP3      OH2           -16.5197217001      -23.1927360261       58.9121729347  TIP3      6420            0.0000000000
     41511      6612  TIP3      H1            -15.5498755991      -23.0694275456       59.1024961093  TIP3      6420            0.0000000000
     41512      6612  TIP3      H2            -16.4290267454      -23.8287293932       58.1656680371  TIP3      6420            0.0000000000
     41513      6613  TIP3      OH2           -17.7420838783      -17.7936532761       63.9148395217  TIP3      6421            0.0000000000
     41514      6613  TIP3      H1            -18.4195060731      -18.2997131487       63.4170018376  TIP3      6421            0.0000000000
     41515      6613  TIP3      H2            -17.4196267328      -18.4683458286       64.5412301101  TIP3      6421            0.0000000000
     41516      6614  TIP3      OH2           -16.9378247147      -19.6230045518       65.7722482140  TIP3      6422            0.0000000000
     41517      6614  TIP3      H1            -17.2297061170      -20.5340178212       65.9129438998  TIP3      6422            0.0000000000
     41518      6614  TIP3      H2            -16.6657521606      -19.3244485196       66.6545258912  TIP3      6422            0.0000000000
     41519      6615  TIP3      OH2             0.6429478563      -18.8652039533       68.6917321544  TIP3      6423            0.0000000000
     41520      6615  TIP3      H1              0.6735851936      -18.7052402017       69.6509016533  TIP3      6423            0.0000000000
     41521      6615  TIP3      H2              1.3470409792      -18.2825828273       68.3888976549  TIP3      6423            0.0000000000
     41522      6616  TIP3      OH2             0.2127013196      -19.2701300725       71.6407289979  TIP3      6424            0.0000000000
     41523      6616  TIP3      H1             -0.2545691633      -20.0402596757       71.2562049757  TIP3      6424            0.0000000000
     41524      6616  TIP3      H2              0.7027182284      -19.7185434562       72.3503453261  TIP3      6424            0.0000000000
     41525      6617  TIP3      OH2            -1.3316793582      -23.5627009721       76.3186784589  TIP3      6425            0.0000000000
     41526      6617  TIP3      H1             -2.2397941508      -23.5760809922       76.6828710980  TIP3      6425            0.0000000000
     41527      6617  TIP3      H2             -0.9714947391      -22.7625068962       76.7536733621  TIP3      6425            0.0000000000
     41528      6618  TIP3      OH2            -0.0246825519      -25.2186774958       61.7385288298  TIP3      6426            0.0000000000
     41529      6618  TIP3      H1              0.8426280131      -24.8267505801       61.9250447658  TIP3      6426            0.0000000000
     41530      6618  TIP3      H2             -0.0402085803      -25.9377470976       62.4077750928  TIP3      6426            0.0000000000
     41531      6619  TIP3      OH2             0.3364115983      -27.1422228483       63.6300435991  TIP3      6427            0.0000000000
     41532      6619  TIP3      H1             -0.4152625552      -27.6419088652       64.0208698107  TIP3      6427            0.0000000000
     41533      6619  TIP3      H2              0.9340981041      -27.0124054375       64.3926792477  TIP3      6427            0.0000000000
     41534      6620  TIP3      OH2             0.0929466570      -24.4471874394       68.6134482897  TIP3      6428            0.0000000000
     41535      6620  TIP3      H1              0.9061217027      -24.8259956581       68.2326332932  TIP3      6428            0.0000000000
     41536      6620  TIP3      H2              0.2389235262      -23.4945576532       68.4391699830  TIP3      6428            0.0000000000
     41537      6621  TIP3      OH2            -1.3482759138      -21.5406918153       70.8764971410  TIP3      6429            0.0000000000
     41538      6621  TIP3      H1             -2.0378451335      -21.2015189751       71.4684139546  TIP3      6429            0.0000000000
     41539      6621  TIP3      H2             -1.8967913399      -21.9457434859       70.1722566209  TIP3      6429            0.0000000000
     41540      6622  TIP3      OH2             0.6348098356      -27.3195308813       60.0182723099  TIP3      6430            0.0000000000
     41541      6622  TIP3      H1              0.0680266663      -26.9792528805       59.2948237422  TIP3      6430            0.0000000000
     41542      6622  TIP3      H2              0.5364391541      -26.6061812643       60.6761308653  TIP3      6430            0.0000000000
     41543      6623  TIP3      OH2            -0.9832628671      -30.0844968152       58.5275714972  TIP3      6431            0.0000000000
     41544      6623  TIP3      H1             -0.9127467463      -29.4221505090       57.8332867053  TIP3      6431            0.0000000000
     41545      6623  TIP3      H2             -1.1749134603      -30.9099625711       58.0367121203  TIP3      6431            0.0000000000
     41546      6624  TIP3      OH2            -1.8430446740      -28.6706794825       64.1992339758  TIP3      6432            0.0000000000
     41547      6624  TIP3      H1             -1.9919052114      -29.6251633633       64.1563801764  TIP3      6432            0.0000000000
     41548      6624  TIP3      H2             -2.1731593334      -28.4566467444       65.0920938099  TIP3      6432            0.0000000000
     41549      6625  TIP3      OH2           -16.8303449708      -26.5487950507       68.2634524754  TIP3      6433            0.0000000000
     41550      6625  TIP3      H1            -16.6629706079      -26.6589570713       67.3003512270  TIP3      6433            0.0000000000
     41551      6625  TIP3      H2            -15.9473239624      -26.7847198245       68.6075427076  TIP3      6433            0.0000000000
     41552      6626  TIP3      OH2            -0.9816060989      -26.7011877326       73.9094928389  TIP3      6434            0.0000000000
     41553      6626  TIP3      H1             -0.3684622605      -27.4612323142       74.0127954573  TIP3      6434            0.0000000000
     41554      6626  TIP3      H2             -0.3754527260      -25.9298963702       73.8816889735  TIP3      6434            0.0000000000
     41555      6627  TIP3      OH2             0.5044647005      -28.8158460244       74.5517634674  TIP3      6435            0.0000000000
     41556      6627  TIP3      H1             -0.3677583139      -29.2220246701       74.3619258204  TIP3      6435            0.0000000000
     41557      6627  TIP3      H2              1.0847656385      -29.5926540505       74.4673961346  TIP3      6435            0.0000000000
     41558      6628  TIP3      OH2            -1.7428066963      -32.6094937522       57.6848171917  TIP3      6436            0.0000000000
     41559      6628  TIP3      H1             -1.1514609596      -33.0540942343       58.3231907695  TIP3      6436            0.0000000000
     41560      6628  TIP3      H2             -2.6020983125      -33.0467746965       57.8237453954  TIP3      6436            0.0000000000
     41561      6629  TIP3      OH2            -2.1994897362      -31.0750385419       62.6113927222  TIP3      6437            0.0000000000
     41562      6629  TIP3      H1             -1.8830373789      -31.9915864854       62.7687388877  TIP3      6437            0.0000000000
     41563      6629  TIP3      H2             -1.3753585954      -30.6730646290       62.3067864288  TIP3      6437            0.0000000000
     41564      6630  TIP3      OH2            -1.5409527942      -30.5200548362       68.0912429405  TIP3      6438            0.0000000000
     41565      6630  TIP3      H1             -0.5760714333      -30.3084794430       68.0787346143  TIP3      6438            0.0000000000
     41566      6630  TIP3      H2             -1.7225906021      -30.4070523026       69.0378126990  TIP3      6438            0.0000000000
     41567      6631  TIP3      OH2            -1.4774694565      -29.8051955066       70.8564353704  TIP3      6439            0.0000000000
     41568      6631  TIP3      H1             -2.3553922251      -29.5269063132       71.1957688820  TIP3      6439            0.0000000000
     41569      6631  TIP3      H2             -1.0375844810      -28.9465257898       70.6545537010  TIP3      6439            0.0000000000
     41570      6632  TIP3      OH2           -17.2164498742      -31.3071843583       74.2858283816  TIP3      6440            0.0000000000
     41571      6632  TIP3      H1            -16.3145087520      -31.4657982871       74.6226328373  TIP3      6440            0.0000000000
     41572      6632  TIP3      H2            -17.6800762968      -32.0614280589       74.7217553037  TIP3      6440            0.0000000000
     41573      6633  TIP3      OH2             0.8924505789      -35.7259731872       76.2208247941  TIP3      6441            0.0000000000
     41574      6633  TIP3      H1              1.1169118724      -36.4089104276       75.5748877522  TIP3      6441            0.0000000000
     41575      6633  TIP3      H2              0.8827845548      -34.9064539998       75.6975682031  TIP3      6441            0.0000000000
     41576      6634  TIP3      OH2            -1.5122111762      -33.7687339010       62.7061006022  TIP3      6442            0.0000000000
     41577      6634  TIP3      H1             -1.3083387850      -34.2427782122       63.5438114843  TIP3      6442            0.0000000000
     41578      6634  TIP3      H2             -2.0893563732      -34.4177600320       62.2376898283  TIP3      6442            0.0000000000
     41579      6635  TIP3      OH2           -16.0557451605      -32.9418773422       67.2210420834  TIP3      6443            0.0000000000
     41580      6635  TIP3      H1            -15.6184156494      -33.7850618541       67.4944366102  TIP3      6443            0.0000000000
     41581      6635  TIP3      H2            -15.4779903362      -32.2942159092       67.6421740407  TIP3      6443            0.0000000000
     41582      6636  TIP3      OH2           -17.7369757545      -29.9921261289       68.2963452564  TIP3      6444            0.0000000000
     41583      6636  TIP3      H1            -17.1739190537      -30.2449022770       67.5363253261  TIP3      6444            0.0000000000
     41584      6636  TIP3      H2            -17.2697066141      -29.1882536950       68.5653030888  TIP3      6444            0.0000000000
     41585      6637  TIP3      OH2             0.3258533817      -33.7009355713       74.5543517899  TIP3      6445            0.0000000000
     41586      6637  TIP3      H1             -0.6001430351      -33.3956263285       74.5046511056  TIP3      6445            0.0000000000
     41587      6637  TIP3      H2              0.3657734195      -34.2267432159       73.7407807048  TIP3      6445            0.0000000000
     41588      6638  TIP3      OH2             0.3382891837      -33.7584534284       59.2641971215  TIP3      6446            0.0000000000
     41589      6638  TIP3      H1              0.7158265465      -34.4856016945       58.7156511048  TIP3      6446            0.0000000000
     41590      6638  TIP3      H2              1.0502143676      -33.1102996986       59.2912212073  TIP3      6446            0.0000000000
     41591      6639  TIP3      OH2           -17.3637576688      -33.7589157708       62.4005053186  TIP3      6447            0.0000000000
     41592      6639  TIP3      H1            -18.3048027562      -33.5753756438       62.2207371383  TIP3      6447            0.0000000000
     41593      6639  TIP3      H2            -16.9482625414      -33.2766649922       61.6600500519  TIP3      6447            0.0000000000
     41594      6640  TIP3      OH2            -2.6416650315      -18.7785122235       64.3274334815  TIP3      6448            0.0000000000
     41595      6640  TIP3      H1             -1.9516043131      -19.0931431851       63.7131596145  TIP3      6448            0.0000000000
     41596      6640  TIP3      H2             -2.1201424064      -18.2837794237       64.9753643400  TIP3      6448            0.0000000000
     41597      6641  TIP3      OH2           -17.4252975072      -35.0163685055       70.6736950255  TIP3      6449            0.0000000000
     41598      6641  TIP3      H1            -18.1054995385      -35.2547597005       71.3282701817  TIP3      6449            0.0000000000
     41599      6641  TIP3      H2            -17.9051453169      -34.4084780478       70.0858955559  TIP3      6449            0.0000000000
     41600      6642  TIP3      OH2           -15.1983656107      -21.8716363745       74.7915640300  TIP3      6450            0.0000000000
     41601      6642  TIP3      H1            -16.0704074550      -21.6601816037       74.4215118430  TIP3      6450            0.0000000000
     41602      6642  TIP3      H2            -15.4293229654      -21.9363892016       75.7313601690  TIP3      6450            0.0000000000
     41603      6643  TIP3      OH2           -12.3599733209      -20.8963926549       71.0386921442  TIP3      6451            0.0000000000
     41604      6643  TIP3      H1            -12.5762413102      -19.9620147903       70.8413839533  TIP3      6451            0.0000000000
     41605      6643  TIP3      H2            -11.3916769540      -20.8055709888       70.8284313673  TIP3      6451            0.0000000000
     41606      6644  TIP3      OH2            -7.9661389308      -19.4684836658       74.0164549146  TIP3      6452            0.0000000000
     41607      6644  TIP3      H1             -7.8245744550      -19.7984757933       74.9365181578  TIP3      6452            0.0000000000
     41608      6644  TIP3      H2             -7.0686422856      -19.1519614389       73.7833383697  TIP3      6452            0.0000000000
     41609      6645  TIP3      OH2            -5.6789807946      -18.1836957868       73.3212699237  TIP3      6453            0.0000000000
     41610      6645  TIP3      H1             -4.9479630989      -18.7699455359       73.0828142416  TIP3      6453            0.0000000000
     41611      6645  TIP3      H2             -5.3023064269      -17.7447914110       74.1145451726  TIP3      6453            0.0000000000
     41612      6646  TIP3      OH2            -0.6537003658      -35.5400131334       72.3299612208  TIP3      6454            0.0000000000
     41613      6646  TIP3      H1             -1.5004457835      -35.2409833040       71.9588220452  TIP3      6454            0.0000000000
     41614      6646  TIP3      H2             -0.5008083342      -36.4059211315       71.8935285071  TIP3      6454            0.0000000000
     41615      6647  TIP3      OH2           -14.9057877428      -17.7103624457       71.0966157218  TIP3      6455            0.0000000000
     41616      6647  TIP3      H1            -15.5789418368      -17.1262878097       70.7039347708  TIP3      6455            0.0000000000
     41617      6647  TIP3      H2            -15.1912122670      -17.7820563170       72.0156018706  TIP3      6455            0.0000000000
     41618      6648  TIP3      OH2           -12.4175908524      -18.0914165019       70.1621426275  TIP3      6456            0.0000000000
     41619      6648  TIP3      H1            -13.2879380342      -17.8693565211       70.5648648438  TIP3      6456            0.0000000000
     41620      6648  TIP3      H2            -12.4308612094      -17.4701446720       69.4068162769  TIP3      6456            0.0000000000
     41621      6649  TIP3      OH2            -7.6853025183      -18.1453542427       69.3410278403  TIP3      6457            0.0000000000
     41622      6649  TIP3      H1             -8.1452638995      -17.5873255534       68.6959259086  TIP3      6457            0.0000000000
     41623      6649  TIP3      H2             -7.5509493573      -17.5142283106       70.0818798992  TIP3      6457            0.0000000000
     41624      6650  TIP3      OH2            -5.3984482438      -19.3405710405       70.3747414381  TIP3      6458            0.0000000000
     41625      6650  TIP3      H1             -6.2507680930      -19.0615383154       70.0024699349  TIP3      6458            0.0000000000
     41626      6650  TIP3      H2             -4.9116192250      -18.5035608314       70.2821798252  TIP3      6458            0.0000000000
     41627      6651  TIP3      OH2            -2.8122756615      -17.7675145895       70.5929599761  TIP3      6459            0.0000000000
     41628      6651  TIP3      H1             -2.8678538789      -16.8083137057       70.3643676226  TIP3      6459            0.0000000000
     41629      6651  TIP3      H2             -2.5963125326      -18.1432476148       69.7160572303  TIP3      6459            0.0000000000
     41630      6652  TIP3      OH2           -15.4031243447      -18.9970510266       68.0259740550  TIP3      6460            0.0000000000
     41631      6652  TIP3      H1            -15.4795597554      -19.4264173668       68.9031589615  TIP3      6460            0.0000000000
     41632      6652  TIP3      H2            -14.5755415224      -19.3580498223       67.6432244689  TIP3      6460            0.0000000000
     41633      6653  TIP3      OH2           -13.3485519756      -20.2500980054       66.7754284074  TIP3      6461            0.0000000000
     41634      6653  TIP3      H1            -13.4657875326      -21.2064690427       66.8508527983  TIP3      6461            0.0000000000
     41635      6653  TIP3      H2            -12.4474551666      -20.1183586596       67.1354560165  TIP3      6461            0.0000000000
     41636      6654  TIP3      OH2           -10.7478754372      -19.8029680559       67.5825890937  TIP3      6462            0.0000000000
     41637      6654  TIP3      H1            -10.5485322774      -20.7129116402       67.3050483662  TIP3      6462            0.0000000000
     41638      6654  TIP3      H2            -10.6558371464      -19.8460621739       68.5414981053  TIP3      6462            0.0000000000
     41639      6655  TIP3      OH2            -7.3883272966      -34.0771104694       66.6929844366  TIP3      6463            0.0000000000
     41640      6655  TIP3      H1             -7.9717589121      -34.7979100512       66.9765510651  TIP3      6463            0.0000000000
     41641      6655  TIP3      H2             -6.7048316749      -34.5712163913       66.2004335755  TIP3      6463            0.0000000000
     41642      6656  TIP3      OH2            -2.1262544448      -36.0671388538       66.8077157458  TIP3      6464            0.0000000000
     41643      6656  TIP3      H1             -1.5060086276      -35.5144271409       66.2850158855  TIP3      6464            0.0000000000
     41644      6656  TIP3      H2             -2.9918448127      -35.7252902986       66.5657065411  TIP3      6464            0.0000000000
     41645      6657  TIP3      OH2            -0.4354668068      -34.8139767646       65.0555242614  TIP3      6465            0.0000000000
     41646      6657  TIP3      H1              0.1947732461      -35.4093481015       64.6375754796  TIP3      6465            0.0000000000
     41647      6657  TIP3      H2              0.0680606300      -33.9785056533       65.1381813704  TIP3      6465            0.0000000000
     41648      6658  TIP3      OH2           -14.9309270740      -35.4828831598       64.5828978028  TIP3      6466            0.0000000000
     41649      6658  TIP3      H1            -15.6983053822      -35.7210394180       64.0433409518  TIP3      6466            0.0000000000
     41650      6658  TIP3      H2            -14.4494763405      -36.3299203663       64.6136603551  TIP3      6466            0.0000000000
     41651      6659  TIP3      OH2           -16.1048444190      -35.7628081561       60.2932830233  TIP3      6467            0.0000000000
     41652      6659  TIP3      H1            -15.6831412134      -35.1118877948       59.7159348598  TIP3      6467            0.0000000000
     41653      6659  TIP3      H2            -16.7379404312      -35.2133791348       60.7702440839  TIP3      6467            0.0000000000
     41654      6660  TIP3      OH2           -10.3629079792      -35.6596395451       64.3347286044  TIP3      6468            0.0000000000
     41655      6660  TIP3      H1             -9.5106917439      -35.1966884391       64.2969653007  TIP3      6468            0.0000000000
     41656      6660  TIP3      H2            -10.4631823869      -35.8149026331       65.2799600035  TIP3      6468            0.0000000000
     41657      6661  TIP3      OH2            -4.9756049351      -35.2012559035       66.1256775437  TIP3      6469            0.0000000000
     41658      6661  TIP3      H1             -4.8340290946      -35.2485295122       65.1758705848  TIP3      6469            0.0000000000
     41659      6661  TIP3      H2             -5.0652136990      -36.1773018924       66.2633571487  TIP3      6469            0.0000000000
     41660      6662  TIP3      OH2            -3.4364722050      -35.4992577818       61.6878516123  TIP3      6470            0.0000000000
     41661      6662  TIP3      H1             -4.1919033446      -34.9356529960       61.4647684781  TIP3      6470            0.0000000000
     41662      6662  TIP3      H2             -3.8420072397      -36.3626578010       61.8377370037  TIP3      6470            0.0000000000
     41663      6663  TIP3      OH2           -16.3468878990      -19.7758745334       61.3623561308  TIP3      6471            0.0000000000
     41664      6663  TIP3      H1            -16.8869667256      -19.8112948455       60.5634310217  TIP3      6471            0.0000000000
     41665      6663  TIP3      H2            -16.2141818176      -18.8271483135       61.4661333483  TIP3      6471            0.0000000000
     41666      6664  TIP3      OH2           -14.3318738153      -33.8888906595       58.8135698850  TIP3      6472            0.0000000000
     41667      6664  TIP3      H1            -13.7584802106      -34.4378087482       58.2487709174  TIP3      6472            0.0000000000
     41668      6664  TIP3      H2            -13.6760941162      -33.5069442933       59.4286936322  TIP3      6472            0.0000000000
     41669      6665  TIP3      OH2            -9.3537494647      -33.5807633964       61.2449443941  TIP3      6473            0.0000000000
     41670      6665  TIP3      H1             -8.9925491156      -34.1464978394       61.9498308783  TIP3      6473            0.0000000000
     41671      6665  TIP3      H2             -9.1953536914      -32.7075888845       61.6717252972  TIP3      6473            0.0000000000
     41672      6666  TIP3      OH2            -7.3383124516      -18.4815475344       59.6320271536  TIP3      6474            0.0000000000
     41673      6666  TIP3      H1             -6.4220637042      -18.3034217448       59.4189149034  TIP3      6474            0.0000000000
     41674      6666  TIP3      H2             -7.5835004141      -19.0317992197       58.8562595272  TIP3      6474            0.0000000000
     41675      6667  TIP3      OH2            -0.6775035460      -18.9903499130       62.3577402046  TIP3      6475            0.0000000000
     41676      6667  TIP3      H1             -0.8230233523      -19.7931904410       61.7996466014  TIP3      6475            0.0000000000
     41677      6667  TIP3      H2             -0.6964662204      -18.2707717599       61.7047508103  TIP3      6475            0.0000000000
     41678      6668  TIP3      OH2           -15.0938457086      -35.0320778970       73.8781962218  TIP3      6476            0.0000000000
     41679      6668  TIP3      H1            -15.4555902834      -35.7335805489       74.4266834599  TIP3      6476            0.0000000000
     41680      6668  TIP3      H2            -14.2053844604      -34.9886205481       74.3078345131  TIP3      6476            0.0000000000
     41681      6669  TIP3      OH2           -13.2662140131      -35.3826877065       75.5434338313  TIP3      6477            0.0000000000
     41682      6669  TIP3      H1            -12.3246187152      -35.5911811578       75.4038859458  TIP3      6477            0.0000000000
     41683      6669  TIP3      H2            -13.4315150791      -36.2268784510       76.0141729746  TIP3      6477            0.0000000000
     41684      6670  TIP3      OH2           -14.4115601244      -18.8104006325       58.2686404125  TIP3      6478            0.0000000000
     41685      6670  TIP3      H1            -14.6791546859      -18.6002950702       59.1726067753  TIP3      6478            0.0000000000
     41686      6670  TIP3      H2            -13.6531092550      -19.4122877317       58.4238371436  TIP3      6478            0.0000000000
     41687      6671  TIP3      OH2            -4.6958975603       37.0604143336       75.7207993948  TIP3      6479            0.0000000000
     41688      6671  TIP3      H1             -4.6501277560       36.5105459437       76.5378136127  TIP3      6479            0.0000000000
     41689      6671  TIP3      H2             -3.8015333642       36.8392288537       75.4216046641  TIP3      6479            0.0000000000
     41690      6672  TIP3      OH2            -1.4034310642      -20.2580873909       74.4627618365  TIP3      6480            0.0000000000
     41691      6672  TIP3      H1             -2.1942015245      -20.3927818861       73.8959756861  TIP3      6480            0.0000000000
     41692      6672  TIP3      H2             -1.5120374087      -19.3071977697       74.6627277742  TIP3      6480            0.0000000000
     41693      6673  TIP3      OH2            13.0472844263      -26.3812355249       64.4052685133  TIP3      6481            0.0000000000
     41694      6673  TIP3      H1             13.0297187057      -25.3996233278       64.3885033647  TIP3      6481            0.0000000000
     41695      6673  TIP3      H2             12.3151277680      -26.6118283727       63.8122412293  TIP3      6481            0.0000000000
     41696      6674  TIP3      OH2            11.9076387337      -27.1215015065       67.9183370367  TIP3      6482            0.0000000000
     41697      6674  TIP3      H1             11.8872081704      -27.7708497116       68.6347042396  TIP3      6482            0.0000000000
     41698      6674  TIP3      H2             11.5470097850      -27.6195340738       67.1666069424  TIP3      6482            0.0000000000
     41699      6675  TIP3      OH2             4.2535238663      -27.4469249367       69.4705204233  TIP3      6483            0.0000000000
     41700      6675  TIP3      H1              4.3408746940      -28.1313844536       70.1651502410  TIP3      6483            0.0000000000
     41701      6675  TIP3      H2              5.0030444355      -26.8751303851       69.6916298228  TIP3      6483            0.0000000000
     41702      6676  TIP3      OH2            15.5877095563      -24.1701842127       66.1990304903  TIP3      6484            0.0000000000
     41703      6676  TIP3      H1             15.1743704390      -24.8846321603       66.6897932478  TIP3      6484            0.0000000000
     41704      6676  TIP3      H2             15.6124576494      -23.4648531168       66.8717959645  TIP3      6484            0.0000000000
     41705      6677  TIP3      OH2             5.1797776234      -22.9977613113       67.9692511643  TIP3      6485            0.0000000000
     41706      6677  TIP3      H1              4.8695208791      -23.8677345092       67.6520330769  TIP3      6485            0.0000000000
     41707      6677  TIP3      H2              6.1352507323      -23.1805341728       68.0151414981  TIP3      6485            0.0000000000
     41708      6678  TIP3      OH2             1.8181689795      -29.4445387275       63.4630983825  TIP3      6486            0.0000000000
     41709      6678  TIP3      H1              1.3803670089      -28.5775874286       63.3977550813  TIP3      6486            0.0000000000
     41710      6678  TIP3      H2              1.2571892477      -29.9836264576       62.8907092878  TIP3      6486            0.0000000000
     41711      6679  TIP3      OH2             2.5328096372      -27.1994976594       65.6075327437  TIP3      6487            0.0000000000
     41712      6679  TIP3      H1              2.8008635876      -28.0271866172       66.0528680516  TIP3      6487            0.0000000000
     41713      6679  TIP3      H2              3.2256304634      -27.1062152915       64.9375628324  TIP3      6487            0.0000000000
     41714      6680  TIP3      OH2            12.7126367731      -19.0114198148       66.4430875089  TIP3      6488            0.0000000000
     41715      6680  TIP3      H1             13.3538428600      -19.7028713997       66.1507128798  TIP3      6488            0.0000000000
     41716      6680  TIP3      H2             12.4903615092      -19.3521893808       67.3090575987  TIP3      6488            0.0000000000
     41717      6681  TIP3      OH2            10.2754253449      -24.7243706123       68.3915416645  TIP3      6489            0.0000000000
     41718      6681  TIP3      H1             10.6140491353      -25.3501094121       67.7306720726  TIP3      6489            0.0000000000
     41719      6681  TIP3      H2             11.0875747980      -24.5653908258       68.9044326603  TIP3      6489            0.0000000000
     41720      6682  TIP3      OH2            18.8612674800      -33.0652974344       69.1119238262  TIP3      6490            0.0000000000
     41721      6682  TIP3      H1             19.0578405678      -32.4937908292       69.8909117277  TIP3      6490            0.0000000000
     41722      6682  TIP3      H2             19.4295696318      -32.6440039483       68.4512943019  TIP3      6490            0.0000000000
     41723      6683  TIP3      OH2            13.4140470479      -30.2706800818       68.7270835248  TIP3      6491            0.0000000000
     41724      6683  TIP3      H1             13.6134121664      -31.2258533685       68.7055639158  TIP3      6491            0.0000000000
     41725      6683  TIP3      H2             13.3367801294      -30.1066245358       67.7642042766  TIP3      6491            0.0000000000
     41726      6684  TIP3      OH2             6.5681636587      -32.1542012821       65.9188469487  TIP3      6492            0.0000000000
     41727      6684  TIP3      H1              6.6676297899      -31.3227785536       65.4164927061  TIP3      6492            0.0000000000
     41728      6684  TIP3      H2              6.1538759893      -32.7237419681       65.2405559288  TIP3      6492            0.0000000000
     41729      6685  TIP3      OH2            14.3341354523      -32.1440839413       64.2642858226  TIP3      6493            0.0000000000
     41730      6685  TIP3      H1             14.9588174931      -32.3615849572       64.9868156950  TIP3      6493            0.0000000000
     41731      6685  TIP3      H2             14.8464511295      -31.4994411402       63.7570201313  TIP3      6493            0.0000000000
     41732      6686  TIP3      OH2             3.1801983558      -29.7544011184       66.6567077987  TIP3      6494            0.0000000000
     41733      6686  TIP3      H1              3.8509959246      -30.2991084064       67.1084073271  TIP3      6494            0.0000000000
     41734      6686  TIP3      H2              3.2857398961      -30.0690111255       65.7438959962  TIP3      6494            0.0000000000
     41735      6687  TIP3      OH2             8.3380892864      -28.1989279716       65.9735820650  TIP3      6495            0.0000000000
     41736      6687  TIP3      H1              9.0120400174      -28.7798692323       66.3653985534  TIP3      6495            0.0000000000
     41737      6687  TIP3      H2              7.8213000739      -28.8560892959       65.4660870746  TIP3      6495            0.0000000000
     41738      6688  TIP3      OH2            19.3213171242      -31.6642001687       71.3984261575  TIP3      6496            0.0000000000
     41739      6688  TIP3      H1             18.7027637629      -30.9107032132       71.2686083867  TIP3      6496            0.0000000000
     41740      6688  TIP3      H2             19.3279230358      -31.7544861039       72.3556683994  TIP3      6496            0.0000000000
     41741      6689  TIP3      OH2             5.5053763461      -33.1774781063       69.9595240086  TIP3      6497            0.0000000000
     41742      6689  TIP3      H1              5.1462065331      -32.6920834683       69.1877932063  TIP3      6497            0.0000000000
     41743      6689  TIP3      H2              4.7630304668      -33.0451864935       70.6067657021  TIP3      6497            0.0000000000
     41744      6690  TIP3      OH2            12.7564202011      -23.7877184599       63.5044293861  TIP3      6498            0.0000000000
     41745      6690  TIP3      H1             12.4929713639      -24.0594567981       62.6162169753  TIP3      6498            0.0000000000
     41746      6690  TIP3      H2             12.4487554573      -22.8532040340       63.5556384812  TIP3      6498            0.0000000000
     41747      6691  TIP3      OH2             7.9814680576      -25.6231758633       70.1982205332  TIP3      6499            0.0000000000
     41748      6691  TIP3      H1              7.2753781419      -24.9792819673       70.4178985218  TIP3      6499            0.0000000000
     41749      6691  TIP3      H2              8.6855651180      -25.0219998295       69.9053859700  TIP3      6499            0.0000000000
     41750      6692  TIP3      OH2            16.1529888019      -32.8010504525       66.2498191729  TIP3      6500            0.0000000000
     41751      6692  TIP3      H1             15.8399715688      -33.4744379198       66.8624635096  TIP3      6500            0.0000000000
     41752      6692  TIP3      H2             16.7679560863      -32.2907183040       66.8092881034  TIP3      6500            0.0000000000
     41753      6693  TIP3      OH2             5.0234909869      -31.3603636959       67.9662796954  TIP3      6501            0.0000000000
     41754      6693  TIP3      H1              5.6677101248      -30.7040701765       68.2954888402  TIP3      6501            0.0000000000
     41755      6693  TIP3      H2              5.5448538621      -31.8086076982       67.2535880181  TIP3      6501            0.0000000000
     41756      6694  TIP3      OH2             6.4328433221      -23.6211036499       71.0239342296  TIP3      6502            0.0000000000
     41757      6694  TIP3      H1              6.3814689588      -22.7083318654       70.6777096956  TIP3      6502            0.0000000000
     41758      6694  TIP3      H2              5.5465411069      -23.6985841990       71.4600911323  TIP3      6502            0.0000000000
     41759      6695  TIP3      OH2             2.5077026155      -24.0034054022       61.8062667382  TIP3      6503            0.0000000000
     41760      6695  TIP3      H1              2.2595974346      -23.6707682555       60.9263661323  TIP3      6503            0.0000000000
     41761      6695  TIP3      H2              2.5939566592      -23.1679555560       62.3093033214  TIP3      6503            0.0000000000
     41762      6696  TIP3      OH2            16.1159241187      -22.3356294049       68.5686743362  TIP3      6504            0.0000000000
     41763      6696  TIP3      H1             15.1480240498      -22.2240693925       68.6886952838  TIP3      6504            0.0000000000
     41764      6696  TIP3      H2             16.3853617690      -21.4198542526       68.3655550436  TIP3      6504            0.0000000000
     41765      6697  TIP3      OH2            16.4738322423      -34.0568731527       70.0161810263  TIP3      6505            0.0000000000
     41766      6697  TIP3      H1             15.7262200365      -33.4650763033       69.8627293461  TIP3      6505            0.0000000000
     41767      6697  TIP3      H2             17.1614975631      -33.6496050614       69.4513281986  TIP3      6505            0.0000000000
     41768      6698  TIP3      OH2             9.3796824671      -35.9257528432       67.2493114111  TIP3      6506            0.0000000000
     41769      6698  TIP3      H1              9.3660324598      -36.8816225886       67.4122602131  TIP3      6506            0.0000000000
     41770      6698  TIP3      H2              8.5924014499      -35.6569081469       67.7521239693  TIP3      6506            0.0000000000
     41771      6699  TIP3      OH2            14.3768057382      -20.5510465617       65.1547342092  TIP3      6507            0.0000000000
     41772      6699  TIP3      H1             14.8041097476      -21.2714353932       64.6473923186  TIP3      6507            0.0000000000
     41773      6699  TIP3      H2             14.8114287322      -19.7626615817       64.7652241732  TIP3      6507            0.0000000000
     41774      6700  TIP3      OH2            15.5910981041      -22.6255732876       63.6762890772  TIP3      6508            0.0000000000
     41775      6700  TIP3      H1             15.2877116581      -23.3220186093       63.0725138170  TIP3      6508            0.0000000000
     41776      6700  TIP3      H2             15.6230358422      -23.1161317487       64.5172714207  TIP3      6508            0.0000000000
     41777      6701  TIP3      OH2            17.2010427280      -24.0283412888       72.1684766942  TIP3      6509            0.0000000000
     41778      6701  TIP3      H1             17.3507978409      -24.6824484237       71.4503277236  TIP3      6509            0.0000000000
     41779      6701  TIP3      H2             17.4103600326      -23.1869617512       71.7237052216  TIP3      6509            0.0000000000
     41780      6702  TIP3      OH2            11.7027457337      -27.1560250736       61.9277312984  TIP3      6510            0.0000000000
     41781      6702  TIP3      H1             11.0104470875      -26.5718099274       61.5763411893  TIP3      6510            0.0000000000
     41782      6702  TIP3      H2             12.4134662798      -27.0422411248       61.2680491861  TIP3      6510            0.0000000000
     41783      6703  TIP3      OH2            11.7838623002      -28.5722392284       58.9410899597  TIP3      6511            0.0000000000
     41784      6703  TIP3      H1             12.4918563706      -28.5857487569       59.6032750450  TIP3      6511            0.0000000000
     41785      6703  TIP3      H2             12.0895318904      -29.2898232797       58.3714763017  TIP3      6511            0.0000000000
     41786      6704  TIP3      OH2            19.0945047477      -27.7155710545       70.2130042016  TIP3      6512            0.0000000000
     41787      6704  TIP3      H1             18.4396750504      -26.9912613784       70.2484923081  TIP3      6512            0.0000000000
     41788      6704  TIP3      H2             19.5875514428      -27.4849709435       69.4050686532  TIP3      6512            0.0000000000
     41789      6705  TIP3      OH2            15.1525788075      -26.9424645950       62.8518120505  TIP3      6513            0.0000000000
     41790      6705  TIP3      H1             14.4114067762      -26.6906402013       63.4524063820  TIP3      6513            0.0000000000
     41791      6705  TIP3      H2             15.6260531078      -27.6105930634       63.3771841080  TIP3      6513            0.0000000000
     41792      6706  TIP3      OH2            15.0750678843      -28.7693078118       71.9828245236  TIP3      6514            0.0000000000
     41793      6706  TIP3      H1             15.0863345998      -27.9437149024       72.4958883969  TIP3      6514            0.0000000000
     41794      6706  TIP3      H2             14.4518003693      -28.4760410468       71.2861636390  TIP3      6514            0.0000000000
     41795      6707  TIP3      OH2             6.7590124083      -26.2686382226       64.7732371582  TIP3      6515            0.0000000000
     41796      6707  TIP3      H1              6.4410501981      -26.6518648870       63.9180979906  TIP3      6515            0.0000000000
     41797      6707  TIP3      H2              7.3757244348      -26.9628447285       65.1036954476  TIP3      6515            0.0000000000
     41798      6708  TIP3      OH2             8.0810824606      -22.8884945179       67.4505934026  TIP3      6516            0.0000000000
     41799      6708  TIP3      H1              8.0772100480      -23.4111325140       66.6394466496  TIP3      6516            0.0000000000
     41800      6708  TIP3      H2              8.8645049709      -23.2435679835       67.9096011227  TIP3      6516            0.0000000000
     41801      6709  TIP3      OH2             7.0983154947      -27.5336744930       68.4393551168  TIP3      6517            0.0000000000
     41802      6709  TIP3      H1              7.6391494029      -27.4261647558       67.6319557139  TIP3      6517            0.0000000000
     41803      6709  TIP3      H2              7.4824223326      -26.8609068567       69.0434610819  TIP3      6517            0.0000000000
     41804      6710  TIP3      OH2            13.5131236163      -21.9535338389       69.1388994339  TIP3      6518            0.0000000000
     41805      6710  TIP3      H1             13.2190208443      -21.3142698812       69.7937825713  TIP3      6518            0.0000000000
     41806      6710  TIP3      H2             13.2526001398      -22.8046987520       69.5619300085  TIP3      6518            0.0000000000
     41807      6711  TIP3      OH2             8.0456065064      -23.0935709941       73.1274978396  TIP3      6519            0.0000000000
     41808      6711  TIP3      H1              7.6299417634      -22.3554282509       73.6189638042  TIP3      6519            0.0000000000
     41809      6711  TIP3      H2              7.3718954784      -23.2934146526       72.4311111009  TIP3      6519            0.0000000000
     41810      6712  TIP3      OH2            14.0288070822      -27.7275781410       60.5176022114  TIP3      6520            0.0000000000
     41811      6712  TIP3      H1             14.5846801718      -27.5537842995       61.3179778114  TIP3      6520            0.0000000000
     41812      6712  TIP3      H2             14.4802834658      -27.2335009116       59.7964544953  TIP3      6520            0.0000000000
     41813      6713  TIP3      OH2             4.9946485039      -26.9347079562       72.2761435848  TIP3      6521            0.0000000000
     41814      6713  TIP3      H1              5.0405921195      -26.2672980356       72.9875642687  TIP3      6521            0.0000000000
     41815      6713  TIP3      H2              4.0492911845      -26.8660551215       72.0779195821  TIP3      6521            0.0000000000
     41816      6714  TIP3      OH2            11.7406458224      -21.0055365006       63.9916254862  TIP3      6522            0.0000000000
     41817      6714  TIP3      H1             12.1709144727      -20.6981237268       64.7970843972  TIP3      6522            0.0000000000
     41818      6714  TIP3      H2             11.1823742014      -20.2572658059       63.7514842696  TIP3      6522            0.0000000000
     41819      6715  TIP3      OH2             6.2916868241      -21.0587948964       73.8739309570  TIP3      6523            0.0000000000
     41820      6715  TIP3      H1              6.2290326345      -21.1582785455       72.9086346104  TIP3      6523            0.0000000000
     41821      6715  TIP3      H2              5.3622369278      -21.1929732473       74.1435157955  TIP3      6523            0.0000000000
     41822      6716  TIP3      OH2            17.7619855485      -35.8103041418       60.3037712143  TIP3      6524            0.0000000000
     41823      6716  TIP3      H1             16.8263150306      -35.7987682471       60.5587006221  TIP3      6524            0.0000000000
     41824      6716  TIP3      H2             17.9472500691      -34.9575217630       59.8854079563  TIP3      6524            0.0000000000
     41825      6717  TIP3      OH2             5.7225051604      -27.2527533688       62.4016540268  TIP3      6525            0.0000000000
     41826      6717  TIP3      H1              5.4442543186      -26.4677745417       61.8815064186  TIP3      6525            0.0000000000
     41827      6717  TIP3      H2              5.0757111580      -27.9170924385       62.1526400427  TIP3      6525            0.0000000000
     41828      6718  TIP3      OH2            18.8703224623      -21.6515607372       58.7775883013  TIP3      6526            0.0000000000
     41829      6718  TIP3      H1             19.0315324855      -20.7058500945       58.9402914981  TIP3      6526            0.0000000000
     41830      6718  TIP3      H2             19.7943894817      -21.9593428077       58.7683459999  TIP3      6526            0.0000000000
     41831      6719  TIP3      OH2             1.8224754789      -24.8144959639       71.2874185897  TIP3      6527            0.0000000000
     41832      6719  TIP3      H1              1.3769805667      -24.8981790078       70.4236961243  TIP3      6527            0.0000000000
     41833      6719  TIP3      H2              1.9030495291      -25.7639433325       71.5009822582  TIP3      6527            0.0000000000
     41834      6720  TIP3      OH2             1.5803542668      -22.0831502615       68.0604128647  TIP3      6528            0.0000000000
     41835      6720  TIP3      H1              2.5386577099      -22.1988867964       68.0406142502  TIP3      6528            0.0000000000
     41836      6720  TIP3      H2              1.4987151983      -21.2649806174       68.5652653192  TIP3      6528            0.0000000000
     41837      6721  TIP3      OH2            19.8083669878      -21.3825450850       73.7181055159  TIP3      6529            0.0000000000
     41838      6721  TIP3      H1             19.6984781136      -22.3431397149       73.7309903201  TIP3      6529            0.0000000000
     41839      6721  TIP3      H2             18.9573556108      -21.1313255211       74.1534031194  TIP3      6529            0.0000000000
     41840      6722  TIP3      OH2            10.7774248438      -21.8376988794       72.6156067248  TIP3      6530            0.0000000000
     41841      6722  TIP3      H1             10.8351054743      -21.0013617065       73.1370173678  TIP3      6530            0.0000000000
     41842      6722  TIP3      H2              9.9038308895      -22.1949659406       72.8632632199  TIP3      6530            0.0000000000
     41843      6723  TIP3      OH2            11.2201149903      -18.0967768994       62.3942464511  TIP3      6531            0.0000000000
     41844      6723  TIP3      H1             11.0888899021      -18.1716105146       61.4308125167  TIP3      6531            0.0000000000
     41845      6723  TIP3      H2             11.2241788198      -17.1358811890       62.5581999633  TIP3      6531            0.0000000000
     41846      6724  TIP3      OH2             4.8489606683      -19.2188390788       64.2590425620  TIP3      6532            0.0000000000
     41847      6724  TIP3      H1              5.0021756640      -19.6483268936       65.1273496831  TIP3      6532            0.0000000000
     41848      6724  TIP3      H2              4.0093861517      -19.6341382417       63.9966447243  TIP3      6532            0.0000000000
     41849      6725  TIP3      OH2            14.2786212139      -18.8831338428       59.3846813956  TIP3      6533            0.0000000000
     41850      6725  TIP3      H1             14.7303777261      -19.6422160667       58.9520737569  TIP3      6533            0.0000000000
     41851      6725  TIP3      H2             14.3120648384      -19.1451337563       60.3283480223  TIP3      6533            0.0000000000
     41852      6726  TIP3      OH2            13.9753014123      -18.9468073892       62.1634289109  TIP3      6534            0.0000000000
     41853      6726  TIP3      H1             13.0118382100      -18.8726040088       62.3285082023  TIP3      6534            0.0000000000
     41854      6726  TIP3      H2             14.2048902022      -19.6921369732       62.7390759049  TIP3      6534            0.0000000000
     41855      6727  TIP3      OH2            16.9931908200      -29.9392999986       74.1827019675  TIP3      6535            0.0000000000
     41856      6727  TIP3      H1             16.4918684010      -29.4676172834       73.4986705762  TIP3      6535            0.0000000000
     41857      6727  TIP3      H2             16.9285237898      -30.8563902977       73.8933350027  TIP3      6535            0.0000000000
     41858      6728  TIP3      OH2             4.1077406796      -23.5034856734       72.2262369571  TIP3      6536            0.0000000000
     41859      6728  TIP3      H1              4.3286901628      -23.8697118093       73.1092066702  TIP3      6536            0.0000000000
     41860      6728  TIP3      H2              3.2385683717      -23.9007890079       72.0116105765  TIP3      6536            0.0000000000
     41861      6729  TIP3      OH2             6.7704316886      -35.0594221660       68.2280638798  TIP3      6537            0.0000000000
     41862      6729  TIP3      H1              5.8879172638      -35.1312686401       67.8120907257  TIP3      6537            0.0000000000
     41863      6729  TIP3      H2              6.6429146244      -34.1953167206       68.6402899093  TIP3      6537            0.0000000000
     41864      6730  TIP3      OH2            11.3928799665      -35.2841261758       71.6101688550  TIP3      6538            0.0000000000
     41865      6730  TIP3      H1             11.8396515170      -35.7724341928       72.3064952649  TIP3      6538            0.0000000000
     41866      6730  TIP3      H2             10.4531419930      -35.4935114542       71.7350863545  TIP3      6538            0.0000000000
     41867      6731  TIP3      OH2            14.6963879971      -31.5696418122       72.4246720443  TIP3      6539            0.0000000000
     41868      6731  TIP3      H1             14.1550385624      -31.7102867491       73.2343992181  TIP3      6539            0.0000000000
     41869      6731  TIP3      H2             14.5875769943      -30.6260902014       72.2098726115  TIP3      6539            0.0000000000
     41870      6732  TIP3      OH2            15.4821587357      -26.7031301929       58.3394443542  TIP3      6540            0.0000000000
     41871      6732  TIP3      H1             15.4551298406      -26.8855152437       57.3720721769  TIP3      6540            0.0000000000
     41872      6732  TIP3      H2             16.3358703877      -26.2493327337       58.3839716775  TIP3      6540            0.0000000000
     41873      6733  TIP3      OH2            11.0754811776      -32.7844272918       58.8578175267  TIP3      6541            0.0000000000
     41874      6733  TIP3      H1             10.7489110948      -32.8557266096       59.7668067676  TIP3      6541            0.0000000000
     41875      6733  TIP3      H2             10.7550138452      -33.6522997969       58.5430165931  TIP3      6541            0.0000000000
     41876      6734  TIP3      OH2             6.9064787953      -30.0472068464       69.4664274829  TIP3      6542            0.0000000000
     41877      6734  TIP3      H1              6.1199742702      -30.0591897599       70.0449379307  TIP3      6542            0.0000000000
     41878      6734  TIP3      H2              6.8376686778      -29.1566006629       69.0448720879  TIP3      6542            0.0000000000
     41879      6735  TIP3      OH2             6.8534809181      -29.9391035149       64.2879105932  TIP3      6543            0.0000000000
     41880      6735  TIP3      H1              5.9111593362      -30.1797022559       64.1590930593  TIP3      6543            0.0000000000
     41881      6735  TIP3      H2              7.2263360688      -30.2302170193       63.4318154577  TIP3      6543            0.0000000000
     41882      6736  TIP3      OH2            12.3728159078      -29.4285024307       63.0644730393  TIP3      6544            0.0000000000
     41883      6736  TIP3      H1             11.9770068350      -28.6073079507       62.6938046585  TIP3      6544            0.0000000000
     41884      6736  TIP3      H2             13.0589163117      -29.6009217820       62.3996044827  TIP3      6544            0.0000000000
     41885      6737  TIP3      OH2            11.4219992629      -29.2383912409       74.4578908773  TIP3      6545            0.0000000000
     41886      6737  TIP3      H1             10.9143786445      -29.9929341606       74.8340250715  TIP3      6545            0.0000000000
     41887      6737  TIP3      H2             12.2613368695      -29.3114203081       74.9511515142  TIP3      6545            0.0000000000
     41888      6738  TIP3      OH2            13.4116151760      -29.9423091843       65.9059803926  TIP3      6546            0.0000000000
     41889      6738  TIP3      H1             13.1189249628      -29.3827265340       65.1682485787  TIP3      6546            0.0000000000
     41890      6738  TIP3      H2             13.4930877671      -30.7914779601       65.4400200963  TIP3      6546            0.0000000000
     41891      6739  TIP3      OH2             4.5369079013      -29.8247547218       71.1137598673  TIP3      6547            0.0000000000
     41892      6739  TIP3      H1              4.5673943208      -29.3846183354       71.9801234865  TIP3      6547            0.0000000000
     41893      6739  TIP3      H2              4.0369223050      -30.6292323634       71.3157630204  TIP3      6547            0.0000000000
     41894      6740  TIP3      OH2             7.8784836056      -32.3881905853       57.9753456518  TIP3      6548            0.0000000000
     41895      6740  TIP3      H1              7.4147387686      -32.8284106708       58.7132223381  TIP3      6548            0.0000000000
     41896      6740  TIP3      H2              7.1724805905      -31.9962030477       57.4476612399  TIP3      6548            0.0000000000
     41897      6741  TIP3      OH2             1.1740763613      -32.6634349226       65.0734951122  TIP3      6549            0.0000000000
     41898      6741  TIP3      H1              1.8503272988      -32.6980932198       65.7835280941  TIP3      6549            0.0000000000
     41899      6741  TIP3      H2              1.6240044926      -33.0576175607       64.3080959307  TIP3      6549            0.0000000000
     41900      6742  TIP3      OH2             2.4354576233      -31.9581858755       60.4746899520  TIP3      6550            0.0000000000
     41901      6742  TIP3      H1              2.9472948272      -31.3736389280       59.8835568921  TIP3      6550            0.0000000000
     41902      6742  TIP3      H2              1.7413721268      -31.3358353026       60.7667658526  TIP3      6550            0.0000000000
     41903      6743  TIP3      OH2            12.5734234143      -28.3623105920       70.4493636891  TIP3      6551            0.0000000000
     41904      6743  TIP3      H1             12.9918063242      -29.0352467792       69.8684406637  TIP3      6551            0.0000000000
     41905      6743  TIP3      H2             12.1486728198      -28.8882502450       71.1404027410  TIP3      6551            0.0000000000
     41906      6744  TIP3      OH2             9.3971579010      -32.3908890267       65.2802481444  TIP3      6552            0.0000000000
     41907      6744  TIP3      H1              8.4635209030      -32.3890844687       65.5956640579  TIP3      6552            0.0000000000
     41908      6744  TIP3      H2              9.8971431879      -32.5408076613       66.1017218825  TIP3      6552            0.0000000000
     41909      6745  TIP3      OH2             4.2155666594      -30.8325537161       64.1646481039  TIP3      6553            0.0000000000
     41910      6745  TIP3      H1              3.3301947344      -30.6832106338       63.7727609082  TIP3      6553            0.0000000000
     41911      6745  TIP3      H2              4.5116764567      -31.6614128438       63.7505021430  TIP3      6553            0.0000000000
     41912      6746  TIP3      OH2             7.8592188242      -30.7900994197       61.7898057978  TIP3      6554            0.0000000000
     41913      6746  TIP3      H1              8.8146822895      -30.6828755551       61.9522774265  TIP3      6554            0.0000000000
     41914      6746  TIP3      H2              7.6206540151      -30.0972142275       61.1437690511  TIP3      6554            0.0000000000
     41915      6747  TIP3      OH2            13.8187918625      -33.1725643292       68.5266895675  TIP3      6555            0.0000000000
     41916      6747  TIP3      H1             13.1310905926      -33.0956234261       69.2148413447  TIP3      6555            0.0000000000
     41917      6747  TIP3      H2             13.3031405246      -33.4358685185       67.7530770239  TIP3      6555            0.0000000000
     41918      6748  TIP3      OH2             6.5620353530      -29.6092572580       59.3793600639  TIP3      6556            0.0000000000
     41919      6748  TIP3      H1              6.0292656998      -29.9881204028       58.6597944675  TIP3      6556            0.0000000000
     41920      6748  TIP3      H2              7.3836829428      -29.4037636297       58.9066056667  TIP3      6556            0.0000000000
     41921      6749  TIP3      OH2            17.0018686213      -17.5071833841       74.8994339499  TIP3      6557            0.0000000000
     41922      6749  TIP3      H1             17.2789593838      -17.1432104972       74.0378342752  TIP3      6557            0.0000000000
     41923      6749  TIP3      H2             17.7384528554      -17.2044786824       75.4554610229  TIP3      6557            0.0000000000
     41924      6750  TIP3      OH2             4.6983466189      -25.0485213663       74.4478612042  TIP3      6558            0.0000000000
     41925      6750  TIP3      H1              5.4020451992      -24.7925786447       75.0655806562  TIP3      6558            0.0000000000
     41926      6750  TIP3      H2              3.9148357479      -24.9601191785       75.0327069865  TIP3      6558            0.0000000000
     41927      6751  TIP3      OH2            10.6892309167      -29.6339605555       67.1937086965  TIP3      6559            0.0000000000
     41928      6751  TIP3      H1             11.2865102518      -30.1714407642       66.6580127909  TIP3      6559            0.0000000000
     41929      6751  TIP3      H2             10.5459365733      -30.1818749133       67.9663849560  TIP3      6559            0.0000000000
     41930      6752  TIP3      OH2             5.6838237610      -33.4534819116       63.6313818513  TIP3      6560            0.0000000000
     41931      6752  TIP3      H1              5.3686907047      -34.3729609255       63.6497290305  TIP3      6560            0.0000000000
     41932      6752  TIP3      H2              6.4623856510      -33.5397016762       63.0694061151  TIP3      6560            0.0000000000
     41933      6753  TIP3      OH2             9.3012167625      -31.3099374587       69.6889223297  TIP3      6561            0.0000000000
     41934      6753  TIP3      H1              8.4984001028      -30.7383027034       69.6542125276  TIP3      6561            0.0000000000
     41935      6753  TIP3      H2              9.9237533611      -30.8527259412       70.2707213739  TIP3      6561            0.0000000000
     41936      6754  TIP3      OH2             9.9145957046      -25.0775055208       61.3014682303  TIP3      6562            0.0000000000
     41937      6754  TIP3      H1              9.1141723619      -25.5427902559       60.9659922356  TIP3      6562            0.0000000000
     41938      6754  TIP3      H2              9.6859336306      -24.9507855310       62.2449565195  TIP3      6562            0.0000000000
     41939      6755  TIP3      OH2            17.1018532244      -25.8747707753       70.1048137256  TIP3      6563            0.0000000000
     41940      6755  TIP3      H1             17.6637050024      -25.3915260917       69.4718792981  TIP3      6563            0.0000000000
     41941      6755  TIP3      H2             16.2411663797      -25.8300966798       69.6410428600  TIP3      6563            0.0000000000
     41942      6756  TIP3      OH2            13.7281891534      -32.2527215899       59.4915542870  TIP3      6564            0.0000000000
     41943      6756  TIP3      H1             12.7795754588      -32.0998375885       59.3325577824  TIP3      6564            0.0000000000
     41944      6756  TIP3      H2             14.0791708109      -31.4034318306       59.8302652192  TIP3      6564            0.0000000000
     41945      6757  TIP3      OH2            11.4040952786      -24.8122775538       72.5409369703  TIP3      6565            0.0000000000
     41946      6757  TIP3      H1             11.0521560982      -25.2358266954       73.3306741623  TIP3      6565            0.0000000000
     41947      6757  TIP3      H2             11.1510075100      -23.8871255138       72.6507735977  TIP3      6565            0.0000000000
     41948      6758  TIP3      OH2            14.4901018866      -30.3525127160       61.0980079481  TIP3      6566            0.0000000000
     41949      6758  TIP3      H1             15.3731744011      -30.4968881189       61.5039933680  TIP3      6566            0.0000000000
     41950      6758  TIP3      H2             14.5885485015      -29.5210776626       60.6002775420  TIP3      6566            0.0000000000
     41951      6759  TIP3      OH2             5.0270626938      -25.6793028180       67.1028845136  TIP3      6567            0.0000000000
     41952      6759  TIP3      H1              5.7031856104      -25.7654724682       66.4024278866  TIP3      6567            0.0000000000
     41953      6759  TIP3      H2              5.0834521186      -26.5390371814       67.5571037351  TIP3      6567            0.0000000000
     41954      6760  TIP3      OH2            12.0059204261      -23.6089303734       60.3319660612  TIP3      6568            0.0000000000
     41955      6760  TIP3      H1             11.6631647560      -22.7641256992       60.6903989873  TIP3      6568            0.0000000000
     41956      6760  TIP3      H2             11.2732080481      -24.2253573543       60.5504800984  TIP3      6568            0.0000000000
     41957      6761  TIP3      OH2             2.0122466214      -27.2797446786       72.3658952547  TIP3      6569            0.0000000000
     41958      6761  TIP3      H1              2.1778854096      -27.7224959840       73.2199901968  TIP3      6569            0.0000000000
     41959      6761  TIP3      H2              1.3924770321      -27.8890622187       71.9234126006  TIP3      6569            0.0000000000
     41960      6762  TIP3      OH2             9.0164862321      -27.7502918526       74.5643362590  TIP3      6570            0.0000000000
     41961      6762  TIP3      H1              8.7083672482      -27.9954355804       73.6808022630  TIP3      6570            0.0000000000
     41962      6762  TIP3      H2              9.9577298823      -28.0132881415       74.5410853661  TIP3      6570            0.0000000000
     41963      6763  TIP3      OH2            13.7110554489      -22.3859663985       72.4907596222  TIP3      6571            0.0000000000
     41964      6763  TIP3      H1             12.7855983548      -22.2046989277       72.2598054066  TIP3      6571            0.0000000000
     41965      6763  TIP3      H2             13.6790776564      -22.0944657841       73.4227672174  TIP3      6571            0.0000000000
     41966      6764  TIP3      OH2            19.3910468613      -30.1942999087       60.8788116488  TIP3      6572            0.0000000000
     41967      6764  TIP3      H1             18.8183563940      -30.4871956669       60.1444396791  TIP3      6572            0.0000000000
     41968      6764  TIP3      H2             19.4598694329      -29.2459547661       60.6248707291  TIP3      6572            0.0000000000
     41969      6765  TIP3      OH2            19.3692469227      -24.3481863850       73.6832980481  TIP3      6573            0.0000000000
     41970      6765  TIP3      H1             18.4764665394      -24.1211947241       73.3230978544  TIP3      6573            0.0000000000
     41971      6765  TIP3      H2             19.9125999020      -24.3934126818       72.8701248543  TIP3      6573            0.0000000000
     41972      6766  TIP3      OH2            17.6329586505      -21.3759327590       61.2738976724  TIP3      6574            0.0000000000
     41973      6766  TIP3      H1             17.3033942693      -22.2134735930       61.6239456655  TIP3      6574            0.0000000000
     41974      6766  TIP3      H2             17.9900009855      -21.5954498683       60.3974026209  TIP3      6574            0.0000000000
     41975      6767  TIP3      OH2            14.8792789052      -26.5600510687       68.3874716205  TIP3      6575            0.0000000000
     41976      6767  TIP3      H1             13.9387865193      -26.7612000117       68.2623818568  TIP3      6575            0.0000000000
     41977      6767  TIP3      H2             15.3101708006      -27.3178865577       67.9495146905  TIP3      6575            0.0000000000
     41978      6768  TIP3      OH2             7.4001009430      -22.2279309405       64.4865256934  TIP3      6576            0.0000000000
     41979      6768  TIP3      H1              7.8953362021      -21.4183157965       64.2817560191  TIP3      6576            0.0000000000
     41980      6768  TIP3      H2              6.5202865770      -21.9972533806       64.1573695380  TIP3      6576            0.0000000000
     41981      6769  TIP3      OH2             3.1649342940      -27.4072284116       59.0768795543  TIP3      6577            0.0000000000
     41982      6769  TIP3      H1              3.7441080071      -26.7276150823       59.4659205058  TIP3      6577            0.0000000000
     41983      6769  TIP3      H2              2.2763222974      -27.0660432793       59.2941470704  TIP3      6577            0.0000000000
     41984      6770  TIP3      OH2             8.8053743771      -24.5590578555       63.9943342423  TIP3      6578            0.0000000000
     41985      6770  TIP3      H1              8.4951942879      -23.6403940610       64.0967794960  TIP3      6578            0.0000000000
     41986      6770  TIP3      H2              8.0919341854      -25.0542567839       64.4428676014  TIP3      6578            0.0000000000
     41987      6771  TIP3      OH2             9.2610417400      -20.3781559081       70.4160675896  TIP3      6579            0.0000000000
     41988      6771  TIP3      H1              9.7215987009      -19.5736831733       70.1284090161  TIP3      6579            0.0000000000
     41989      6771  TIP3      H2              9.8861400593      -20.7245192053       71.0783801407  TIP3      6579            0.0000000000
     41990      6772  TIP3      OH2             7.4899006929      -19.5967140501       63.5683066880  TIP3      6580            0.0000000000
     41991      6772  TIP3      H1              6.5245054201      -19.4431314067       63.6573420028  TIP3      6580            0.0000000000
     41992      6772  TIP3      H2              7.8447358878      -18.7306975735       63.8485345219  TIP3      6580            0.0000000000
     41993      6773  TIP3      OH2            12.7788361978      -24.3862068430       70.0308818237  TIP3      6581            0.0000000000
     41994      6773  TIP3      H1             12.4606087144      -24.5760789596       70.9384280123  TIP3      6581            0.0000000000
     41995      6773  TIP3      H2             13.4246171001      -25.0917509315       69.8651828660  TIP3      6581            0.0000000000
     41996      6774  TIP3      OH2            15.1259169868      -23.3033078429       59.1212012381  TIP3      6582            0.0000000000
     41997      6774  TIP3      H1             15.4202719257      -23.7782376429       59.9252115365  TIP3      6582            0.0000000000
     41998      6774  TIP3      H2             14.1726206958      -23.4888936449       59.2022845465  TIP3      6582            0.0000000000
     41999      6775  TIP3      OH2            15.6080446259      -19.8001475848       72.5204424354  TIP3      6583            0.0000000000
     42000      6775  TIP3      H1             14.9127761065      -20.2926426746       72.0434645946  TIP3      6583            0.0000000000
     42001      6775  TIP3      H2             15.7865490670      -19.0991440961       71.8586971103  TIP3      6583            0.0000000000
     42002      6776  TIP3      OH2            19.5870114216      -18.9533040297       59.3767667802  TIP3      6584            0.0000000000
     42003      6776  TIP3      H1             20.2749801314      -18.2884592134       59.1715273966  TIP3      6584            0.0000000000
     42004      6776  TIP3      H2             18.8724214243      -18.3418006074       59.6626574094  TIP3      6584            0.0000000000
     42005      6777  TIP3      OH2             3.6786856451      -32.5661560523       71.9365953240  TIP3      6585            0.0000000000
     42006      6777  TIP3      H1              2.7726232847      -32.2047150338       71.8911567964  TIP3      6585            0.0000000000
     42007      6777  TIP3      H2              3.5235708697      -33.4343787004       72.3471177890  TIP3      6585            0.0000000000
     42008      6778  TIP3      OH2            15.8991243383      -24.6711519421       61.3642391414  TIP3      6586            0.0000000000
     42009      6778  TIP3      H1             15.6617490730      -25.4582921334       61.9010271514  TIP3      6586            0.0000000000
     42010      6778  TIP3      H2             16.8519995346      -24.6276188279       61.5410733062  TIP3      6586            0.0000000000
     42011      6779  TIP3      OH2             3.2750589227      -20.7629762052       70.3386323640  TIP3      6587            0.0000000000
     42012      6779  TIP3      H1              3.5809723171      -21.6826113340       70.3457927185  TIP3      6587            0.0000000000
     42013      6779  TIP3      H2              3.5385221917      -20.4705695446       71.2184727169  TIP3      6587            0.0000000000
     42014      6780  TIP3      OH2             9.2185375086      -22.2338194146       57.5970336287  TIP3      6588            0.0000000000
     42015      6780  TIP3      H1              9.3595015045      -23.0233620132       57.0431798426  TIP3      6588            0.0000000000
     42016      6780  TIP3      H2              8.8191306718      -22.6677806910       58.3865571391  TIP3      6588            0.0000000000
     42017      6781  TIP3      OH2             8.0282188712      -22.6948460734       60.0645164161  TIP3      6589            0.0000000000
     42018      6781  TIP3      H1              8.2925945374      -23.2086395318       60.8390448877  TIP3      6589            0.0000000000
     42019      6781  TIP3      H2              8.0981413683      -21.7607218808       60.3789297820  TIP3      6589            0.0000000000
     42020      6782  TIP3      OH2             4.5742341778      -25.4566122823       60.5589358183  TIP3      6590            0.0000000000
     42021      6782  TIP3      H1              3.8476579883      -25.0549618742       61.0743712538  TIP3      6590            0.0000000000
     42022      6782  TIP3      H2              5.0682540083      -24.6691367121       60.2552054044  TIP3      6590            0.0000000000
     42023      6783  TIP3      OH2            12.3428460612      -32.7572326242       70.9256169630  TIP3      6591            0.0000000000
     42024      6783  TIP3      H1             13.1444887765      -32.7237280519       71.4722326735  TIP3      6591            0.0000000000
     42025      6783  TIP3      H2             12.0728584133      -33.6915028890       71.0270401300  TIP3      6591            0.0000000000
     42026      6784  TIP3      OH2            13.2215782651      -33.2423619015       61.9754439526  TIP3      6592            0.0000000000
     42027      6784  TIP3      H1             13.3478690119      -32.7428822842       61.1371124900  TIP3      6592            0.0000000000
     42028      6784  TIP3      H2             13.6909561443      -32.6758977469       62.6066869509  TIP3      6592            0.0000000000
     42029      6785  TIP3      OH2            10.8201905513      -21.0382671942       60.7633560237  TIP3      6593            0.0000000000
     42030      6785  TIP3      H1             10.0002933056      -20.5002483572       60.8230270487  TIP3      6593            0.0000000000
     42031      6785  TIP3      H2             11.3663059881      -20.4900143284       60.1811655063  TIP3      6593            0.0000000000
     42032      6786  TIP3      OH2            10.3875803510      -31.4825437942       62.7821441582  TIP3      6594            0.0000000000
     42033      6786  TIP3      H1             11.1470118794      -30.8690814418       62.8209134794  TIP3      6594            0.0000000000
     42034      6786  TIP3      H2             10.1191562127      -31.5681186322       63.7152575567  TIP3      6594            0.0000000000
     42035      6787  TIP3      OH2            10.9054790633      -30.4839135544       72.0233282728  TIP3      6595            0.0000000000
     42036      6787  TIP3      H1             11.0652550391      -29.8256936775       72.7414854923  TIP3      6595            0.0000000000
     42037      6787  TIP3      H2             11.6874528575      -31.0677993800       72.0387924527  TIP3      6595            0.0000000000
     42038      6788  TIP3      OH2            11.2429754673      -34.3867018304       63.7082328610  TIP3      6596            0.0000000000
     42039      6788  TIP3      H1             10.8945640307      -33.7160169893       64.3194563950  TIP3      6596            0.0000000000
     42040      6788  TIP3      H2             11.9027434122      -33.8412602359       63.2217330311  TIP3      6596            0.0000000000
     42041      6789  TIP3      OH2             8.2457963006      -20.0192936384       60.7870967617  TIP3      6597            0.0000000000
     42042      6789  TIP3      H1              8.3131681220      -19.1979080522       60.2357620425  TIP3      6597            0.0000000000
     42043      6789  TIP3      H2              7.9392854467      -19.6352941327       61.6342761355  TIP3      6597            0.0000000000
     42044      6790  TIP3      OH2             6.8602691011      -33.2984769177       60.3593613301  TIP3      6598            0.0000000000
     42045      6790  TIP3      H1              6.8063488027      -32.4035916243       60.7491103356  TIP3      6598            0.0000000000
     42046      6790  TIP3      H2              7.7838317377      -33.4992336710       60.6104113686  TIP3      6598            0.0000000000
     42047      6791  TIP3      OH2            17.1054694749      -32.5571595724       72.8379684943  TIP3      6599            0.0000000000
     42048      6791  TIP3      H1             16.1761216352      -32.2360676959       72.6963166438  TIP3      6599            0.0000000000
     42049      6791  TIP3      H2             17.3903779594      -32.5813820206       71.9007555479  TIP3      6599            0.0000000000
     42050      6792  TIP3      OH2            15.7158956417      -28.7674259150       66.8190579446  TIP3      6600            0.0000000000
     42051      6792  TIP3      H1             14.8900636177      -29.2123360922       66.5477579552  TIP3      6600            0.0000000000
     42052      6792  TIP3      H2             16.1976164305      -29.4524357726       67.3377179176  TIP3      6600            0.0000000000
     42053      6793  TIP3      OH2             5.1336070324      -22.9089133000       59.4653348999  TIP3      6601            0.0000000000
     42054      6793  TIP3      H1              5.7558934017      -22.2014590112       59.7103702621  TIP3      6601            0.0000000000
     42055      6793  TIP3      H2              5.6138939219      -23.2927825738       58.7052781218  TIP3      6601            0.0000000000
     42056      6794  TIP3      OH2             3.4468800439      -30.1607652566       58.5682673325  TIP3      6602            0.0000000000
     42057      6794  TIP3      H1              3.4672914342      -29.2023942223       58.7692382175  TIP3      6602            0.0000000000
     42058      6794  TIP3      H2              2.5604393450      -30.3395145218       58.2513393919  TIP3      6602            0.0000000000
     42059      6795  TIP3      OH2            16.7822898103      -19.5155657380       68.4939230572  TIP3      6603            0.0000000000
     42060      6795  TIP3      H1             16.6908541005      -18.8303944687       67.8020929856  TIP3      6603            0.0000000000
     42061      6795  TIP3      H2             17.7442652455      -19.4562368238       68.6750496006  TIP3      6603            0.0000000000
     42062      6796  TIP3      OH2             4.0325933146      -35.2249039834       67.3572281988  TIP3      6604            0.0000000000
     42063      6796  TIP3      H1              4.0904704160      -35.3260081670       66.3784673540  TIP3      6604            0.0000000000
     42064      6796  TIP3      H2              3.8846396776      -36.1485871933       67.5817126277  TIP3      6604            0.0000000000
     42065      6797  TIP3      OH2             3.2337858439      -21.4591219931       63.4491169991  TIP3      6605            0.0000000000
     42066      6797  TIP3      H1              2.3746887845      -21.0225461833       63.3992770301  TIP3      6605            0.0000000000
     42067      6797  TIP3      H2              3.7010802180      -20.9928664398       62.7399021505  TIP3      6605            0.0000000000
     42068      6798  TIP3      OH2             2.4201859581      -18.8068711751       74.7367050045  TIP3      6606            0.0000000000
     42069      6798  TIP3      H1              3.0265902139      -19.0081609441       75.4792005374  TIP3      6606            0.0000000000
     42070      6798  TIP3      H2              2.0173728802      -19.6746552870       74.5618312684  TIP3      6606            0.0000000000
     42071      6799  TIP3      OH2             7.0886773759      -19.9448302645       76.3622518013  TIP3      6607            0.0000000000
     42072      6799  TIP3      H1              7.8817166231      -20.4024184727       76.6673295352  TIP3      6607            0.0000000000
     42073      6799  TIP3      H2              7.0794491694      -20.1798219266       75.4134615542  TIP3      6607            0.0000000000
     42074      6800  TIP3      OH2            11.2203025547      -20.3754274253       57.7096997540  TIP3      6608            0.0000000000
     42075      6800  TIP3      H1             10.5674109830      -21.0509859264       57.9946191884  TIP3      6608            0.0000000000
     42076      6800  TIP3      H2             11.9693599522      -20.9637594186       57.5133844805  TIP3      6608            0.0000000000
     42077      6801  TIP3      OH2            13.6055296488      -21.5148407415       75.0619627874  TIP3      6609            0.0000000000
     42078      6801  TIP3      H1             13.2890645712      -22.3935623724       75.3591745964  TIP3      6609            0.0000000000
     42079      6801  TIP3      H2             14.3882302263      -21.3900177281       75.6326491807  TIP3      6609            0.0000000000
     42080      6802  TIP3      OH2            15.8039860605      -20.6387562099       57.9288593677  TIP3      6610            0.0000000000
     42081      6802  TIP3      H1             16.0998418096      -21.4151559930       58.4310816287  TIP3      6610            0.0000000000
     42082      6802  TIP3      H2             16.5668657474      -20.4174320289       57.3757852198  TIP3      6610            0.0000000000
     42083      6803  TIP3      OH2             2.3301231997      -25.0661706304       75.7141762498  TIP3      6611            0.0000000000
     42084      6803  TIP3      H1              2.5141314751      -25.9675496625       75.3923172754  TIP3      6611            0.0000000000
     42085      6803  TIP3      H2              1.6055032077      -24.7902484041       75.1276888332  TIP3      6611            0.0000000000
     42086      6804  TIP3      OH2             6.6945690509      -24.6915094975       57.7487119832  TIP3      6612            0.0000000000
     42087      6804  TIP3      H1              6.8290502851      -25.4578643347       58.3284284142  TIP3      6612            0.0000000000
     42088      6804  TIP3      H2              7.4380589930      -24.8111281359       57.1278228777  TIP3      6612            0.0000000000
     42089      6805  TIP3      OH2             9.0555626547      -25.0698550262       75.1087833327  TIP3      6613            0.0000000000
     42090      6805  TIP3      H1              8.7257251204      -24.7421683150       74.2503628978  TIP3      6613            0.0000000000
     42091      6805  TIP3      H2              9.1255113222      -26.0444728618       74.9951910640  TIP3      6613            0.0000000000
     42092      6806  TIP3      OH2            12.1199051803      -23.5873578567       57.5242529183  TIP3      6614            0.0000000000
     42093      6806  TIP3      H1             11.8377329563      -23.4991809822       58.4483112720  TIP3      6614            0.0000000000
     42094      6806  TIP3      H2             11.9329557382      -24.5461367065       57.3809781882  TIP3      6614            0.0000000000
     42095      6807  TIP3      OH2            14.7481977600      -25.2026117216       72.5042311484  TIP3      6615            0.0000000000
     42096      6807  TIP3      H1             15.5377831590      -24.6198861023       72.4437050974  TIP3      6615            0.0000000000
     42097      6807  TIP3      H2             14.0545914680      -24.5274346903       72.5442364024  TIP3      6615            0.0000000000
     42098      6808  TIP3      OH2             3.2420922586      -27.8152758369       75.1056284798  TIP3      6616            0.0000000000
     42099      6808  TIP3      H1              3.6750600468      -28.6701535767       75.0121463425  TIP3      6616            0.0000000000
     42100      6808  TIP3      H2              3.0364572144      -27.8011660435       76.0598352067  TIP3      6616            0.0000000000
     42101      6809  TIP3      OH2             7.8983985840      -26.6789972006       60.1810958502  TIP3      6617            0.0000000000
     42102      6809  TIP3      H1              7.3895508655      -27.2191958851       60.8039507150  TIP3      6617            0.0000000000
     42103      6809  TIP3      H2              8.1916022149      -27.3515054373       59.5218510551  TIP3      6617            0.0000000000
     42104      6810  TIP3      OH2             7.1821992544      -28.8995217141       72.4522488936  TIP3      6618            0.0000000000
     42105      6810  TIP3      H1              6.5756327901      -28.1811929711       72.7224910269  TIP3      6618            0.0000000000
     42106      6810  TIP3      H2              7.5457437228      -28.4890753173       71.6458587268  TIP3      6618            0.0000000000
     42107      6811  TIP3      OH2             8.9706691113      -28.4563074802       58.3741013617  TIP3      6619            0.0000000000
     42108      6811  TIP3      H1              8.8198912271      -28.5473266569       57.4106262887  TIP3      6619            0.0000000000
     42109      6811  TIP3      H2              9.9467322291      -28.4056587801       58.4396506246  TIP3      6619            0.0000000000
     42110      6812  TIP3      OH2            12.2256442216      -26.2919698769       75.8399262416  TIP3      6620            0.0000000000
     42111      6812  TIP3      H1             13.1780951575      -26.3214716236       75.6651912038  TIP3      6620            0.0000000000
     42112      6812  TIP3      H2             12.0645572263      -27.0726864762       76.3917244790  TIP3      6620            0.0000000000
     42113      6813  TIP3      OH2            18.2881679855      -26.1264081862       57.7896979704  TIP3      6621            0.0000000000
     42114      6813  TIP3      H1             18.1113006983      -26.5174713563       56.9187143433  TIP3      6621            0.0000000000
     42115      6813  TIP3      H2             18.3883214437      -25.1685358204       57.5957728010  TIP3      6621            0.0000000000
     42116      6814  TIP3      OH2             7.5208356547      -31.4281879909       73.5352802722  TIP3      6622            0.0000000000
     42117      6814  TIP3      H1              7.3773377358      -32.1864997142       72.9482607798  TIP3      6622            0.0000000000
     42118      6814  TIP3      H2              7.3480086002      -30.6087419762       73.0058418251  TIP3      6622            0.0000000000
     42119      6815  TIP3      OH2             7.9634556003      -33.0538736543       71.0573472735  TIP3      6623            0.0000000000
     42120      6815  TIP3      H1              8.4411356458      -32.6558151709       70.2813910416  TIP3      6623            0.0000000000
     42121      6815  TIP3      H2              7.0696040636      -33.2240484422       70.6456891800  TIP3      6623            0.0000000000
     42122      6816  TIP3      OH2             9.5037978505      -27.6518883226       71.3101454462  TIP3      6624            0.0000000000
     42123      6816  TIP3      H1             10.2701025561      -27.7658192917       70.7380670450  TIP3      6624            0.0000000000
     42124      6816  TIP3      H2              9.1444220014      -26.7998858733       70.9957814147  TIP3      6624            0.0000000000
     42125      6817  TIP3      OH2            13.8896107017      -29.8928792864       76.2494375265  TIP3      6625            0.0000000000
     42126      6817  TIP3      H1             14.1453468331      -30.8275753191       76.1862830011  TIP3      6625            0.0000000000
     42127      6817  TIP3      H2             14.7498752860      -29.4449098558       76.3064418124  TIP3      6625            0.0000000000
     42128      6818  TIP3      OH2            15.2523588148      -27.0680685395       74.4533114926  TIP3      6626            0.0000000000
     42129      6818  TIP3      H1             14.9942646340      -26.3589209523       73.8226751146  TIP3      6626            0.0000000000
     42130      6818  TIP3      H2             16.2109519606      -27.1075589249       74.2485758514  TIP3      6626            0.0000000000
     42131      6819  TIP3      OH2             6.0328780569      -30.2448533457       75.4728009252  TIP3      6627            0.0000000000
     42132      6819  TIP3      H1              5.2393741099      -30.7942094346       75.2845733768  TIP3      6627            0.0000000000
     42133      6819  TIP3      H2              6.6546902935      -30.5908256528       74.8142753489  TIP3      6627            0.0000000000
     42134      6820  TIP3      OH2             8.6026647154      -35.4619136978       71.7328357734  TIP3      6628            0.0000000000
     42135      6820  TIP3      H1              8.5421335001      -34.5544408679       71.3780156997  TIP3      6628            0.0000000000
     42136      6820  TIP3      H2              8.0390908703      -35.9293745222       71.0954827693  TIP3      6628            0.0000000000
     42137      6821  TIP3      OH2            10.0003856986      -31.3577849872       75.0230347034  TIP3      6629            0.0000000000
     42138      6821  TIP3      H1              9.7944627404      -31.5860035832       75.9614389076  TIP3      6629            0.0000000000
     42139      6821  TIP3      H2              9.1343493073      -31.5422070213       74.6517018534  TIP3      6629            0.0000000000
     42140      6822  TIP3      OH2            12.7311380122      -32.2113170087       74.1588514827  TIP3      6630            0.0000000000
     42141      6822  TIP3      H1             11.7881301371      -32.1692893922       74.3560784995  TIP3      6630            0.0000000000
     42142      6822  TIP3      H2             13.0553233428      -32.8217168426       74.8579120676  TIP3      6630            0.0000000000
     42143      6823  TIP3      OH2            14.2978103118      -33.4674527003       76.1114981519  TIP3      6631            0.0000000000
     42144      6823  TIP3      H1             14.2512722536      -34.4573633887       76.1004578570  TIP3      6631            0.0000000000
     42145      6823  TIP3      H2             14.0415178535      -33.2658461221       77.0336634340  TIP3      6631            0.0000000000
     42146      6824  TIP3      OH2             4.1394210502      -32.3156257871       75.1883170877  TIP3      6632            0.0000000000
     42147      6824  TIP3      H1              4.3423582111      -33.0715892421       74.6126274581  TIP3      6632            0.0000000000
     42148      6824  TIP3      H2              4.0329623037      -32.7651498322       76.0517517895  TIP3      6632            0.0000000000
     42149      6825  TIP3      OH2             8.9874070314       36.7430378258       74.1850738728  TIP3      6633            0.0000000000
     42150      6825  TIP3      H1              9.6256058030       36.0246151527       74.2549907852  TIP3      6633            0.0000000000
     42151      6825  TIP3      H2              8.8526814662       36.8988930187       73.2305748352  TIP3      6633            0.0000000000
     42152      6826  TIP3      OH2             9.3797843013      -34.5986418747       76.1955877150  TIP3      6634            0.0000000000
     42153      6826  TIP3      H1              9.1645021238      -35.2041978597       75.4531828813  TIP3      6634            0.0000000000
     42154      6826  TIP3      H2              8.7166577091      -33.8980501086       76.1870360818  TIP3      6634            0.0000000000
     42155      6827  TIP3      OH2             8.9140444315      -17.8557520672       59.4082538542  TIP3      6635            0.0000000000
     42156      6827  TIP3      H1              9.8419391610      -17.6300072039       59.5264568752  TIP3      6635            0.0000000000
     42157      6827  TIP3      H2              8.6102442857      -17.1608523091       58.7959152617  TIP3      6635            0.0000000000
     42158      6828  TIP3      OH2             2.3706129398      -23.1964377352       58.9386161032  TIP3      6636            0.0000000000
     42159      6828  TIP3      H1              3.3338328467      -23.0742975594       59.0886421246  TIP3      6636            0.0000000000
     42160      6828  TIP3      H2              2.4119393829      -23.7997124615       58.1570964958  TIP3      6636            0.0000000000
     42161      6829  TIP3      OH2             1.1343693299      -17.8008836535       63.8843197864  TIP3      6637            0.0000000000
     42162      6829  TIP3      H1              0.4147594946      -18.2869389462       63.4263257157  TIP3      6637            0.0000000000
     42163      6829  TIP3      H2              1.4230919150      -18.4523217872       64.5529687091  TIP3      6637            0.0000000000
     42164      6830  TIP3      OH2             1.9581510189      -19.6609475353       65.7631024501  TIP3      6638            0.0000000000
     42165      6830  TIP3      H1              1.6074109815      -20.5408390215       65.9613981626  TIP3      6638            0.0000000000
     42166      6830  TIP3      H2              2.1858366354      -19.3319227930       66.6477526134  TIP3      6638            0.0000000000
     42167      6831  TIP3      OH2            19.4987417637      -18.8651088861       68.6919990557  TIP3      6639            0.0000000000
     42168      6831  TIP3      H1             19.5296654813      -18.7052078129       69.6510647072  TIP3      6639            0.0000000000
     42169      6831  TIP3      H2             20.2026570962      -18.2827988145       68.3885397686  TIP3      6639            0.0000000000
     42170      6832  TIP3      OH2            19.0693313247      -19.2698535516       71.6402174763  TIP3      6640            0.0000000000
     42171      6832  TIP3      H1             18.6011035321      -20.0408893638       71.2560073523  TIP3      6640            0.0000000000
     42172      6832  TIP3      H2             19.5585475838      -19.7185135695       72.3502275014  TIP3      6640            0.0000000000
     42173      6833  TIP3      OH2            17.5251376171      -23.5615280340       76.3193880357  TIP3      6641            0.0000000000
     42174      6833  TIP3      H1             16.6164817360      -23.5755335947       76.6828844416  TIP3      6641            0.0000000000
     42175      6833  TIP3      H2             17.8870794020      -22.7615588865       76.7545988092  TIP3      6641            0.0000000000
     42176      6834  TIP3      OH2            18.8310209315      -25.2186832365       61.7384146201  TIP3      6642            0.0000000000
     42177      6834  TIP3      H1             19.6975542291      -24.8270629750       61.9260043777  TIP3      6642            0.0000000000
     42178      6834  TIP3      H2             18.8153712315      -25.9377325174       62.4075451945  TIP3      6642            0.0000000000
     42179      6835  TIP3      OH2            19.1930814915      -27.1433448141       63.6298237581  TIP3      6643            0.0000000000
     42180      6835  TIP3      H1             18.4406676065      -27.6417006933       64.0209077095  TIP3      6643            0.0000000000
     42181      6835  TIP3      H2             19.7897158257      -27.0122590014       64.3926290054  TIP3      6643            0.0000000000
     42182      6836  TIP3      OH2            18.9490830567      -24.4476239561       68.6134875808  TIP3      6644            0.0000000000
     42183      6836  TIP3      H1             19.7618701337      -24.8258429890       68.2327735582  TIP3      6644            0.0000000000
     42184      6836  TIP3      H2             19.0949001654      -23.4941116505       68.4391388234  TIP3      6644            0.0000000000
     42185      6837  TIP3      OH2            17.5088141387      -21.5397976302       70.8774865446  TIP3      6645            0.0000000000
     42186      6837  TIP3      H1             16.8181443251      -21.2016230603       71.4685237491  TIP3      6645            0.0000000000
     42187      6837  TIP3      H2             16.9610865237      -21.9428242867       70.1712752716  TIP3      6645            0.0000000000
     42188      6838  TIP3      OH2            19.4941663137      -27.3202618194       60.0205040375  TIP3      6646            0.0000000000
     42189      6838  TIP3      H1             18.9278784617      -26.9791788106       59.2952796145  TIP3      6646            0.0000000000
     42190      6838  TIP3      H2             19.3919704711      -26.6058370060       60.6766435494  TIP3      6646            0.0000000000
     42191      6839  TIP3      OH2            17.8731426496      -30.0847164350       58.5250893306  TIP3      6647            0.0000000000
     42192      6839  TIP3      H1             17.9439014454      -29.4215297598       57.8318450861  TIP3      6647            0.0000000000
     42193      6839  TIP3      H2             17.6817490239      -30.9092418231       58.0359386985  TIP3      6647            0.0000000000
     42194      6840  TIP3      OH2            17.0122686422      -28.6701404679       64.1981841195  TIP3      6648            0.0000000000
     42195      6840  TIP3      H1             16.8648935191      -29.6249283940       64.1594525527  TIP3      6648            0.0000000000
     42196      6840  TIP3      H2             16.6806510967      -28.4479916137       65.0890956690  TIP3      6648            0.0000000000
     42197      6841  TIP3      OH2             2.0186154486      -26.5841682985       68.2577407119  TIP3      6649            0.0000000000
     42198      6841  TIP3      H1              2.1951814307      -26.6644088403       67.2946788319  TIP3      6649            0.0000000000
     42199      6841  TIP3      H2              2.9122240317      -26.7617760061       68.6098573973  TIP3      6649            0.0000000000
     42200      6842  TIP3      OH2            17.8757079143      -26.7044604455       73.9094408648  TIP3      6650            0.0000000000
     42201      6842  TIP3      H1             18.4890368568      -27.4610263718       74.0131326539  TIP3      6650            0.0000000000
     42202      6842  TIP3      H2             18.4802385461      -25.9304504713       73.8814761030  TIP3      6650            0.0000000000
     42203      6843  TIP3      OH2            19.3638298226      -28.8260630739       74.5630501950  TIP3      6651            0.0000000000
     42204      6843  TIP3      H1             18.4860625685      -29.2141039823       74.3572570160  TIP3      6651            0.0000000000
     42205      6843  TIP3      H2             19.9448161597      -29.5934659468       74.4516046648  TIP3      6651            0.0000000000
     42206      6844  TIP3      OH2            17.1147160481      -32.6120716103       57.6854195214  TIP3      6652            0.0000000000
     42207      6844  TIP3      H1             17.7033333306      -33.0531294665       58.3272665205  TIP3      6652            0.0000000000
     42208      6844  TIP3      H2             16.2538221437      -33.0465344895       57.8234888993  TIP3      6652            0.0000000000
     42209      6845  TIP3      OH2            16.6563312362      -31.0821873921       62.6114499491  TIP3      6653            0.0000000000
     42210      6845  TIP3      H1             16.9916755231      -31.9835442515       62.7607269616  TIP3      6653            0.0000000000
     42211      6845  TIP3      H2             17.4661469645      -30.6521825280       62.3007631595  TIP3      6653            0.0000000000
     42212      6846  TIP3      OH2            17.3172738725      -30.5207216373       68.0914949179  TIP3      6654            0.0000000000
     42213      6846  TIP3      H1             18.2812051207      -30.3037992966       68.0842805240  TIP3      6654            0.0000000000
     42214      6846  TIP3      H2             17.1335737232      -30.4065229948       69.0378208021  TIP3      6654            0.0000000000
     42215      6847  TIP3      OH2            17.3714715449      -29.8020849741       70.8566180113  TIP3      6655            0.0000000000
     42216      6847  TIP3      H1             16.4963460871      -29.5183416201       71.1923927988  TIP3      6655            0.0000000000
     42217      6847  TIP3      H2             17.8188868249      -28.9481254813       70.6543341791  TIP3      6655            0.0000000000
     42218      6848  TIP3      OH2             1.6238927624      -31.2785772017       74.3905007419  TIP3      6656            0.0000000000
     42219      6848  TIP3      H1              2.5606925032      -31.4844745508       74.5859612970  TIP3      6656            0.0000000000
     42220      6848  TIP3      H2              1.1836072903      -32.1083636690       74.6742829444  TIP3      6656            0.0000000000
     42221      6849  TIP3      OH2            19.8720813876      -35.7003320082       76.2043460488  TIP3      6657            0.0000000000
     42222      6849  TIP3      H1             19.9133773525      -36.4704503080       75.6011213157  TIP3      6657            0.0000000000
     42223      6849  TIP3      H2             19.4877475832      -34.9985358445       75.6520035489  TIP3      6657            0.0000000000
     42224      6850  TIP3      OH2            17.3861338097      -33.8007738758       62.6668900866  TIP3      6658            0.0000000000
     42225      6850  TIP3      H1             17.5119370644      -34.1044240516       63.5831345231  TIP3      6658            0.0000000000
     42226      6850  TIP3      H2             16.7124993973      -34.3632944720       62.2141591395  TIP3      6658            0.0000000000
     42227      6851  TIP3      OH2             2.8033108992      -32.9411704786       67.2187964150  TIP3      6659            0.0000000000
     42228      6851  TIP3      H1              3.2373785769      -33.7852832678       67.4935430429  TIP3      6659            0.0000000000
     42229      6851  TIP3      H2              3.3782876322      -32.2926660025       67.6423109419  TIP3      6659            0.0000000000
     42230      6852  TIP3      OH2             1.1184450742      -29.9930307456       68.2961884518  TIP3      6660            0.0000000000
     42231      6852  TIP3      H1              1.6822015089      -30.2449637894       67.5360368603  TIP3      6660            0.0000000000
     42232      6852  TIP3      H2              1.5857079288      -29.1883899331       68.5641412647  TIP3      6660            0.0000000000
     42233      6853  TIP3      OH2            19.0918862783      -33.7258319262       74.5384587034  TIP3      6661            0.0000000000
     42234      6853  TIP3      H1             18.1628096784      -33.3855274077       74.4743288386  TIP3      6661            0.0000000000
     42235      6853  TIP3      H2             19.1131947919      -34.2182918584       73.6898451390  TIP3      6661            0.0000000000
     42236      6854  TIP3      OH2            19.1990867429      -33.7775484948       59.2930987482  TIP3      6662            0.0000000000
     42237      6854  TIP3      H1             19.5724674916      -34.4807348203       58.7122172976  TIP3      6662            0.0000000000
     42238      6854  TIP3      H2             19.8944280160      -33.1064072818       59.2800972667  TIP3      6662            0.0000000000
     42239      6855  TIP3      OH2             1.4922549328      -33.7589991307       62.4004530641  TIP3      6663            0.0000000000
     42240      6855  TIP3      H1              0.5512150025      -33.5753790103       62.2207480811  TIP3      6663            0.0000000000
     42241      6855  TIP3      H2              1.9077385210      -33.2766436896       61.6600526023  TIP3      6663            0.0000000000
     42242      6856  TIP3      OH2            16.2235145322      -18.7837407617       64.3231982702  TIP3      6664            0.0000000000
     42243      6856  TIP3      H1             16.9058071807      -19.0847785984       63.6985610648  TIP3      6664            0.0000000000
     42244      6856  TIP3      H2             16.7371858669      -18.2836761436       64.9736388216  TIP3      6664            0.0000000000
     42245      6857  TIP3      OH2             1.4405752656      -34.9965653607       70.6814826902  TIP3      6665            0.0000000000
     42246      6857  TIP3      H1              0.7628528572      -35.2410893257       71.3288358529  TIP3      6665            0.0000000000
     42247      6857  TIP3      H2              0.9573210379      -34.4030718207       70.0814732713  TIP3      6665            0.0000000000
     42248      6858  TIP3      OH2             3.6730418260      -21.8572752413       74.8301491200  TIP3      6666            0.0000000000
     42249      6858  TIP3      H1              2.8277037653      -21.6560275175       74.4002669093  TIP3      6666            0.0000000000
     42250      6858  TIP3      H2              3.3990093403      -21.9388584042       75.7489821798  TIP3      6666            0.0000000000
     42251      6859  TIP3      OH2             6.5666912891      -20.8732789892       71.1094583632  TIP3      6667            0.0000000000
     42252      6859  TIP3      H1              6.2490920386      -19.9952924386       70.8390910464  TIP3      6667            0.0000000000
     42253      6859  TIP3      H2              7.4936723784      -20.7916443170       70.8030736732  TIP3      6667            0.0000000000
     42254      6860  TIP3      OH2            10.8886666651      -19.4629162967       74.0126627806  TIP3      6668            0.0000000000
     42255      6860  TIP3      H1             11.0237322394      -19.7992417030       74.9294758047  TIP3      6668            0.0000000000
     42256      6860  TIP3      H2             11.7902133804      -19.1504682325       73.7835348945  TIP3      6668            0.0000000000
     42257      6861  TIP3      OH2            13.1773407202      -18.1825938612       73.3210286084  TIP3      6669            0.0000000000
     42258      6861  TIP3      H1             13.9083003084      -18.7679752651       73.0805249536  TIP3      6669            0.0000000000
     42259      6861  TIP3      H2             13.5539898430      -17.7450490968       74.1148827906  TIP3      6669            0.0000000000
     42260      6862  TIP3      OH2            18.2105671962      -35.5416709522       72.3447157662  TIP3      6670            0.0000000000
     42261      6862  TIP3      H1             17.3635811025      -35.2440636157       71.9625408063  TIP3      6670            0.0000000000
     42262      6862  TIP3      H2             18.3496298932      -36.4066015591       71.8954986021  TIP3      6670            0.0000000000
     42263      6863  TIP3      OH2             3.9934375226      -17.6427931541       71.0974791584  TIP3      6671            0.0000000000
     42264      6863  TIP3      H1              3.2668311278      -17.1368228252       70.7037170110  TIP3      6671            0.0000000000
     42265      6863  TIP3      H2              3.6856768630      -17.8280783408       71.9958780363  TIP3      6671            0.0000000000
     42266      6864  TIP3      OH2             6.4622845546      -18.0682869189       70.1752446484  TIP3      6672            0.0000000000
     42267      6864  TIP3      H1              5.5717400281      -17.9127661951       70.5693252018  TIP3      6672            0.0000000000
     42268      6864  TIP3      H2              6.4086940456      -17.4696007710       69.4060641225  TIP3      6672            0.0000000000
     42269      6865  TIP3      OH2            11.1765430186      -18.1615766815       69.3457615173  TIP3      6673            0.0000000000
     42270      6865  TIP3      H1             10.7116735887      -17.6060751568       68.6984717268  TIP3      6673            0.0000000000
     42271      6865  TIP3      H2             11.3039993918      -17.5241035982       70.0808935685  TIP3      6673            0.0000000000
     42272      6866  TIP3      OH2            13.4584277493      -19.3406935155       70.3754352682  TIP3      6674            0.0000000000
     42273      6866  TIP3      H1             12.6057236515      -19.0623924891       70.0021984250  TIP3      6674            0.0000000000
     42274      6866  TIP3      H2             13.9447303997      -18.5033607285       70.2803880999  TIP3      6674            0.0000000000
     42275      6867  TIP3      OH2            16.0404830280      -17.7709305685       70.5920538536  TIP3      6675            0.0000000000
     42276      6867  TIP3      H1             15.9877250773      -16.8096645532       70.3647094926  TIP3      6675            0.0000000000
     42277      6867  TIP3      H2             16.2598705511      -18.1437061914       69.7162494946  TIP3      6675            0.0000000000
     42278      6868  TIP3      OH2             3.4568205125      -18.9890176586       68.0423759761  TIP3      6676            0.0000000000
     42279      6868  TIP3      H1              3.3754374207      -19.4489255118       68.9044967143  TIP3      6676            0.0000000000
     42280      6868  TIP3      H2              4.2724633941      -19.3665563146       67.6552202955  TIP3      6676            0.0000000000
     42281      6869  TIP3      OH2             5.5315659643      -20.2766974092       66.6984984097  TIP3      6677            0.0000000000
     42282      6869  TIP3      H1              5.3704220774      -21.2092613159       66.9283018332  TIP3      6677            0.0000000000
     42283      6869  TIP3      H2              6.3878381405      -20.1217670588       67.1490430577  TIP3      6677            0.0000000000
     42284      6870  TIP3      OH2             8.1390217182      -19.7924843352       67.5738068213  TIP3      6678            0.0000000000
     42285      6870  TIP3      H1              8.2897673957      -20.7170555289       67.3111205558  TIP3      6678            0.0000000000
     42286      6870  TIP3      H2              8.1796912670      -19.8484080070       68.5407523757  TIP3      6678            0.0000000000
     42287      6871  TIP3      OH2            11.4716162815      -34.0786555815       66.6945383230  TIP3      6679            0.0000000000
     42288      6871  TIP3      H1             10.8840543828      -34.7962973473       66.9763055394  TIP3      6679            0.0000000000
     42289      6871  TIP3      H2             12.1478792680      -34.5751179667       66.1978869443  TIP3      6679            0.0000000000
     42290      6872  TIP3      OH2            16.7276646942      -36.1195497042       66.6865627850  TIP3      6680            0.0000000000
     42291      6872  TIP3      H1             17.3519605908      -35.4475294115       66.3619970931  TIP3      6680            0.0000000000
     42292      6872  TIP3      H2             15.8532383607      -35.7112276869       66.6129762452  TIP3      6680            0.0000000000
     42293      6873  TIP3      OH2            18.4903987422      -34.8093359896       65.0352977257  TIP3      6681            0.0000000000
     42294      6873  TIP3      H1             19.2476673858      -35.3320126663       64.7539454075  TIP3      6681            0.0000000000
     42295      6873  TIP3      H2             18.9442211756      -33.9383786811       65.1942981427  TIP3      6681            0.0000000000
     42296      6874  TIP3      OH2             3.9265153045      -35.4835811420       64.5833878860  TIP3      6682            0.0000000000
     42297      6874  TIP3      H1              3.1575487451      -35.7211886633       64.0426748221  TIP3      6682            0.0000000000
     42298      6874  TIP3      H2              4.4062241720      -36.3299249853       64.6134419673  TIP3      6682            0.0000000000
     42299      6875  TIP3      OH2             2.7511817536      -35.7628045699       60.2933042352  TIP3      6683            0.0000000000
     42300      6875  TIP3      H1              3.1728472293      -35.1118842813       59.7159310799  TIP3      6683            0.0000000000
     42301      6875  TIP3      H2              2.1180524020      -35.2133811154       60.7702395713  TIP3      6683            0.0000000000
     42302      6876  TIP3      OH2             8.4928620429      -35.6588835739       64.3329853558  TIP3      6684            0.0000000000
     42303      6876  TIP3      H1              9.3452171957      -35.1964723595       64.2966069905  TIP3      6684            0.0000000000
     42304      6876  TIP3      H2              8.3927489748      -35.8177709612       65.2774277440  TIP3      6684            0.0000000000
     42305      6877  TIP3      OH2            13.9129278439      -35.2037201032       66.1334302556  TIP3      6685            0.0000000000
     42306      6877  TIP3      H1             13.9845221154      -35.2452083967       65.1747514999  TIP3      6685            0.0000000000
     42307      6877  TIP3      H2             13.7790715337      -36.1750594036       66.2748661915  TIP3      6685            0.0000000000
     42308      6878  TIP3      OH2            15.4289011959      -35.5144511399       61.7853130257  TIP3      6686            0.0000000000
     42309      6878  TIP3      H1             14.7011333118      -34.9413215427       61.4597478371  TIP3      6686            0.0000000000
     42310      6878  TIP3      H2             14.9824746290      -36.3719494543       61.8019676924  TIP3      6686            0.0000000000
     42311      6879  TIP3      OH2             2.6162981774      -19.8123231189       61.3361516442  TIP3      6687            0.0000000000
     42312      6879  TIP3      H1              1.9946399722      -19.8165425967       60.5877150691  TIP3      6687            0.0000000000
     42313      6879  TIP3      H2              2.6795529887      -18.8508688392       61.4502296034  TIP3      6687            0.0000000000
     42314      6880  TIP3      OH2             4.5241344614      -33.8889466950       58.8135570867  TIP3      6688            0.0000000000
     42315      6880  TIP3      H1              5.0975230178      -34.4378128601       58.2487844459  TIP3      6688            0.0000000000
     42316      6880  TIP3      H2              5.1798860324      -33.5069228371       59.4286905989  TIP3      6688            0.0000000000
     42317      6881  TIP3      OH2             9.5028263394      -33.5806692135       61.2448538928  TIP3      6689            0.0000000000
     42318      6881  TIP3      H1              9.8628340961      -34.1471364733       61.9497650636  TIP3      6689            0.0000000000
     42319      6881  TIP3      H2              9.6598444532      -32.7071937296       61.6719046108  TIP3      6689            0.0000000000
     42320      6882  TIP3      OH2            11.5400684699      -18.5211993235       59.6433874352  TIP3      6690            0.0000000000
     42321      6882  TIP3      H1             12.4461221870      -18.2766844268       59.4049251091  TIP3      6690            0.0000000000
     42322      6882  TIP3      H2             11.2876992479      -19.0201561774       58.8412970582  TIP3      6690            0.0000000000
     42323      6883  TIP3      OH2            18.2118024019      -19.0044176124       62.3618366263  TIP3      6691            0.0000000000
     42324      6883  TIP3      H1             18.0195383649      -19.7867076691       61.7905704295  TIP3      6691            0.0000000000
     42325      6883  TIP3      H2             18.1431783283      -18.2687718930       61.7191254370  TIP3      6691            0.0000000000
     42326      6884  TIP3      OH2             3.7358884834      -35.0094596150       73.9058802935  TIP3      6692            0.0000000000
     42327      6884  TIP3      H1              3.4018734404      -35.7451399261       74.4229625306  TIP3      6692            0.0000000000
     42328      6884  TIP3      H2              4.6376721167      -34.9878256612       74.3094024977  TIP3      6692            0.0000000000
     42329      6885  TIP3      OH2             5.6046015154      -35.3783678358       75.5296928663  TIP3      6693            0.0000000000
     42330      6885  TIP3      H1              6.5404080521      -35.6084225456       75.4092514897  TIP3      6693            0.0000000000
     42331      6885  TIP3      H2              5.4118184887      -36.2138359767       75.9957349395  TIP3      6693            0.0000000000
     42332      6886  TIP3      OH2             4.1695596986      -19.2590957092       58.3356541747  TIP3      6694            0.0000000000
     42333      6886  TIP3      H1              4.1745815190      -18.5693943043       59.0309683483  TIP3      6694            0.0000000000
     42334      6886  TIP3      H2              5.1399850963      -19.3783204222       58.3347785181  TIP3      6694            0.0000000000
     42335      6887  TIP3      OH2            14.1614894364       37.0719624782       75.7216466274  TIP3      6695            0.0000000000
     42336      6887  TIP3      H1             14.2383423885       36.5173843335       76.5288037790  TIP3      6695            0.0000000000
     42337      6887  TIP3      H2             15.0479168499       36.8644517976       75.3943881069  TIP3      6695            0.0000000000
     42338      6888  TIP3      OH2            17.4532715397      -20.2579244488       74.4613478923  TIP3      6696            0.0000000000
     42339      6888  TIP3      H1             16.6616093621      -20.3927916249       73.8957282525  TIP3      6696            0.0000000000
     42340      6888  TIP3      H2             17.3439523945      -19.3073402865       74.6626493019  TIP3      6696            0.0000000000
     42341      6889  TIP3      OH2            31.8855209063      -26.4011930207       64.4228525317  TIP3      6697            0.0000000000
     42342      6889  TIP3      H1             31.9055445871      -25.4176884856       64.3949173877  TIP3      6697            0.0000000000
     42343      6889  TIP3      H2             31.1757858989      -26.5982261640       63.7965378683  TIP3      6697            0.0000000000
     42344      6890  TIP3      OH2            30.7523531402      -27.1306332554       67.9071795022  TIP3      6698            0.0000000000
     42345      6890  TIP3      H1             30.7524939999      -27.7595251507       68.6444080401  TIP3      6698            0.0000000000
     42346      6890  TIP3      H2             30.4293326560      -27.6393003692       67.1519706275  TIP3      6698            0.0000000000
     42347      6891  TIP3      OH2            23.1118432523      -27.4460170534       69.4679547018  TIP3      6699            0.0000000000
     42348      6891  TIP3      H1             23.1910554708      -28.1310591170       70.1658378629  TIP3      6699            0.0000000000
     42349      6891  TIP3      H2             23.8583628491      -26.8737913436       69.6945452750  TIP3      6699            0.0000000000
     42350      6892  TIP3      OH2            34.4644842694      -24.1970481685       66.2137552199  TIP3      6700            0.0000000000
     42351      6892  TIP3      H1             34.0385940088      -24.9058336925       66.7036775688  TIP3      6700            0.0000000000
     42352      6892  TIP3      H2             34.4673444903      -23.4768168533       66.8653080884  TIP3      6700            0.0000000000
     42353      6893  TIP3      OH2            24.0355057856      -22.9975670679       67.9694537786  TIP3      6701            0.0000000000
     42354      6893  TIP3      H1             23.7254332414      -23.8671986634       67.6521051049  TIP3      6701            0.0000000000
     42355      6893  TIP3      H2             24.9911747954      -23.1799633616       68.0152174794  TIP3      6701            0.0000000000
     42356      6894  TIP3      OH2            20.6794410412      -29.4505946615       63.4674154498  TIP3      6702            0.0000000000
     42357      6894  TIP3      H1             20.2428534651      -28.5790891065       63.4005155088  TIP3      6702            0.0000000000
     42358      6894  TIP3      H2             20.1115837405      -29.9825527199       62.8925236633  TIP3      6702            0.0000000000
     42359      6895  TIP3      OH2            21.3892964029      -27.1995976385       65.6077285331  TIP3      6703            0.0000000000
     42360      6895  TIP3      H1             21.6563393324      -28.0270871055       66.0534642294  TIP3      6703            0.0000000000
     42361      6895  TIP3      H2             22.0813087083      -27.1060677981       64.9372544820  TIP3      6703            0.0000000000
     42362      6896  TIP3      OH2            31.5652917966      -19.0184229351       66.4360463726  TIP3      6704            0.0000000000
     42363      6896  TIP3      H1             32.2100351777      -19.7145542852       66.1556048161  TIP3      6704            0.0000000000
     42364      6896  TIP3      H2             31.3336076962      -19.3549486680       67.3046908890  TIP3      6704            0.0000000000
     42365      6897  TIP3      OH2            29.1398279012      -24.7282582521       68.3937039709  TIP3      6705            0.0000000000
     42366      6897  TIP3      H1             29.4710059413      -25.3508882437       67.7288176650  TIP3      6705            0.0000000000
     42367      6897  TIP3      H2             29.9516585539      -24.5658979573       68.9048383894  TIP3      6705            0.0000000000
     42368      6898  TIP3      OH2            32.2800095177      -30.2470434819       68.6991019275  TIP3      6706            0.0000000000
     42369      6898  TIP3      H1             32.4583033791      -31.2119285590       68.6942023327  TIP3      6706            0.0000000000
     42370      6898  TIP3      H2             32.2295003033      -30.0965696642       67.7396533199  TIP3      6706            0.0000000000
     42371      6899  TIP3      OH2            25.4796150778      -32.1555051188       65.8913579484  TIP3      6707            0.0000000000
     42372      6899  TIP3      H1             25.4470912768      -31.3132676236       65.4161828115  TIP3      6707            0.0000000000
     42373      6899  TIP3      H2             24.9948002940      -32.7349784244       65.2640270941  TIP3      6707            0.0000000000
     42374      6900  TIP3      OH2            33.1617365009      -32.0309134930       64.3141037201  TIP3      6708            0.0000000000
     42375      6900  TIP3      H1             33.8041699699      -32.3887244073       64.9728543270  TIP3      6708            0.0000000000
     42376      6900  TIP3      H2             33.7680279170      -31.5378056772       63.7559879896  TIP3      6708            0.0000000000
     42377      6901  TIP3      OH2            22.0266525762      -29.7568773137       66.6620140231  TIP3      6709            0.0000000000
     42378      6901  TIP3      H1             22.6988165816      -30.2995338143       67.1164734830  TIP3      6709            0.0000000000
     42379      6901  TIP3      H2             22.1413081583      -30.0665733436       65.7491075355  TIP3      6709            0.0000000000
     42380      6902  TIP3      OH2            27.2734404353      -28.2346030280       65.8881398163  TIP3      6710            0.0000000000
     42381      6902  TIP3      H1             27.8459256444      -28.7745490101       66.4578058436  TIP3      6710            0.0000000000
     42382      6902  TIP3      H2             26.6030013874      -28.8416572965       65.5294115152  TIP3      6710            0.0000000000
     42383      6903  TIP3      OH2            24.3435395860      -33.2098124182       69.9348205447  TIP3      6711            0.0000000000
     42384      6903  TIP3      H1             24.0141786250      -32.6769529925       69.1845564982  TIP3      6711            0.0000000000
     42385      6903  TIP3      H2             23.6421442487      -33.0269932187       70.5998363846  TIP3      6711            0.0000000000
     42386      6904  TIP3      OH2            31.5956420534      -23.8034069444       63.4977256750  TIP3      6712            0.0000000000
     42387      6904  TIP3      H1             31.3407963159      -24.0635733003       62.6052637152  TIP3      6712            0.0000000000
     42388      6904  TIP3      H2             31.2996366044      -22.8653860543       63.5578649793  TIP3      6712            0.0000000000
     42389      6905  TIP3      OH2            26.8332237567      -25.6258286964       70.1916488732  TIP3      6713            0.0000000000
     42390      6905  TIP3      H1             26.1325590300      -24.9793750292       70.4165922041  TIP3      6713            0.0000000000
     42391      6905  TIP3      H2             27.5413835083      -25.0257641738       69.9068194645  TIP3      6713            0.0000000000
     42392      6906  TIP3      OH2            34.6659751843      -32.8182352554       66.3818097812  TIP3      6714            0.0000000000
     42393      6906  TIP3      H1             34.6760404581      -33.5971799968       66.9408194121  TIP3      6714            0.0000000000
     42394      6906  TIP3      H2             35.4159659183      -32.3235019228       66.7838792264  TIP3      6714            0.0000000000
     42395      6907  TIP3      OH2            23.8867566815      -31.3549125757       67.9456596787  TIP3      6715            0.0000000000
     42396      6907  TIP3      H1             24.5303957806      -30.7195995905       68.3211769913  TIP3      6715            0.0000000000
     42397      6907  TIP3      H2             24.4107729964      -31.8185520692       67.2517786421  TIP3      6715            0.0000000000
     42398      6908  TIP3      OH2            25.2865667779      -23.6197317981       71.0201489348  TIP3      6716            0.0000000000
     42399      6908  TIP3      H1             25.2369879252      -22.7063051044       70.6771172419  TIP3      6716            0.0000000000
     42400      6908  TIP3      H2             24.4022375730      -23.6981744467       71.4601038821  TIP3      6716            0.0000000000
     42401      6909  TIP3      OH2            21.3643520804      -24.0093203679       61.8085998602  TIP3      6717            0.0000000000
     42402      6909  TIP3      H1             21.1137522195      -23.6690589729       60.9320752109  TIP3      6717            0.0000000000
     42403      6909  TIP3      H2             21.4432730981      -23.1817587386       62.3241487988  TIP3      6717            0.0000000000
     42404      6910  TIP3      OH2            34.7750013459      -22.4103886909       68.6668463896  TIP3      6718            0.0000000000
     42405      6910  TIP3      H1             33.8168476620      -22.1973614842       68.7045130867  TIP3      6718            0.0000000000
     42406      6910  TIP3      H2             35.1568742222      -21.5660288266       68.3596494828  TIP3      6718            0.0000000000
     42407      6911  TIP3      OH2            35.0761453181      -33.8988304367       69.6964294454  TIP3      6719            0.0000000000
     42408      6911  TIP3      H1             34.3954697369      -33.2217892227       69.7927985312  TIP3      6719            0.0000000000
     42409      6911  TIP3      H2             35.8644369170      -33.4350808004       69.3956454618  TIP3      6719            0.0000000000
     42410      6912  TIP3      OH2            28.2357585621      -35.9281159262       67.2522984459  TIP3      6720            0.0000000000
     42411      6912  TIP3      H1             28.2224522254      -36.8837112332       67.4144933456  TIP3      6720            0.0000000000
     42412      6912  TIP3      H2             27.4486720115      -35.6572243587       67.7497629339  TIP3      6720            0.0000000000
     42413      6913  TIP3      OH2            33.1484465851      -20.6240752331       65.1763465302  TIP3      6721            0.0000000000
     42414      6913  TIP3      H1             33.6373787421      -21.3026858306       64.6680617923  TIP3      6721            0.0000000000
     42415      6913  TIP3      H2             33.5986019037      -19.8226760440       64.8236128265  TIP3      6721            0.0000000000
     42416      6914  TIP3      OH2            34.4293400747      -22.6375161735       63.6778746477  TIP3      6722            0.0000000000
     42417      6914  TIP3      H1             34.1831286602      -23.3488413665       63.0664431101  TIP3      6722            0.0000000000
     42418      6914  TIP3      H2             34.4916861822      -23.1440175481       64.5135866087  TIP3      6722            0.0000000000
     42419      6915  TIP3      OH2            35.7913651228      -23.8741993661       72.2748125336  TIP3      6723            0.0000000000
     42420      6915  TIP3      H1             36.0690306139      -24.5799040214       71.6541616643  TIP3      6723            0.0000000000
     42421      6915  TIP3      H2             36.2166356068      -23.1243373148       71.8255242556  TIP3      6723            0.0000000000
     42422      6916  TIP3      OH2            30.5344213627      -27.1734294054       61.9188090255  TIP3      6724            0.0000000000
     42423      6916  TIP3      H1             29.8701805628      -26.5528205394       61.5654606095  TIP3      6724            0.0000000000
     42424      6916  TIP3      H2             31.2661002368      -27.0406193705       61.2811172583  TIP3      6724            0.0000000000
     42425      6917  TIP3      OH2            30.6400859242      -28.5743080472       58.9322844459  TIP3      6725            0.0000000000
     42426      6917  TIP3      H1             31.3540385915      -28.5883419245       59.5904121598  TIP3      6725            0.0000000000
     42427      6917  TIP3      H2             30.9451195977      -29.2957670117       58.3676720649  TIP3      6725            0.0000000000
     42428      6918  TIP3      OH2            33.9685063719      -26.9282360681       62.8171180136  TIP3      6726            0.0000000000
     42429      6918  TIP3      H1             33.2510878864      -26.6730236234       63.4418871866  TIP3      6726            0.0000000000
     42430      6918  TIP3      H2             34.4607041753      -27.5613876878       63.3840814383  TIP3      6726            0.0000000000
     42431      6919  TIP3      OH2            33.9502459876      -28.7545509982       71.9495064074  TIP3      6727            0.0000000000
     42432      6919  TIP3      H1             33.9055147668      -27.9551706262       72.4989901334  TIP3      6727            0.0000000000
     42433      6919  TIP3      H2             33.3103734583      -28.4830138401       71.2649740085  TIP3      6727            0.0000000000
     42434      6920  TIP3      OH2            25.6219077096      -26.2668236175       64.7651162933  TIP3      6728            0.0000000000
     42435      6920  TIP3      H1             25.2923008052      -26.6463048220       63.9143811463  TIP3      6728            0.0000000000
     42436      6920  TIP3      H2             26.2342564207      -26.9502383203       65.1006655173  TIP3      6728            0.0000000000
     42437      6921  TIP3      OH2            26.9355455652      -22.8902788653       67.4510655976  TIP3      6729            0.0000000000
     42438      6921  TIP3      H1             26.9336546946      -23.4109303475       66.6387532979  TIP3      6729            0.0000000000
     42439      6921  TIP3      H2             27.7203845204      -23.2426223327       67.9095153936  TIP3      6729            0.0000000000
     42440      6922  TIP3      OH2            25.9645443396      -27.5438413606       68.4183051398  TIP3      6730            0.0000000000
     42441      6922  TIP3      H1             26.5035635574      -27.3908592672       67.6297366536  TIP3      6730            0.0000000000
     42442      6922  TIP3      H2             26.3190804016      -26.8653356785       69.0419573473  TIP3      6730            0.0000000000
     42443      6923  TIP3      OH2            32.2868067749      -21.9357072012       69.1208746481  TIP3      6731            0.0000000000
     42444      6923  TIP3      H1             32.0880954760      -21.3111601379       69.8216631938  TIP3      6731            0.0000000000
     42445      6923  TIP3      H2             32.1093100969      -22.8041017851       69.5563611043  TIP3      6731            0.0000000000
     42446      6924  TIP3      OH2            26.9014644300      -23.0928729250       73.1268617950  TIP3      6732            0.0000000000
     42447      6924  TIP3      H1             26.4858231550      -22.3552909721       73.6191107764  TIP3      6732            0.0000000000
     42448      6924  TIP3      H2             26.2278263262      -23.2934978704       72.4310960384  TIP3      6732            0.0000000000
     42449      6925  TIP3      OH2            32.8699652261      -27.7455880766       60.5299153256  TIP3      6733            0.0000000000
     42450      6925  TIP3      H1             33.4291022033      -27.5316977838       61.3181685866  TIP3      6733            0.0000000000
     42451      6925  TIP3      H2             33.2759330789      -27.2242665025       59.8076264076  TIP3      6733            0.0000000000
     42452      6926  TIP3      OH2            23.8448301894      -26.9297449201       72.2751350488  TIP3      6734            0.0000000000
     42453      6926  TIP3      H1             23.8971614987      -26.2658700345       72.9887852331  TIP3      6734            0.0000000000
     42454      6926  TIP3      H2             22.9006620423      -26.8454584624       72.0731846831  TIP3      6734            0.0000000000
     42455      6927  TIP3      OH2            30.5866315429      -21.0067621823       63.9828458119  TIP3      6735            0.0000000000
     42456      6927  TIP3      H1             31.0194508054      -20.7067574989       64.7935926041  TIP3      6735            0.0000000000
     42457      6927  TIP3      H2             30.0289322402      -20.2577163108       63.7498712870  TIP3      6735            0.0000000000
     42458      6928  TIP3      OH2            25.1476073302      -21.0586936111       73.8735089442  TIP3      6736            0.0000000000
     42459      6928  TIP3      H1             25.0847141920      -21.1595393897       72.9086727804  TIP3      6736            0.0000000000
     42460      6928  TIP3      H2             24.2182693141      -21.1929592627       74.1434255614  TIP3      6736            0.0000000000
     42461      6929  TIP3      OH2            24.5938633318      -27.2791660941       62.4000377827  TIP3      6737            0.0000000000
     42462      6929  TIP3      H1             24.3178559949      -26.4782763814       61.8966427816  TIP3      6737            0.0000000000
     42463      6929  TIP3      H2             23.9161298951      -27.9090494577       62.1469627899  TIP3      6737            0.0000000000
     42464      6930  TIP3      OH2            20.6756312625      -24.8154991541       71.2885588424  TIP3      6738            0.0000000000
     42465      6930  TIP3      H1             20.2328276925      -24.8979205121       70.4242789776  TIP3      6738            0.0000000000
     42466      6930  TIP3      H2             20.7591034162      -25.7631745209       71.5018619727  TIP3      6738            0.0000000000
     42467      6931  TIP3      OH2            20.4364266906      -22.0826884824       68.0597909779  TIP3      6739            0.0000000000
     42468      6931  TIP3      H1             21.3945937673      -22.1991654324       68.0405626106  TIP3      6739            0.0000000000
     42469      6931  TIP3      H2             20.3546229670      -21.2649782624       68.5653026355  TIP3      6739            0.0000000000
     42470      6932  TIP3      OH2            29.6335068546      -21.8381950088       72.6156354172  TIP3      6740            0.0000000000
     42471      6932  TIP3      H1             29.6900580568      -21.0015808211       73.1367085687  TIP3      6740            0.0000000000
     42472      6932  TIP3      H2             28.7605915392      -22.1999933088       72.8623863490  TIP3      6740            0.0000000000
     42473      6933  TIP3      OH2            30.1097823157      -18.0956397285       62.4082365603  TIP3      6741            0.0000000000
     42474      6933  TIP3      H1             29.9808240412      -18.1757384798       61.4442262289  TIP3      6741            0.0000000000
     42475      6933  TIP3      H2             30.0955034770      -17.1300159486       62.5549989118  TIP3      6741            0.0000000000
     42476      6934  TIP3      OH2            23.7128988598      -19.2180785200       64.2260184720  TIP3      6742            0.0000000000
     42477      6934  TIP3      H1             23.8591047483      -19.6328455389       65.1030642104  TIP3      6742            0.0000000000
     42478      6934  TIP3      H2             22.8649958520      -19.6280768643       63.9865663508  TIP3      6742            0.0000000000
     42479      6935  TIP3      OH2            33.0756965218      -18.9142837828       59.3653069810  TIP3      6743            0.0000000000
     42480      6935  TIP3      H1             33.6011134564      -19.6211228517       58.9293201401  TIP3      6743            0.0000000000
     42481      6935  TIP3      H2             33.1961168174      -19.1454797770       60.3053634615  TIP3      6743            0.0000000000
     42482      6936  TIP3      OH2            32.8057451629      -18.9453745806       62.1922190086  TIP3      6744            0.0000000000
     42483      6936  TIP3      H1             31.8379135280      -18.8800250291       62.3489375146  TIP3      6744            0.0000000000
     42484      6936  TIP3      H2             33.0469925960      -19.7078338675       62.7366266368  TIP3      6744            0.0000000000
     42485      6937  TIP3      OH2            35.3640080221      -29.7065799265       74.2292941283  TIP3      6745            0.0000000000
     42486      6937  TIP3      H1             35.2586681056      -29.3968564923       73.3285189190  TIP3      6745            0.0000000000
     42487      6937  TIP3      H2             35.8524358402      -30.5619542742       74.0868632966  TIP3      6745            0.0000000000
     42488      6938  TIP3      OH2            22.9638986239      -23.5047198419       72.2261847397  TIP3      6746            0.0000000000
     42489      6938  TIP3      H1             23.1845363352      -23.8700222574       73.1096325336  TIP3      6746            0.0000000000
     42490      6938  TIP3      H2             22.0940226745      -23.9006940726       72.0119076348  TIP3      6746            0.0000000000
     42491      6939  TIP3      OH2            25.6202751790      -35.0671235503       68.2075962403  TIP3      6747            0.0000000000
     42492      6939  TIP3      H1             24.7305809048      -35.1266644688       67.8077448679  TIP3      6747            0.0000000000
     42493      6939  TIP3      H2             25.5126738333      -34.2092106187       68.6490736586  TIP3      6747            0.0000000000
     42494      6940  TIP3      OH2            30.2644750723      -35.3364364863       71.5890877780  TIP3      6748            0.0000000000
     42495      6940  TIP3      H1             30.6924884658      -35.7542355679       72.3364978764  TIP3      6748            0.0000000000
     42496      6940  TIP3      H2             29.3113501381      -35.4485657654       71.7475871715  TIP3      6748            0.0000000000
     42497      6941  TIP3      OH2            33.5066978773      -31.5971711839       72.3872065070  TIP3      6749            0.0000000000
     42498      6941  TIP3      H1             32.9936968728      -31.7146847494       73.2188764078  TIP3      6749            0.0000000000
     42499      6941  TIP3      H2             33.4380677479      -30.6413280087       72.2284958000  TIP3      6749            0.0000000000
     42500      6942  TIP3      OH2            34.3954882381      -26.8234996569       58.3495157347  TIP3      6750            0.0000000000
     42501      6942  TIP3      H1             34.3025423963      -26.9175746221       57.3691001927  TIP3      6750            0.0000000000
     42502      6942  TIP3      H2             35.1365105214      -26.2198014841       58.3703195321  TIP3      6750            0.0000000000
     42503      6943  TIP3      OH2            29.9429138344      -32.7886512433       58.8466588120  TIP3      6751            0.0000000000
     42504      6943  TIP3      H1             29.6145748128      -32.8633913666       59.7520890860  TIP3      6751            0.0000000000
     42505      6943  TIP3      H2             29.6141307690      -33.6517798674       58.5339772289  TIP3      6751            0.0000000000
     42506      6944  TIP3      OH2            25.7487663973      -30.0572013280       69.4167721892  TIP3      6752            0.0000000000
     42507      6944  TIP3      H1             25.0166559275      -30.0707796340       70.0556163785  TIP3      6752            0.0000000000
     42508      6944  TIP3      H2             25.6940397075      -29.1391395846       69.0708846749  TIP3      6752            0.0000000000
     42509      6945  TIP3      OH2            25.7703851919      -29.9885305985       64.2706012982  TIP3      6753            0.0000000000
     42510      6945  TIP3      H1             24.7977896533      -30.1557198730       64.1861094169  TIP3      6753            0.0000000000
     42511      6945  TIP3      H2             26.0118883966      -30.2301888420       63.3488800669  TIP3      6753            0.0000000000
     42512      6946  TIP3      OH2            31.1921551689      -29.4397772735       63.0644716830  TIP3      6754            0.0000000000
     42513      6946  TIP3      H1             30.8470626874      -28.5965703505       62.6869817071  TIP3      6754            0.0000000000
     42514      6946  TIP3      H2             31.9155737253      -29.5981465594       62.4338380989  TIP3      6754            0.0000000000
     42515      6947  TIP3      OH2            30.2825476769      -29.2130300449       74.5009015224  TIP3      6755            0.0000000000
     42516      6947  TIP3      H1             29.7782522888      -30.0067000045       74.7991799321  TIP3      6755            0.0000000000
     42517      6947  TIP3      H2             31.1346457264      -29.3393253703       74.9531161847  TIP3      6755            0.0000000000
     42518      6948  TIP3      OH2            32.1633239129      -29.9352775179       65.9246486127  TIP3      6756            0.0000000000
     42519      6948  TIP3      H1             32.0376872131      -29.3694197447       65.1489628654  TIP3      6756            0.0000000000
     42520      6948  TIP3      H2             32.3820751566      -30.7784959488       65.4757214108  TIP3      6756            0.0000000000
     42521      6949  TIP3      OH2            23.3620827881      -29.7919668242       71.1008435331  TIP3      6757            0.0000000000
     42522      6949  TIP3      H1             23.4491798332      -29.3977121797       71.9856161021  TIP3      6757            0.0000000000
     42523      6949  TIP3      H2             22.9192604198      -30.6265056941       71.3032409819  TIP3      6757            0.0000000000
     42524      6950  TIP3      OH2            26.7322297374      -32.3888803401       57.9776151968  TIP3      6758            0.0000000000
     42525      6950  TIP3      H1             26.2679966889      -32.8289310017       58.7126268010  TIP3      6758            0.0000000000
     42526      6950  TIP3      H2             26.0280602664      -31.9941694490       57.4480252984  TIP3      6758            0.0000000000
     42527      6951  TIP3      OH2            20.0254993963      -32.6951284822       65.0817914092  TIP3      6759            0.0000000000
     42528      6951  TIP3      H1             20.7099705176      -32.6756504203       65.7877777247  TIP3      6759            0.0000000000
     42529      6951  TIP3      H2             20.5114313943      -33.0271406136       64.3094329298  TIP3      6759            0.0000000000
     42530      6952  TIP3      OH2            21.2948302587      -31.9548001939       60.4787690942  TIP3      6760            0.0000000000
     42531      6952  TIP3      H1             21.8050299348      -31.3741974838       59.8822019454  TIP3      6760            0.0000000000
     42532      6952  TIP3      H2             20.5957559041      -31.3336250334       60.7618588270  TIP3      6760            0.0000000000
     42533      6953  TIP3      OH2            31.4435834101      -28.3705970841       70.4535450172  TIP3      6761            0.0000000000
     42534      6953  TIP3      H1             31.8335816936      -29.0660992617       69.8796227756  TIP3      6761            0.0000000000
     42535      6953  TIP3      H2             30.9780417687      -28.8917254611       71.1320409012  TIP3      6761            0.0000000000
     42536      6954  TIP3      OH2            28.2496190246      -32.3699846038       65.3230253077  TIP3      6762            0.0000000000
     42537      6954  TIP3      H1             27.3179651457      -32.5024336876       65.6416287018  TIP3      6762            0.0000000000
     42538      6954  TIP3      H2             28.7679767038      -32.6151533849       66.1245505032  TIP3      6762            0.0000000000
     42539      6955  TIP3      OH2            23.0875081441      -30.8319344598       64.1576664125  TIP3      6763            0.0000000000
     42540      6955  TIP3      H1             22.1929776060      -30.6740173581       63.7814399795  TIP3      6763            0.0000000000
     42541      6955  TIP3      H2             23.3380803319      -31.6806382507       63.7561144032  TIP3      6763            0.0000000000
     42542      6956  TIP3      OH2            26.7353412450      -30.7205926370       61.8750214570  TIP3      6764            0.0000000000
     42543      6956  TIP3      H1             27.7041861367      -30.7024319589       61.8402968981  TIP3      6764            0.0000000000
     42544      6956  TIP3      H2             26.4565220621      -30.1309374325       61.1398126507  TIP3      6764            0.0000000000
     42545      6957  TIP3      OH2            32.5932370832      -33.1548905487       68.5542497608  TIP3      6765            0.0000000000
     42546      6957  TIP3      H1             31.9164495174      -33.0849078795       69.2504928856  TIP3      6765            0.0000000000
     42547      6957  TIP3      H2             32.1240392824      -33.4325601589       67.7536688411  TIP3      6765            0.0000000000
     42548      6958  TIP3      OH2            25.4373995619      -29.6294750307       59.3979231309  TIP3      6766            0.0000000000
     42549      6958  TIP3      H1             24.8858364485      -29.9865917041       58.6785527998  TIP3      6766            0.0000000000
     42550      6958  TIP3      H2             26.2390928853      -29.3974592380       58.9020802823  TIP3      6766            0.0000000000
     42551      6959  TIP3      OH2            35.7494164054      -17.4614575459       74.9064210527  TIP3      6767            0.0000000000
     42552      6959  TIP3      H1             36.0956278522      -17.1389484171       74.0579998325  TIP3      6767            0.0000000000
     42553      6959  TIP3      H2             36.5054110447      -17.2107237896       75.4590242150  TIP3      6767            0.0000000000
     42554      6960  TIP3      OH2            23.5549459525      -25.0482285746       74.4476947873  TIP3      6768            0.0000000000
     42555      6960  TIP3      H1             24.2584830438      -24.7926096708       75.0657084915  TIP3      6768            0.0000000000
     42556      6960  TIP3      H2             22.7709096262      -24.9583678604       75.0318398122  TIP3      6768            0.0000000000
     42557      6961  TIP3      OH2            29.4561798452      -29.7240210089       67.0984015272  TIP3      6769            0.0000000000
     42558      6961  TIP3      H1             30.2207818072      -30.1722039489       66.7120259954  TIP3      6769            0.0000000000
     42559      6961  TIP3      H2             29.4128709598      -30.1357394119       67.9813132894  TIP3      6769            0.0000000000
     42560      6962  TIP3      OH2            24.5565141959      -33.4503089870       63.6484608107  TIP3      6770            0.0000000000
     42561      6962  TIP3      H1             24.2001177295      -34.3589747159       63.6552803357  TIP3      6770            0.0000000000
     42562      6962  TIP3      H2             25.3065456111      -33.5639861036       63.0564519040  TIP3      6770            0.0000000000
     42563      6963  TIP3      OH2            28.1988824487      -31.2364750965       69.5909303343  TIP3      6771            0.0000000000
     42564      6963  TIP3      H1             27.3464498712      -30.7726057980       69.7242447735  TIP3      6771            0.0000000000
     42565      6963  TIP3      H2             28.7384016816      -30.9435497123       70.3492014029  TIP3      6771            0.0000000000
     42566      6964  TIP3      OH2            28.7726126541      -25.0735961987       61.2982102904  TIP3      6772            0.0000000000
     42567      6964  TIP3      H1             27.9724269478      -25.5388883090       60.9616852030  TIP3      6772            0.0000000000
     42568      6964  TIP3      H2             28.5434282586      -24.9322536416       62.2389491793  TIP3      6772            0.0000000000
     42569      6965  TIP3      OH2            35.6395974250      -25.8518640787       70.0983228363  TIP3      6773            0.0000000000
     42570      6965  TIP3      H1             36.3684368223      -25.7261016756       69.4505851613  TIP3      6773            0.0000000000
     42571      6965  TIP3      H2             34.8771505388      -25.8527708045       69.4887203553  TIP3      6773            0.0000000000
     42572      6966  TIP3      OH2            32.6211257770      -32.2623924563       59.5242554401  TIP3      6774            0.0000000000
     42573      6966  TIP3      H1             31.6772107762      -32.1294667119       59.3009997018  TIP3      6774            0.0000000000
     42574      6966  TIP3      H2             32.9071583302      -31.3796722176       59.8309193306  TIP3      6774            0.0000000000
     42575      6967  TIP3      OH2            30.2711299967      -24.8137831231       72.5404298810  TIP3      6775            0.0000000000
     42576      6967  TIP3      H1             29.9095090935      -25.2355116836       73.3258488804  TIP3      6775            0.0000000000
     42577      6967  TIP3      H2             30.0336725532      -23.8867826936       72.6502426445  TIP3      6775            0.0000000000
     42578      6968  TIP3      OH2            33.3340292003      -30.3185659437       61.0855198566  TIP3      6776            0.0000000000
     42579      6968  TIP3      H1             34.2043532936      -30.4658540811       61.5078347697  TIP3      6776            0.0000000000
     42580      6968  TIP3      H2             33.4429744272      -29.4884607572       60.5892196968  TIP3      6776            0.0000000000
     42581      6969  TIP3      OH2            23.8849539096      -25.6797313504       67.1033551916  TIP3      6777            0.0000000000
     42582      6969  TIP3      H1             24.5592251887      -25.7647598252       66.4015709828  TIP3      6777            0.0000000000
     42583      6969  TIP3      H2             23.9373562781      -26.5400511753       67.5569961497  TIP3      6777            0.0000000000
     42584      6970  TIP3      OH2            30.8468545833      -23.6081004143       60.3361987585  TIP3      6778            0.0000000000
     42585      6970  TIP3      H1             30.5184067287      -22.7575506540       60.6959630348  TIP3      6778            0.0000000000
     42586      6970  TIP3      H2             30.1186937428      -24.2269193248       60.5611425402  TIP3      6778            0.0000000000
     42587      6971  TIP3      OH2            20.8653177852      -27.2778971822       72.3674598701  TIP3      6779            0.0000000000
     42588      6971  TIP3      H1             21.0396658975      -27.7251156956       73.2175626129  TIP3      6779            0.0000000000
     42589      6971  TIP3      H2             20.2497065331      -27.8900289077       71.9230942651  TIP3      6779            0.0000000000
     42590      6972  TIP3      OH2            27.8747309230      -27.7211034640       74.5487379947  TIP3      6780            0.0000000000
     42591      6972  TIP3      H1             27.5604823792      -28.0283162251       73.6866369132  TIP3      6780            0.0000000000
     42592      6972  TIP3      H2             28.8008454826      -28.0389679989       74.5393478730  TIP3      6780            0.0000000000
     42593      6973  TIP3      OH2            32.5656885590      -22.4016111940       72.4901549046  TIP3      6781            0.0000000000
     42594      6973  TIP3      H1             31.6467089222      -22.2156513209       72.2526434580  TIP3      6781            0.0000000000
     42595      6973  TIP3      H2             32.5393785869      -22.1005273312       73.4189881164  TIP3      6781            0.0000000000
     42596      6974  TIP3      OH2            33.6756826489      -26.5863569804       68.3926117429  TIP3      6782            0.0000000000
     42597      6974  TIP3      H1             32.7393679243      -26.8020540653       68.2480874429  TIP3      6782            0.0000000000
     42598      6974  TIP3      H2             34.1572090085      -27.3192028288       67.9688318154  TIP3      6782            0.0000000000
     42599      6975  TIP3      OH2            26.2562533494      -22.2262170920       64.4856756424  TIP3      6783            0.0000000000
     42600      6975  TIP3      H1             26.7524908013      -21.4189477959       64.2801596511  TIP3      6783            0.0000000000
     42601      6975  TIP3      H2             25.3759364644      -21.9967283968       64.1565148016  TIP3      6783            0.0000000000
     42602      6976  TIP3      OH2            22.0205601089      -27.3872200477       59.0558599933  TIP3      6784            0.0000000000
     42603      6976  TIP3      H1             22.5987349840      -26.7229276153       59.4694250382  TIP3      6784            0.0000000000
     42604      6976  TIP3      H2             21.1295079049      -27.0767353697       59.3054121383  TIP3      6784            0.0000000000
     42605      6977  TIP3      OH2            27.6669809848      -24.5721744212       64.0036031815  TIP3      6785            0.0000000000
     42606      6977  TIP3      H1             27.3609846233      -23.6474527519       64.0931063747  TIP3      6785            0.0000000000
     42607      6977  TIP3      H2             26.9386246705      -25.0414075867       64.4509099013  TIP3      6785            0.0000000000
     42608      6978  TIP3      OH2            28.1161535360      -20.3777643068       70.4155434125  TIP3      6786            0.0000000000
     42609      6978  TIP3      H1             28.5791569417      -19.5737206309       70.1287051039  TIP3      6786            0.0000000000
     42610      6978  TIP3      H2             28.7352674790      -20.7217920376       71.0846295559  TIP3      6786            0.0000000000
     42611      6979  TIP3      OH2            26.3471672081      -19.5746901105       63.5284139721  TIP3      6787            0.0000000000
     42612      6979  TIP3      H1             25.3821567737      -19.4318107470       63.6635009966  TIP3      6787            0.0000000000
     42613      6979  TIP3      H2             26.7102095592      -18.7384571357       63.8731024361  TIP3      6787            0.0000000000
     42614      6980  TIP3      OH2            31.6654611257      -24.3796901689       70.0405908086  TIP3      6788            0.0000000000
     42615      6980  TIP3      H1             31.3181178688      -24.5780065732       70.9370068610  TIP3      6788            0.0000000000
     42616      6980  TIP3      H2             32.2995008858      -25.0914770824       69.8729900899  TIP3      6788            0.0000000000
     42617      6981  TIP3      OH2            33.9539619741      -23.3773695815       59.1122389028  TIP3      6789            0.0000000000
     42618      6981  TIP3      H1             34.2879966116      -23.7516458453       59.9465517538  TIP3      6789            0.0000000000
     42619      6981  TIP3      H2             33.0011494952      -23.4880541949       59.2122607073  TIP3      6789            0.0000000000
     42620      6982  TIP3      OH2            34.4661524103      -19.8249449160       72.5059872426  TIP3      6790            0.0000000000
     42621      6982  TIP3      H1             33.7400266336      -20.2891794889       72.0382208463  TIP3      6790            0.0000000000
     42622      6982  TIP3      H2             34.6685570177      -19.1042813585       71.8701021327  TIP3      6790            0.0000000000
     42623      6983  TIP3      OH2            22.5159789267      -32.5437604908       71.9571939566  TIP3      6791            0.0000000000
     42624      6983  TIP3      H1             21.6080008914      -32.2015560555       71.8565315547  TIP3      6791            0.0000000000
     42625      6983  TIP3      H2             22.3833003939      -33.4448459370       72.2954099584  TIP3      6791            0.0000000000
     42626      6984  TIP3      OH2            34.7580196410      -24.7154391954       61.3464244704  TIP3      6792            0.0000000000
     42627      6984  TIP3      H1             34.5350481668      -25.4860807513       61.9145334504  TIP3      6792            0.0000000000
     42628      6984  TIP3      H2             35.6978055331      -24.5939942471       61.5657231847  TIP3      6792            0.0000000000
     42629      6985  TIP3      OH2            22.1314189638      -20.7630884931       70.3383692777  TIP3      6793            0.0000000000
     42630      6985  TIP3      H1             22.4369450868      -21.6829314394       70.3455082594  TIP3      6793            0.0000000000
     42631      6985  TIP3      H2             22.3942001275      -20.4706973574       71.2183338017  TIP3      6793            0.0000000000
     42632      6986  TIP3      OH2            28.1086055184      -22.2329636184       57.6182649315  TIP3      6794            0.0000000000
     42633      6986  TIP3      H1             28.2072908207      -22.9963421639       57.0263165739  TIP3      6794            0.0000000000
     42634      6986  TIP3      H2             27.6663336135      -22.6647889780       58.3816750540  TIP3      6794            0.0000000000
     42635      6987  TIP3      OH2            26.8791563926      -22.7068625777       60.0703894726  TIP3      6795            0.0000000000
     42636      6987  TIP3      H1             27.1504694151      -23.2217770362       60.8396881575  TIP3      6795            0.0000000000
     42637      6987  TIP3      H2             26.9709004291      -21.7804209296       60.3930980937  TIP3      6795            0.0000000000
     42638      6988  TIP3      OH2            23.4257744384      -25.4623476021       60.5593549282  TIP3      6796            0.0000000000
     42639      6988  TIP3      H1             22.7084700972      -25.0654227632       61.0932968125  TIP3      6796            0.0000000000
     42640      6988  TIP3      H2             23.9279288505      -24.6817605299       60.2617312833  TIP3      6796            0.0000000000
     42641      6989  TIP3      OH2            31.2312980393      -32.7801770623       70.8821902094  TIP3      6797            0.0000000000
     42642      6989  TIP3      H1             31.9920601432      -32.7257862196       71.4785134873  TIP3      6797            0.0000000000
     42643      6989  TIP3      H2             30.8808829930      -33.6717772892       71.0553131723  TIP3      6797            0.0000000000
     42644      6990  TIP3      OH2            32.0196333972      -33.1707866167       62.0011919421  TIP3      6798            0.0000000000
     42645      6990  TIP3      H1             32.2425849125      -32.7600161387       61.1324499271  TIP3      6798            0.0000000000
     42646      6990  TIP3      H2             32.6121836270      -32.7027563295       62.6011847383  TIP3      6798            0.0000000000
     42647      6991  TIP3      OH2            29.6854812235      -21.0416272337       60.7673209309  TIP3      6799            0.0000000000
     42648      6991  TIP3      H1             28.8672307051      -20.5107729025       60.8366218940  TIP3      6799            0.0000000000
     42649      6991  TIP3      H2             30.2242321075      -20.4945760067       60.1775103705  TIP3      6799            0.0000000000
     42650      6992  TIP3      OH2            29.2165800338      -31.4016140114       62.7715085709  TIP3      6800            0.0000000000
     42651      6992  TIP3      H1             30.0717808754      -30.9051052248       62.7593828428  TIP3      6800            0.0000000000
     42652      6992  TIP3      H2             29.1582900322      -31.8309411107       63.6328580823  TIP3      6800            0.0000000000
     42653      6993  TIP3      OH2            29.8142976212      -30.4197466089       71.9710928580  TIP3      6801            0.0000000000
     42654      6993  TIP3      H1             29.8949739143      -29.8719942999       72.7741983453  TIP3      6801            0.0000000000
     42655      6993  TIP3      H2             30.4603524371      -31.1335933078       72.0636420617  TIP3      6801            0.0000000000
     42656      6994  TIP3      OH2            30.0279749598      -34.3646542173       63.6559137530  TIP3      6802            0.0000000000
     42657      6994  TIP3      H1             29.7913692927      -33.7434407508       64.3576829818  TIP3      6802            0.0000000000
     42658      6994  TIP3      H2             30.7666981708      -33.8745157499       63.2187679915  TIP3      6802            0.0000000000
     42659      6995  TIP3      OH2            27.0805177916      -20.0101807272       60.7926860348  TIP3      6803            0.0000000000
     42660      6995  TIP3      H1             27.1956605781      -19.1957863237       60.2442086726  TIP3      6803            0.0000000000
     42661      6995  TIP3      H2             26.8120097383      -19.6447575634       61.6642804031  TIP3      6803            0.0000000000
     42662      6996  TIP3      OH2            25.7154038504      -33.2966611679       60.3733135188  TIP3      6804            0.0000000000
     42663      6996  TIP3      H1             25.6551793974      -32.3979543080       60.7419297295  TIP3      6804            0.0000000000
     42664      6996  TIP3      H2             26.6418237367      -33.5073283868       60.5997985338  TIP3      6804            0.0000000000
     42665      6997  TIP3      OH2            35.8485914564      -32.7547366100       72.6664578945  TIP3      6805            0.0000000000
     42666      6997  TIP3      H1             34.9993426426      -32.2547216757       72.6445572840  TIP3      6805            0.0000000000
     42667      6997  TIP3      H2             36.2316398005      -32.5529492063       71.8084723731  TIP3      6805            0.0000000000
     42668      6998  TIP3      OH2            34.5616993740      -28.7698944670       66.8660697401  TIP3      6806            0.0000000000
     42669      6998  TIP3      H1             33.7443560231      -29.2042668039       66.5575415668  TIP3      6806            0.0000000000
     42670      6998  TIP3      H2             34.9970831517      -29.4822327542       67.3442330994  TIP3      6806            0.0000000000
     42671      6999  TIP3      OH2            23.9639626027      -22.8470550527       59.4154030938  TIP3      6807            0.0000000000
     42672      6999  TIP3      H1             24.6319464044      -22.2200703012       59.7312848408  TIP3      6807            0.0000000000
     42673      6999  TIP3      H2             24.4850283449      -23.3107395859       58.7295607402  TIP3      6807            0.0000000000
     42674      7000  TIP3      OH2            22.3029293740      -30.1594617656       58.5792500950  TIP3      6808            0.0000000000
     42675      7000  TIP3      H1             22.3196508557      -29.2025538385       58.7728935288  TIP3      6808            0.0000000000
     42676      7000  TIP3      H2             21.4204605047      -30.3429734398       58.2469838507  TIP3      6808            0.0000000000
     42677      7001  TIP3      OH2            35.6996086356      -19.4810423911       68.4828497833  TIP3      6809            0.0000000000
     42678      7001  TIP3      H1             35.5429171749      -18.8122111475       67.7913800979  TIP3      6809            0.0000000000
     42679      7001  TIP3      H2             36.6429317751      -19.3940702938       68.6492089974  TIP3      6809            0.0000000000
     42680      7002  TIP3      OH2            22.8874039442      -35.2229236524       67.3596989794  TIP3      6810            0.0000000000
     42681      7002  TIP3      H1             22.9514264678      -35.3265729788       66.3811855443  TIP3      6810            0.0000000000
     42682      7002  TIP3      H2             22.7403690908      -36.1477415396       67.5822272639  TIP3      6810            0.0000000000
     42683      7003  TIP3      OH2            22.0820969672      -21.4664253646       63.4507254747  TIP3      6811            0.0000000000
     42684      7003  TIP3      H1             21.2288415734      -21.0169553660       63.4034829825  TIP3      6811            0.0000000000
     42685      7003  TIP3      H2             22.5580890949      -21.0021371095       62.7490405435  TIP3      6811            0.0000000000
     42686      7004  TIP3      OH2            21.2761101667      -18.8068466083       74.7367437458  TIP3      6812            0.0000000000
     42687      7004  TIP3      H1             21.8826097138      -19.0081308618       75.4791679829  TIP3      6812            0.0000000000
     42688      7004  TIP3      H2             20.8733453491      -19.6746278859       74.5618287935  TIP3      6812            0.0000000000
     42689      7005  TIP3      OH2            25.9460934367      -19.9434211552       76.3622715351  TIP3      6813            0.0000000000
     42690      7005  TIP3      H1             26.7377287682      -20.4024844302       76.6667319732  TIP3      6813            0.0000000000
     42691      7005  TIP3      H2             25.9359864688      -20.1803595997       75.4119811054  TIP3      6813            0.0000000000
     42692      7006  TIP3      OH2            30.1130226233      -20.3856776454       57.7365780764  TIP3      6814            0.0000000000
     42693      7006  TIP3      H1             29.4126221027      -21.0380757087       57.9655166652  TIP3      6814            0.0000000000
     42694      7006  TIP3      H2             30.8314281828      -20.9876991226       57.4950912240  TIP3      6814            0.0000000000
     42695      7007  TIP3      OH2            32.5190480829      -21.5245595447       75.0680285962  TIP3      6815            0.0000000000
     42696      7007  TIP3      H1             32.1704247024      -22.3888885079       75.3684298135  TIP3      6815            0.0000000000
     42697      7007  TIP3      H2             33.2876810082      -21.4127757643       75.6559601998  TIP3      6815            0.0000000000
     42698      7008  TIP3      OH2            34.4762659144      -20.8486872254       57.8153129928  TIP3      6816            0.0000000000
     42699      7008  TIP3      H1             34.9367744790      -21.4123499853       58.4503471703  TIP3      6816            0.0000000000
     42700      7008  TIP3      H2             35.2676049357      -20.3432911580       57.5025170927  TIP3      6816            0.0000000000
     42701      7009  TIP3      OH2            21.1871066334      -25.0658598392       75.7128411931  TIP3      6817            0.0000000000
     42702      7009  TIP3      H1             21.3700911332      -25.9682835627       75.3916497383  TIP3      6817            0.0000000000
     42703      7009  TIP3      H2             20.4622014812      -24.7874907876       75.1268532978  TIP3      6817            0.0000000000
     42704      7010  TIP3      OH2            25.5430601837      -24.6997954434       57.7426194426  TIP3      6818            0.0000000000
     42705      7010  TIP3      H1             25.6864143500      -25.4590984453       58.3283953357  TIP3      6818            0.0000000000
     42706      7010  TIP3      H2             26.2953169545      -24.8168470474       57.1280519930  TIP3      6818            0.0000000000
     42707      7011  TIP3      OH2            27.9100138688      -25.0682288639       75.1108505330  TIP3      6819            0.0000000000
     42708      7011  TIP3      H1             27.5822699573      -24.7419826104       74.2506455278  TIP3      6819            0.0000000000
     42709      7011  TIP3      H2             27.9826677757      -26.0421983506       74.9952673067  TIP3      6819            0.0000000000
     42710      7012  TIP3      OH2            30.9649752982      -23.5903966361       57.5231866334  TIP3      6820            0.0000000000
     42711      7012  TIP3      H1             30.7003904202      -23.5091012434       58.4526105716  TIP3      6820            0.0000000000
     42712      7012  TIP3      H2             30.7803364452      -24.5490254155       57.3802482456  TIP3      6820            0.0000000000
     42713      7013  TIP3      OH2            33.5790504228      -25.2364761699       72.5004693138  TIP3      6821            0.0000000000
     42714      7013  TIP3      H1             34.3636401912      -24.6346172368       72.4459617401  TIP3      6821            0.0000000000
     42715      7013  TIP3      H2             32.9071530110      -24.5463188738       72.5495153270  TIP3      6821            0.0000000000
     42716      7014  TIP3      OH2            22.0941125364      -27.8049418703       75.1060373142  TIP3      6822            0.0000000000
     42717      7014  TIP3      H1             22.5433930991      -28.6481520429       75.0066533309  TIP3      6822            0.0000000000
     42718      7014  TIP3      H2             21.8902879030      -27.8019145710       76.0601972247  TIP3      6822            0.0000000000
     42719      7015  TIP3      OH2            26.7574341977      -26.6791159749       60.1726180161  TIP3      6823            0.0000000000
     42720      7015  TIP3      H1             26.2377410054      -27.2181379043       60.7871929471  TIP3      6823            0.0000000000
     42721      7015  TIP3      H2             27.0458279904      -27.3461107681       59.5045618620  TIP3      6823            0.0000000000
     42722      7016  TIP3      OH2            26.0136670888      -28.8808729739       72.4584835249  TIP3      6824            0.0000000000
     42723      7016  TIP3      H1             25.4222727814      -28.1547126133       72.7171483137  TIP3      6824            0.0000000000
     42724      7016  TIP3      H2             26.4153804632      -28.5073958433       71.6551127961  TIP3      6824            0.0000000000
     42725      7017  TIP3      OH2            27.8129521966      -28.4411310247       58.3731143994  TIP3      6825            0.0000000000
     42726      7017  TIP3      H1             27.6735018934      -28.5451301939       57.4116643018  TIP3      6825            0.0000000000
     42727      7017  TIP3      H2             28.7928386806      -28.4060406681       58.4412158449  TIP3      6825            0.0000000000
     42728      7018  TIP3      OH2            31.0763802042      -26.2821074934       75.8425779187  TIP3      6826            0.0000000000
     42729      7018  TIP3      H1             32.0239092743      -26.3193664627       75.6583500909  TIP3      6826            0.0000000000
     42730      7018  TIP3      H2             30.9347934950      -27.0753931842       76.3816914321  TIP3      6826            0.0000000000
     42731      7019  TIP3      OH2            26.4292353127      -31.4870290401       73.5003268057  TIP3      6827            0.0000000000
     42732      7019  TIP3      H1             26.5458236637      -32.2084757982       72.8607478436  TIP3      6827            0.0000000000
     42733      7019  TIP3      H2             26.3803004756      -30.6786740001       72.9479724921  TIP3      6827            0.0000000000
     42734      7020  TIP3      OH2            26.8242746690      -33.0897144120       71.0417276502  TIP3      6828            0.0000000000
     42735      7020  TIP3      H1             27.3401402431      -32.6241016567       70.3432818590  TIP3      6828            0.0000000000
     42736      7020  TIP3      H2             25.9318082141      -33.1981496624       70.6349084550  TIP3      6828            0.0000000000
     42737      7021  TIP3      OH2            28.3625973034      -27.6234283880       71.3215630924  TIP3      6829            0.0000000000
     42738      7021  TIP3      H1             29.1168066659      -27.7906176852       70.7467124954  TIP3      6829            0.0000000000
     42739      7021  TIP3      H2             28.0059855056      -26.7872775656       70.9829718980  TIP3      6829            0.0000000000
     42740      7022  TIP3      OH2            32.8076564152      -29.8593815185       76.2997437573  TIP3      6830            0.0000000000
     42741      7022  TIP3      H1             33.0336218809      -30.7967165281       76.1833534303  TIP3      6830            0.0000000000
     42742      7022  TIP3      H2             33.6739134047      -29.4373769453       76.2501488767  TIP3      6830            0.0000000000
     42743      7023  TIP3      OH2            34.1101743003      -27.0231104648       74.4507934352  TIP3      6831            0.0000000000
     42744      7023  TIP3      H1             33.8249722065      -26.3466967190       73.7963215164  TIP3      6831            0.0000000000
     42745      7023  TIP3      H2             35.0340886671      -27.1562219667       74.2339647170  TIP3      6831            0.0000000000
     42746      7024  TIP3      OH2            24.9064844096      -30.2733615190       75.4710455601  TIP3      6832            0.0000000000
     42747      7024  TIP3      H1             24.1185771805      -30.7918217626       75.2391161230  TIP3      6832            0.0000000000
     42748      7024  TIP3      H2             25.5479833227      -30.5809569553       74.7975194452  TIP3      6832            0.0000000000
     42749      7025  TIP3      OH2            27.4696479418      -35.4804834499       71.7371102474  TIP3      6833            0.0000000000
     42750      7025  TIP3      H1             27.4151632349      -34.5396533559       71.4382920125  TIP3      6833            0.0000000000
     42751      7025  TIP3      H2             26.8888250340      -35.8949222475       71.0838820306  TIP3      6833            0.0000000000
     42752      7026  TIP3      OH2            28.8552028292      -31.3133940712       75.0703707980  TIP3      6834            0.0000000000
     42753      7026  TIP3      H1             28.5830565612      -31.6224019847       75.9543256444  TIP3      6834            0.0000000000
     42754      7026  TIP3      H2             28.0898296296      -31.5618066897       74.5241815643  TIP3      6834            0.0000000000
     42755      7027  TIP3      OH2            31.5694815371      -32.1889873944       74.1803164598  TIP3      6835            0.0000000000
     42756      7027  TIP3      H1             30.6097507228      -32.1757141930       74.3245193713  TIP3      6835            0.0000000000
     42757      7027  TIP3      H2             31.9031291068      -32.8216111815       74.8518972574  TIP3      6835            0.0000000000
     42758      7028  TIP3      OH2            33.2023474049      -33.4830875253       76.1209427624  TIP3      6836            0.0000000000
     42759      7028  TIP3      H1             33.1042039772      -34.4698909519       76.1095431567  TIP3      6836            0.0000000000
     42760      7028  TIP3      H2             32.9049101085      -33.2608944237       77.0275781655  TIP3      6836            0.0000000000
     42761      7029  TIP3      OH2            22.8800055622      -32.3757890446       75.2005755231  TIP3      6837            0.0000000000
     42762      7029  TIP3      H1             23.3284940180      -33.0159136261       74.6080855573  TIP3      6837            0.0000000000
     42763      7029  TIP3      H2             23.0236965356      -32.7303194260       76.1025638112  TIP3      6837            0.0000000000
     42764      7030  TIP3      OH2            27.8132261013       36.7187819984       74.1919867693  TIP3      6838            0.0000000000
     42765      7030  TIP3      H1             28.4978595848       36.0501829561       74.2448374408  TIP3      6838            0.0000000000
     42766      7030  TIP3      H2             27.7128639322       36.9280063202       73.2414938390  TIP3      6838            0.0000000000
     42767      7031  TIP3      OH2            28.2007384353      -34.6152814934       76.2301394901  TIP3      6839            0.0000000000
     42768      7031  TIP3      H1             28.0361615281      -35.1768719298       75.4405844926  TIP3      6839            0.0000000000
     42769      7031  TIP3      H2             27.5927245975      -33.8668917649       76.1531904639  TIP3      6839            0.0000000000
     42770      7032  TIP3      OH2            27.6620339578      -17.7573989212       59.4501832076  TIP3      6840            0.0000000000
     42771      7032  TIP3      H1             28.6290990253      -17.6707150869       59.5185838094  TIP3      6840            0.0000000000
     42772      7032  TIP3      H2             27.5125389614      -17.1541830802       58.7123482977  TIP3      6840            0.0000000000
     42773      7033  TIP3      OH2            21.2107653631      -23.1843101600       58.9210071879  TIP3      6841            0.0000000000
     42774      7033  TIP3      H1             22.1777423952      -23.0889592184       59.1011354332  TIP3      6841            0.0000000000
     42775      7033  TIP3      H2             21.2606665884      -23.8275428398       58.1743185829  TIP3      6841            0.0000000000
     42776      7034  TIP3      OH2            20.0023712382      -17.8058006808       63.8782689627  TIP3      6842            0.0000000000
     42777      7034  TIP3      H1             19.2730355019      -18.2850613481       63.4267597322  TIP3      6842            0.0000000000
     42778      7034  TIP3      H2             20.2734464539      -18.4542689950       64.5530058316  TIP3      6842            0.0000000000
     42779      7035  TIP3      OH2            20.8160411366      -19.6605830355       65.7644589853  TIP3      6843            0.0000000000
     42780      7035  TIP3      H1             20.4634867614      -20.5396037713       65.9629649777  TIP3      6843            0.0000000000
     42781      7035  TIP3      H2             21.0579335889      -19.3360124649       66.6490172289  TIP3      6843            0.0000000000
     42782      7036  TIP3      OH2            36.2817809467      -21.6101599121       70.9402765120  TIP3      6844            0.0000000000
     42783      7036  TIP3      H1             35.6208583482      -21.1736314785       71.4978792257  TIP3      6844            0.0000000000
     42784      7036  TIP3      H2             35.7533782254      -21.9742761963       70.2032251219  TIP3      6844            0.0000000000
     42785      7037  TIP3      OH2            35.3515679446      -28.6041318878       64.2771193247  TIP3      6845            0.0000000000
     42786      7037  TIP3      H1             35.6236776146      -29.5248590932       64.3191561745  TIP3      6845            0.0000000000
     42787      7037  TIP3      H2             35.4732569029      -28.3486718430       65.2166656050  TIP3      6845            0.0000000000
     42788      7038  TIP3      OH2            20.8763414816      -26.5822553751       68.2582136339  TIP3      6846            0.0000000000
     42789      7038  TIP3      H1             21.0513503636      -26.6644936111       67.2950284842  TIP3      6846            0.0000000000
     42790      7038  TIP3      H2             21.7696365902      -26.7626671084       68.6101275415  TIP3      6846            0.0000000000
     42791      7039  TIP3      OH2            35.9276067842      -32.6331691728       57.6857541824  TIP3      6847            0.0000000000
     42792      7039  TIP3      H1             36.5305412019      -33.0456368528       58.3052516686  TIP3      6847            0.0000000000
     42793      7039  TIP3      H2             35.0734974936      -33.0702489765       57.8584945477  TIP3      6847            0.0000000000
     42794      7040  TIP3      OH2            35.5022475371      -31.1593870602       62.4940201023  TIP3      6848            0.0000000000
     42795      7040  TIP3      H1             35.8018882753      -31.9907017953       62.8997753126  TIP3      6848            0.0000000000
     42796      7040  TIP3      H2             36.3395580804      -30.7911035808       62.1855960466  TIP3      6848            0.0000000000
     42797      7041  TIP3      OH2           -37.0647709064      -31.3667213211       68.0721609462  TIP3      6849            0.0000000000
     42798      7041  TIP3      H1            -36.1651748101      -31.0415730244       67.9554771836  TIP3      6849            0.0000000000
     42799      7041  TIP3      H2            -37.2623529559      -30.7555586715       68.7978574550  TIP3      6849            0.0000000000
     42800      7042  TIP3      OH2            36.2804298664      -29.7478094811       71.1578067495  TIP3      6850            0.0000000000
     42801      7042  TIP3      H1             35.3327393227      -29.5089034517       71.2181682918  TIP3      6850            0.0000000000
     42802      7042  TIP3      H2             36.6080181064      -29.0836412027       70.5226364378  TIP3      6850            0.0000000000
     42803      7043  TIP3      OH2            20.4904534229      -31.2928952322       74.3717218336  TIP3      6851            0.0000000000
     42804      7043  TIP3      H1             21.4327631170      -31.4523598534       74.5840164595  TIP3      6851            0.0000000000
     42805      7043  TIP3      H2             19.9913491843      -32.0670082681       74.6749819564  TIP3      6851            0.0000000000
     42806      7044  TIP3      OH2            35.2995354340      -34.1292239237       63.3602423971  TIP3      6852            0.0000000000
     42807      7044  TIP3      H1             36.2333363639      -34.2615182693       63.5793227519  TIP3      6852            0.0000000000
     42808      7044  TIP3      H2             35.3204007374      -34.5342494964       62.4632620169  TIP3      6852            0.0000000000
     42809      7045  TIP3      OH2            21.6594868402      -32.9399175889       67.2176586278  TIP3      6853            0.0000000000
     42810      7045  TIP3      H1             22.0918040676      -33.7853386915       67.4947939748  TIP3      6853            0.0000000000
     42811      7045  TIP3      H2             22.2316302008      -32.2931936689       67.6465322271  TIP3      6853            0.0000000000
     42812      7046  TIP3      OH2            19.9764903084      -29.9809209305       68.3057848200  TIP3      6854            0.0000000000
     42813      7046  TIP3      H1             20.5378263121      -30.2362577087       67.5452558908  TIP3      6854            0.0000000000
     42814      7046  TIP3      H2             20.4465239513      -29.1742383292       68.5640224730  TIP3      6854            0.0000000000
     42815      7047  TIP3      OH2            20.3111668028      -33.7890545498       62.3873641764  TIP3      6855            0.0000000000
     42816      7047  TIP3      H1             19.3978615689      -33.5283836449       62.1891099395  TIP3      6855            0.0000000000
     42817      7047  TIP3      H2             20.7735576865      -33.2901181488       61.6781064851  TIP3      6855            0.0000000000
     42818      7048  TIP3      OH2            34.8900021692      -18.9714798037       64.4060128608  TIP3      6856            0.0000000000
     42819      7048  TIP3      H1             35.5580940211      -19.2868494506       63.7782624940  TIP3      6856            0.0000000000
     42820      7048  TIP3      H2             35.4122852818      -18.3854633895       64.9825285746  TIP3      6856            0.0000000000
     42821      7049  TIP3      OH2            20.2981149324      -34.9761208288       70.7150450437  TIP3      6857            0.0000000000
     42822      7049  TIP3      H1             19.5906507826      -35.2582664799       71.3091635219  TIP3      6857            0.0000000000
     42823      7049  TIP3      H2             19.8212365708      -34.4186321603       70.0705105545  TIP3      6857            0.0000000000
     42824      7050  TIP3      OH2            22.5286066508      -21.8572592785       74.8310090262  TIP3      6858            0.0000000000
     42825      7050  TIP3      H1             21.6834338272      -21.6555790585       74.4007957006  TIP3      6858            0.0000000000
     42826      7050  TIP3      H2             22.2544536918      -21.9394420145       75.7496454866  TIP3      6858            0.0000000000
     42827      7051  TIP3      OH2            25.4268141285      -20.8722930397       71.1059374107  TIP3      6859            0.0000000000
     42828      7051  TIP3      H1             25.0985093335      -20.0047826651       70.8327223970  TIP3      6859            0.0000000000
     42829      7051  TIP3      H2             26.3534770607      -20.7891809423       70.8006005088  TIP3      6859            0.0000000000
     42830      7052  TIP3      OH2            29.7472201257      -19.4594508457       74.0109877382  TIP3      6860            0.0000000000
     42831      7052  TIP3      H1             29.8800850381      -19.7983333573       74.9287317993  TIP3      6860            0.0000000000
     42832      7052  TIP3      H2             30.6476041128      -19.1504300385       73.7804288794  TIP3      6860            0.0000000000
     42833      7053  TIP3      OH2            32.0583270947      -18.1861832468       73.3281078071  TIP3      6861            0.0000000000
     42834      7053  TIP3      H1             32.7993698598      -18.7625318246       73.0866198671  TIP3      6861            0.0000000000
     42835      7053  TIP3      H2             32.4385684392      -17.7328744680       74.1106777449  TIP3      6861            0.0000000000
     42836      7054  TIP3      OH2            22.8514742914      -17.6405272574       71.0976927732  TIP3      6862            0.0000000000
     42837      7054  TIP3      H1             22.1207160019      -17.1373210315       70.7036934051  TIP3      6862            0.0000000000
     42838      7054  TIP3      H2             22.5413443040      -17.8282431845       71.9954454018  TIP3      6862            0.0000000000
     42839      7055  TIP3      OH2            25.3197549628      -18.0610824556       70.1730859446  TIP3      6863            0.0000000000
     42840      7055  TIP3      H1             24.4278711927      -17.9083485476       70.5659785057  TIP3      6863            0.0000000000
     42841      7055  TIP3      H2             25.2659749556      -17.4710212352       69.3984974960  TIP3      6863            0.0000000000
     42842      7056  TIP3      OH2            29.9887391618      -18.1635657534       69.3510778645  TIP3      6864            0.0000000000
     42843      7056  TIP3      H1             29.5596544571      -17.5925226138       68.6936217988  TIP3      6864            0.0000000000
     42844      7056  TIP3      H2             30.1567627876      -17.5232147457       70.0752724499  TIP3      6864            0.0000000000
     42845      7057  TIP3      OH2            32.3106801856      -19.3456797990       70.3678242448  TIP3      6865            0.0000000000
     42846      7057  TIP3      H1             31.4545713514      -19.0699345331       70.0036210251  TIP3      6865            0.0000000000
     42847      7057  TIP3      H2             32.7715769657      -18.4886263997       70.3016088645  TIP3      6865            0.0000000000
     42848      7058  TIP3      OH2            34.7614837673      -17.7706147115       70.5837766553  TIP3      6866            0.0000000000
     42849      7058  TIP3      H1             34.7569247370      -16.8189855154       70.3681419024  TIP3      6866            0.0000000000
     42850      7058  TIP3      H2             35.1034129469      -18.1406443165       69.7483595839  TIP3      6866            0.0000000000
     42851      7059  TIP3      OH2            22.3129335946      -18.9888879163       68.0421761389  TIP3      6867            0.0000000000
     42852      7059  TIP3      H1             22.2309624973      -19.4487022900       68.9044699931  TIP3      6867            0.0000000000
     42853      7059  TIP3      H2             23.1274468859      -19.3686240929       67.6545954417  TIP3      6867            0.0000000000
     42854      7060  TIP3      OH2            24.3849819037      -20.2779173548       66.6954153978  TIP3      6868            0.0000000000
     42855      7060  TIP3      H1             24.2229312767      -21.2113194102       66.9300389313  TIP3      6868            0.0000000000
     42856      7060  TIP3      H2             25.2420756928      -20.1214877290       67.1479613510  TIP3      6868            0.0000000000
     42857      7061  TIP3      OH2            26.9608683795      -19.7947454898       67.5682318432  TIP3      6869            0.0000000000
     42858      7061  TIP3      H1             27.1428626893      -20.7161765769       67.3092278509  TIP3      6869            0.0000000000
     42859      7061  TIP3      H2             27.0335129258      -19.8454382564       68.5332331771  TIP3      6869            0.0000000000
     42860      7062  TIP3      OH2            30.2766217996      -34.0662869970       66.6480222256  TIP3      6870            0.0000000000
     42861      7062  TIP3      H1             29.7430649290      -34.8043037755       66.9899157116  TIP3      6870            0.0000000000
     42862      7062  TIP3      H2             31.0099200144      -34.5661563888       66.2255403171  TIP3      6870            0.0000000000
     42863      7063  TIP3      OH2            35.5832549988      -36.0493261399       66.8524700447  TIP3      6871            0.0000000000
     42864      7063  TIP3      H1             36.1812782356      -35.5076193263       66.3426279884  TIP3      6871            0.0000000000
     42865      7063  TIP3      H2             34.7149903422      -35.7307739869       66.6073316756  TIP3      6871            0.0000000000
     42866      7064  TIP3      OH2            22.7754245642      -35.4880835363       64.5954500708  TIP3      6872            0.0000000000
     42867      7064  TIP3      H1             22.0336625340      -35.7316933011       64.0294729435  TIP3      6872            0.0000000000
     42868      7064  TIP3      H2             23.2821527962      -36.3215892386       64.6221890251  TIP3      6872            0.0000000000
     42869      7065  TIP3      OH2            21.5938248291      -35.7612560315       60.3055094474  TIP3      6873            0.0000000000
     42870      7065  TIP3      H1             22.0324337193      -35.1233940113       59.7194251292  TIP3      6873            0.0000000000
     42871      7065  TIP3      H2             20.9691822449      -35.1917513568       60.7580855915  TIP3      6873            0.0000000000
     42872      7066  TIP3      OH2            27.3278711019      -35.5930175708       64.3416416435  TIP3      6874            0.0000000000
     42873      7066  TIP3      H1             28.2211832453      -35.2233117815       64.2984070163  TIP3      6874            0.0000000000
     42874      7066  TIP3      H2             27.2449235112      -35.8294688405       65.2729505742  TIP3      6874            0.0000000000
     42875      7067  TIP3      OH2            32.6828623847      -35.2141581819       66.1221113825  TIP3      6875            0.0000000000
     42876      7067  TIP3      H1             32.8880000637      -35.2262386657       65.1841757460  TIP3      6875            0.0000000000
     42877      7067  TIP3      H2             32.6307172987      -36.1945304654       66.2457637516  TIP3      6875            0.0000000000
     42878      7068  TIP3      OH2            34.2374200978      -35.5953125712       61.5336524715  TIP3      6876            0.0000000000
     42879      7068  TIP3      H1             33.5075120391      -34.9661769822       61.4689531717  TIP3      6876            0.0000000000
     42880      7068  TIP3      H2             33.8222352820      -36.4164862812       61.8152958162  TIP3      6876            0.0000000000
     42881      7069  TIP3      OH2            21.4968920036      -19.8161460975       61.3106972811  TIP3      6877            0.0000000000
     42882      7069  TIP3      H1             20.8398773680      -19.8300389986       60.5906508288  TIP3      6877            0.0000000000
     42883      7069  TIP3      H2             21.4940037355      -18.8610096980       61.4822647257  TIP3      6877            0.0000000000
     42884      7070  TIP3      OH2            23.3796432793      -33.8941188799       58.8179738736  TIP3      6878            0.0000000000
     42885      7070  TIP3      H1             23.9522973661      -34.4359967614       58.2469415928  TIP3      6878            0.0000000000
     42886      7070  TIP3      H2             24.0358669476      -33.5071825006       59.4292472452  TIP3      6878            0.0000000000
     42887      7071  TIP3      OH2            28.3485844793      -33.5771032612       61.2530395412  TIP3      6879            0.0000000000
     42888      7071  TIP3      H1             28.7226719540      -34.1620228423       61.9385390161  TIP3      6879            0.0000000000
     42889      7071  TIP3      H2             28.5261496442      -32.7069510048       61.6569157259  TIP3      6879            0.0000000000
     42890      7072  TIP3      OH2            30.3655325838      -18.4996828284       59.6382429451  TIP3      6880            0.0000000000
     42891      7072  TIP3      H1             31.2946640760      -18.2903376589       59.4231018827  TIP3      6880            0.0000000000
     42892      7072  TIP3      H2             30.1507152343      -19.0246106580       58.8400268015  TIP3      6880            0.0000000000
     42893      7073  TIP3      OH2            22.5261403590      -34.9548857853       74.0170303520  TIP3      6881            0.0000000000
     42894      7073  TIP3      H1             22.3199875717      -35.8390509981       74.3614137730  TIP3      6881            0.0000000000
     42895      7073  TIP3      H2             23.4907797510      -34.9807246410       74.2815372738  TIP3      6881            0.0000000000
     42896      7074  TIP3      OH2            24.4328781755      -35.3879750237       75.5380952431  TIP3      6882            0.0000000000
     42897      7074  TIP3      H1             25.3808874346      -35.5864571630       75.3972161203  TIP3      6882            0.0000000000
     42898      7074  TIP3      H2             24.3005453849      -36.2402900858       76.0082688526  TIP3      6882            0.0000000000
     42899      7075  TIP3      OH2            23.2904836020      -18.8282272739       58.2509798774  TIP3      6883            0.0000000000
     42900      7075  TIP3      H1             23.0315786395      -18.5700945204       59.1474242785  TIP3      6883            0.0000000000
     42901      7075  TIP3      H2             24.0740288611      -19.3916039820       58.4061334651  TIP3      6883            0.0000000000
     42902      7076  TIP3      OH2            33.0827944971       37.0754810251       75.7166849242  TIP3      6884            0.0000000000
     42903      7076  TIP3      H1             33.0995655712       36.5101999190       76.5228476090  TIP3      6884            0.0000000000
     42904      7076  TIP3      H2             33.9597280275       36.8560403420       75.3834615577  TIP3      6884            0.0000000000
     42905      7077  TIP3      OH2            36.1197002336      -20.3697293231       74.5581661527  TIP3      6885            0.0000000000
     42906      7077  TIP3      H1             35.4552256830      -20.4315521974       73.8378155572  TIP3      6885            0.0000000000
     42907      7077  TIP3      H2             36.1160256092      -19.3901615116       74.6573054543  TIP3      6885            0.0000000000
     42908      7078  TIP3      OH2           -24.6730702452       -7.5183950154       64.4163403200  TIP3      6886            0.0000000000
     42909      7078  TIP3      H1            -24.6821384561       -6.5394826196       64.3857353350  TIP3      6886            0.0000000000
     42910      7078  TIP3      H2            -25.3941222834       -7.7558000837       63.8115482334  TIP3      6886            0.0000000000
     42911      7079  TIP3      OH2           -25.8350792831       -8.2596349631       67.9251833407  TIP3      6887            0.0000000000
     42912      7079  TIP3      H1            -25.8282349935       -8.9170331264       68.6372278761  TIP3      6887            0.0000000000
     42913      7079  TIP3      H2            -26.1377216854       -8.7765177977       67.1590007050  TIP3      6887            0.0000000000
     42914      7080  TIP3      OH2           -33.4038237172       -8.6025567703       69.4304435274  TIP3      6888            0.0000000000
     42915      7080  TIP3      H1            -33.3472578052       -9.2733652204       70.1423530308  TIP3      6888            0.0000000000
     42916      7080  TIP3      H2            -32.7042659716       -7.9963156188       69.7105228457  TIP3      6888            0.0000000000
     42917      7081  TIP3      OH2           -22.1209553499       -5.3259894414       66.1942909229  TIP3      6889            0.0000000000
     42918      7081  TIP3      H1            -22.5426049268       -6.0383333912       66.6854654352  TIP3      6889            0.0000000000
     42919      7081  TIP3      H2            -22.0899189223       -4.6246975758       66.8653208192  TIP3      6889            0.0000000000
     42920      7082  TIP3      OH2           -32.5359625465       -4.1599306424       67.9861852259  TIP3      6890            0.0000000000
     42921      7082  TIP3      H1            -32.8501018417       -5.0163166107       67.6406747109  TIP3      6890            0.0000000000
     42922      7082  TIP3      H2            -31.5766955557       -4.3263794955       68.0094286776  TIP3      6890            0.0000000000
     42923      7083  TIP3      OH2           -35.6224092896      -10.5911344204       63.0416878093  TIP3      6891            0.0000000000
     42924      7083  TIP3      H1            -36.0675007648       -9.7957452861       63.4197536453  TIP3      6891            0.0000000000
     42925      7083  TIP3      H2            -36.4132051392      -11.1268834640       63.0335306367  TIP3      6891            0.0000000000
     42926      7084  TIP3      OH2           -35.2190573543       -8.4316678790       65.5587665372  TIP3      6892            0.0000000000
     42927      7084  TIP3      H1            -34.9170174322       -9.1876464465       66.0839395389  TIP3      6892            0.0000000000
     42928      7084  TIP3      H2            -34.4803415602       -8.2550396257       64.9594027541  TIP3      6892            0.0000000000
     42929      7085  TIP3      OH2           -25.0085446277       -0.1615566183       66.4362246937  TIP3      6893            0.0000000000
     42930      7085  TIP3      H1            -24.3564936868       -0.8488197533       66.1525307425  TIP3      6893            0.0000000000
     42931      7085  TIP3      H2            -25.2199542589       -0.4926322280       67.3093432451  TIP3      6893            0.0000000000
     42932      7086  TIP3      OH2           -27.4371244978       -5.8662733502       68.3906255525  TIP3      6894            0.0000000000
     42933      7086  TIP3      H1            -27.0984794719       -6.4949855572       67.7318304315  TIP3      6894            0.0000000000
     42934      7086  TIP3      H2            -26.6252389485       -5.7100863934       68.9045187854  TIP3      6894            0.0000000000
     42935      7087  TIP3      OH2           -18.8344334037      -14.2085832584       69.1138508443  TIP3      6895            0.0000000000
     42936      7087  TIP3      H1            -18.6604015500      -13.6173712454       69.8772279525  TIP3      6895            0.0000000000
     42937      7087  TIP3      H2            -18.2755414365      -13.7827556252       68.4396947815  TIP3      6895            0.0000000000
     42938      7088  TIP3      OH2           -24.2714936044      -11.3979537458       68.7041297572  TIP3      6896            0.0000000000
     42939      7088  TIP3      H1            -24.0950262718      -12.3530592916       68.6947113451  TIP3      6896            0.0000000000
     42940      7088  TIP3      H2            -24.3708463220      -11.2515671134       67.7424742158  TIP3      6896            0.0000000000
     42941      7089  TIP3      OH2           -31.1527284014      -13.3070859276       65.9253508357  TIP3      6897            0.0000000000
     42942      7089  TIP3      H1            -31.0372010892      -12.4794875318       65.4237328902  TIP3      6897            0.0000000000
     42943      7089  TIP3      H2            -31.5344312060      -13.8847034611       65.2298513603  TIP3      6897            0.0000000000
     42944      7090  TIP3      OH2           -23.4239923215      -13.2367680070       64.2905425632  TIP3      6898            0.0000000000
     42945      7090  TIP3      H1            -22.7592734745      -13.5336293014       64.9558979204  TIP3      6898            0.0000000000
     42946      7090  TIP3      H2            -22.8538828857      -12.6516679980       63.7621290299  TIP3      6898            0.0000000000
     42947      7091  TIP3      OH2           -34.5637580145      -10.9839128297       66.5946726715  TIP3      6899            0.0000000000
     42948      7091  TIP3      H1            -33.8356069950      -11.4500340235       67.0574854458  TIP3      6899            0.0000000000
     42949      7091  TIP3      H2            -34.3822478259      -11.2600511284       65.6864509710  TIP3      6899            0.0000000000
     42950      7092  TIP3      OH2           -29.3778722228       -9.3441128980       65.9724994173  TIP3      6900            0.0000000000
     42951      7092  TIP3      H1            -28.7007520843       -9.9228407281       66.3663830322  TIP3      6900            0.0000000000
     42952      7092  TIP3      H2            -29.8876059354      -10.0042261644       65.4646381197  TIP3      6900            0.0000000000
     42953      7093  TIP3      OH2           -18.3864381597      -12.8184727762       71.3958028776  TIP3      6901            0.0000000000
     42954      7093  TIP3      H1            -18.9916816124      -12.0506325493       71.2735066786  TIP3      6901            0.0000000000
     42955      7093  TIP3      H2            -18.3621574472      -12.8837944322       72.3579122322  TIP3      6901            0.0000000000
     42956      7094  TIP3      OH2           -32.2033248977      -14.4097094572       69.9471559734  TIP3      6902            0.0000000000
     42957      7094  TIP3      H1            -32.5132842610      -13.8389251359       69.2139004860  TIP3      6902            0.0000000000
     42958      7094  TIP3      H2            -32.8883783268      -14.1866910755       70.6246347565  TIP3      6902            0.0000000000
     42959      7095  TIP3      OH2           -24.9655601661       -4.9252670488       63.5053341399  TIP3      6903            0.0000000000
     42960      7095  TIP3      H1            -25.2192766092       -5.2009766386       62.6153166459  TIP3      6903            0.0000000000
     42961      7095  TIP3      H2            -25.2664094658       -3.9912207362       63.5539180678  TIP3      6903            0.0000000000
     42962      7096  TIP3      OH2           -29.7061418527       -6.7670227305       70.1961350187  TIP3      6904            0.0000000000
     42963      7096  TIP3      H1            -30.4248395859       -6.1327173405       70.4139637739  TIP3      6904            0.0000000000
     42964      7096  TIP3      H2            -29.0129737733       -6.1603660028       69.9013690473  TIP3      6904            0.0000000000
     42965      7097  TIP3      OH2           -21.6617908701      -13.8857719127       66.3107865975  TIP3      6905            0.0000000000
     42966      7097  TIP3      H1            -21.8144609236      -14.6715900475       66.8330420422  TIP3      6905            0.0000000000
     42967      7097  TIP3      H2            -20.9416982650      -13.4483422173       66.8010905864  TIP3      6905            0.0000000000
     42968      7098  TIP3      OH2           -32.6996936719      -12.5727813930       67.9910324087  TIP3      6906            0.0000000000
     42969      7098  TIP3      H1            -32.0820472106      -11.8752057135       68.3162060155  TIP3      6906            0.0000000000
     42970      7098  TIP3      H2            -32.1512008218      -12.9578890609       67.2562399274  TIP3      6906            0.0000000000
     42971      7099  TIP3      OH2           -31.2937994063       -4.7793325148       71.0048432618  TIP3      6907            0.0000000000
     42972      7099  TIP3      H1            -31.3376008543       -3.8590032128       70.6794141094  TIP3      6907            0.0000000000
     42973      7099  TIP3      H2            -32.1744948689       -4.8555785236       71.4464063918  TIP3      6907            0.0000000000
     42974      7100  TIP3      OH2           -35.2384025746       -5.1163397258       61.7623428159  TIP3      6908            0.0000000000
     42975      7100  TIP3      H1            -35.4403468707       -4.7803017312       60.8747897325  TIP3      6908            0.0000000000
     42976      7100  TIP3      H2            -35.1276128802       -4.3083924892       62.2980895407  TIP3      6908            0.0000000000
     42977      7101  TIP3      OH2           -21.5966067825       -3.4781450674       68.5694606494  TIP3      6909            0.0000000000
     42978      7101  TIP3      H1            -22.5653122610       -3.3677654288       68.6877975785  TIP3      6909            0.0000000000
     42979      7101  TIP3      H2            -21.3281970193       -2.5636841045       68.3658830514  TIP3      6909            0.0000000000
     42980      7102  TIP3      OH2           -21.2720796803      -15.1985464867       69.9571828076  TIP3      6910            0.0000000000
     42981      7102  TIP3      H1            -21.9969080292      -14.5646651234       69.8646903193  TIP3      6910            0.0000000000
     42982      7102  TIP3      H2            -20.5593909155      -14.7788256718       69.4350440528  TIP3      6910            0.0000000000
     42983      7103  TIP3      OH2           -28.3050171785      -17.0704023008       67.4180390532  TIP3      6911            0.0000000000
     42984      7103  TIP3      H1            -28.4374294547      -18.0348925094       67.3470252769  TIP3      6911            0.0000000000
     42985      7103  TIP3      H2            -29.1849864433      -16.7712366179       67.7285507105  TIP3      6911            0.0000000000
     42986      7104  TIP3      OH2           -23.3337862293       -1.6944363087       65.1564456844  TIP3      6912            0.0000000000
     42987      7104  TIP3      H1            -22.9091748767       -2.4155756545       64.6466888758  TIP3      6912            0.0000000000
     42988      7104  TIP3      H2            -22.9010852238       -0.9068737922       64.7642079767  TIP3      6912            0.0000000000
     42989      7105  TIP3      OH2           -22.1320599123       -3.7503507022       63.6761568051  TIP3      6913            0.0000000000
     42990      7105  TIP3      H1            -22.4231449485       -4.4550626073       63.0732555357  TIP3      6913            0.0000000000
     42991      7105  TIP3      H2            -22.0884263529       -4.2524970529       64.5112166292  TIP3      6913            0.0000000000
     42992      7106  TIP3      OH2           -20.5059250131       -5.1713982675       72.1678352477  TIP3      6914            0.0000000000
     42993      7106  TIP3      H1            -20.3620531369       -5.8271897588       71.4501198035  TIP3      6914            0.0000000000
     42994      7106  TIP3      H2            -20.3015708817       -4.3306602157       71.7225497417  TIP3      6914            0.0000000000
     42995      7107  TIP3      OH2           -26.0147792785       -8.2932029094       61.9278897494  TIP3      6915            0.0000000000
     42996      7107  TIP3      H1            -26.7027104962       -7.7071966988       61.5630450361  TIP3      6915            0.0000000000
     42997      7107  TIP3      H2            -25.2916708287       -8.1976827413       61.2772654882  TIP3      6915            0.0000000000
     42998      7108  TIP3      OH2           -25.9300959152       -9.7158333245       58.9375572495  TIP3      6916            0.0000000000
     42999      7108  TIP3      H1            -25.2282295705       -9.7342764396       59.6046166194  TIP3      6916            0.0000000000
     43000      7108  TIP3      H2            -25.6228883025      -10.4348048808       58.3710183073  TIP3      6916            0.0000000000
     43001      7109  TIP3      OH2           -18.6209783258       -8.8606270916       70.2175623767  TIP3      6917            0.0000000000
     43002      7109  TIP3      H1            -19.2795160066       -8.1384452264       70.2501586123  TIP3      6917            0.0000000000
     43003      7109  TIP3      H2            -18.1130185713       -8.6205506319       69.4229877269  TIP3      6917            0.0000000000
     43004      7110  TIP3      OH2           -22.6124913598       -8.0153399517       62.8088742217  TIP3      6918            0.0000000000
     43005      7110  TIP3      H1            -23.3200520043       -7.8256213290       63.4598877653  TIP3      6918            0.0000000000
     43006      7110  TIP3      H2            -22.1145632398       -8.7028709595       63.3336000671  TIP3      6918            0.0000000000
     43007      7111  TIP3      OH2           -22.6330898278       -9.9083955858       71.9797110535  TIP3      6919            0.0000000000
     43008      7111  TIP3      H1            -22.6264745326       -9.0859802182       72.4960373708  TIP3      6919            0.0000000000
     43009      7111  TIP3      H2            -23.2612595774       -9.6191568352       71.2845626481  TIP3      6919            0.0000000000
     43010      7112  TIP3      OH2           -30.9294399626       -7.4058283349       64.7727873187  TIP3      6920            0.0000000000
     43011      7112  TIP3      H1            -31.2823120313       -7.8083671891       63.9421998850  TIP3      6920            0.0000000000
     43012      7112  TIP3      H2            -30.3276637272       -8.1079606522       65.1043592376  TIP3      6920            0.0000000000
     43013      7113  TIP3      OH2           -29.6289003481       -4.0272130122       67.4470051659  TIP3      6921            0.0000000000
     43014      7113  TIP3      H1            -29.6330770320       -4.5557926399       66.6389872184  TIP3      6921            0.0000000000
     43015      7113  TIP3      H2            -28.8473713571       -4.3859626771       67.9083437213  TIP3      6921            0.0000000000
     43016      7114  TIP3      OH2           -30.5906779465       -8.6747809701       68.4316191494  TIP3      6922            0.0000000000
     43017      7114  TIP3      H1            -30.0575768115       -8.5620392687       67.6231960273  TIP3      6922            0.0000000000
     43018      7114  TIP3      H2            -30.2313056497       -7.9925520090       69.0423812066  TIP3      6922            0.0000000000
     43019      7115  TIP3      OH2           -24.2102163659       -3.0943644704       69.1351011663  TIP3      6923            0.0000000000
     43020      7115  TIP3      H1            -24.4939679941       -2.4572023240       69.7956045222  TIP3      6923            0.0000000000
     43021      7115  TIP3      H2            -24.4637527381       -3.9482537546       69.5608273139  TIP3      6923            0.0000000000
     43022      7116  TIP3      OH2           -29.6671302390       -4.2396562906       73.1268598379  TIP3      6924            0.0000000000
     43023      7116  TIP3      H1            -30.0825806286       -3.4989990907       73.6163383939  TIP3      6924            0.0000000000
     43024      7116  TIP3      H2            -30.3378330916       -4.4357275594       72.4290425825  TIP3      6924            0.0000000000
     43025      7117  TIP3      OH2           -23.6802838437       -8.8674984154       60.5159207937  TIP3      6925            0.0000000000
     43026      7117  TIP3      H1            -23.1218164342       -8.7072834430       61.3218338698  TIP3      6925            0.0000000000
     43027      7117  TIP3      H2            -23.2305420171       -8.3724539951       59.7966137000  TIP3      6925            0.0000000000
     43028      7118  TIP3      OH2           -32.7267987847       -8.0628666130       72.3036397618  TIP3      6926            0.0000000000
     43029      7118  TIP3      H1            -32.6823570782       -7.3844016240       73.0005047012  TIP3      6926            0.0000000000
     43030      7118  TIP3      H2            -33.6678651949       -7.9792383066       72.0755558663  TIP3      6926            0.0000000000
     43031      7119  TIP3      OH2           -25.9720333032       -2.1495956080       63.9914989226  TIP3      6927            0.0000000000
     43032      7119  TIP3      H1            -25.5406255858       -1.8434395608       64.7970427242  TIP3      6927            0.0000000000
     43033      7119  TIP3      H2            -26.5292957434       -1.4005610937       63.7524735051  TIP3      6927            0.0000000000
     43034      7120  TIP3      OH2           -31.4202193645       -2.2154958352       73.8726296744  TIP3      6928            0.0000000000
     43035      7120  TIP3      H1            -31.4974945147       -2.2992271550       72.9052549767  TIP3      6928            0.0000000000
     43036      7120  TIP3      H2            -32.3535943780       -2.3400544912       74.1383416872  TIP3      6928            0.0000000000
     43037      7121  TIP3      OH2           -19.9541877373      -17.1476420508       60.4309319722  TIP3      6929            0.0000000000
     43038      7121  TIP3      H1            -20.9027423394      -17.0327286857       60.6640263438  TIP3      6929            0.0000000000
     43039      7121  TIP3      H2            -19.7560847714      -16.3069617485       59.9818277256  TIP3      6929            0.0000000000
     43040      7122  TIP3      OH2           -31.9681689858       -8.4020399132       62.3989396883  TIP3      6930            0.0000000000
     43041      7122  TIP3      H1            -32.2537174004       -7.6201391615       61.8831620374  TIP3      6930            0.0000000000
     43042      7122  TIP3      H2            -32.6227577828       -9.0628503391       62.1616554116  TIP3      6930            0.0000000000
     43043      7123  TIP3      OH2           -18.8469360546       -2.7883891544       58.7707464799  TIP3      6931            0.0000000000
     43044      7123  TIP3      H1            -18.6807302813       -1.8454702725       58.9405001205  TIP3      6931            0.0000000000
     43045      7123  TIP3      H2            -17.9235618767       -3.1017591142       58.7678348308  TIP3      6931            0.0000000000
     43046      7124  TIP3      OH2           -35.2926441833       -6.0955337963       71.0265732694  TIP3      6932            0.0000000000
     43047      7124  TIP3      H1            -36.0664487904       -5.9683951201       70.4364972401  TIP3      6932            0.0000000000
     43048      7124  TIP3      H2            -35.6664551851       -6.8804306227       71.4899667993  TIP3      6932            0.0000000000
     43049      7125  TIP3      OH2           -35.8267256705       -2.9866416293       67.7790608877  TIP3      6933            0.0000000000
     43050      7125  TIP3      H1            -35.0073426624       -3.3960755164       68.0687185334  TIP3      6933            0.0000000000
     43051      7125  TIP3      H2            -36.1157490808       -2.5271119562       68.5796526128  TIP3      6933            0.0000000000
     43052      7126  TIP3      OH2           -17.9011283046       -2.5217974321       73.7193278540  TIP3      6934            0.0000000000
     43053      7126  TIP3      H1            -18.0117765272       -3.4830846537       73.7298856583  TIP3      6934            0.0000000000
     43054      7126  TIP3      H2            -18.7532596314       -2.2755216582       74.1550033169  TIP3      6934            0.0000000000
     43055      7127  TIP3      OH2           -26.9351078867       -2.9824400271       72.6158486802  TIP3      6935            0.0000000000
     43056      7127  TIP3      H1            -26.8783985346       -2.1460575854       73.1368947897  TIP3      6935            0.0000000000
     43057      7127  TIP3      H2            -27.8085930831       -3.3433215129       72.8621993468  TIP3      6935            0.0000000000
     43058      7128  TIP3      OH2           -26.4901547679        0.7579994236       62.4007933122  TIP3      6936            0.0000000000
     43059      7128  TIP3      H1            -26.6017034932        0.6796528811       61.4357496165  TIP3      6936            0.0000000000
     43060      7128  TIP3      H2            -26.4888490248        1.7200375206       62.5569019384  TIP3      6936            0.0000000000
     43061      7129  TIP3      OH2           -32.8649629506       -0.3588892215       64.2143595808  TIP3      6937            0.0000000000
     43062      7129  TIP3      H1            -32.7186911136       -0.7664460075       65.0969201567  TIP3      6937            0.0000000000
     43063      7129  TIP3      H2            -33.6956559508       -0.7937801997       63.9760687785  TIP3      6937            0.0000000000
     43064      7130  TIP3      OH2           -23.4370036999       -0.0278530574       59.3857916470  TIP3      6938            0.0000000000
     43065      7130  TIP3      H1            -22.9823101242       -0.7864716420       58.9516305600  TIP3      6938            0.0000000000
     43066      7130  TIP3      H2            -23.3973225173       -0.2894458807       60.3292374316  TIP3      6938            0.0000000000
     43067      7131  TIP3      OH2           -23.7408739904       -0.0929646807       62.1606390029  TIP3      6939            0.0000000000
     43068      7131  TIP3      H1            -24.7033367557       -0.0178430938       62.3312437919  TIP3      6939            0.0000000000
     43069      7131  TIP3      H2            -23.5082096036       -0.8360264415       62.7380364030  TIP3      6939            0.0000000000
     43070      7132  TIP3      OH2           -20.7382060979      -11.0542853292       74.1860186090  TIP3      6940            0.0000000000
     43071      7132  TIP3      H1            -21.2332375803      -10.6052216690       73.4819015491  TIP3      6940            0.0000000000
     43072      7132  TIP3      H2            -20.7652359297      -11.9795715159       73.8999079841  TIP3      6940            0.0000000000
     43073      7133  TIP3      OH2           -33.5901355890       -4.5638679526       72.2922300906  TIP3      6941            0.0000000000
     43074      7133  TIP3      H1            -33.4051229552       -5.0116446444       73.1389712214  TIP3      6941            0.0000000000
     43075      7133  TIP3      H2            -34.4176367614       -5.0122784885       72.0054387165  TIP3      6941            0.0000000000
     43076      7134  TIP3      OH2           -30.9153867050      -16.1624030557       68.1736984143  TIP3      6942            0.0000000000
     43077      7134  TIP3      H1            -31.8175772026      -16.2869599844       67.8023694190  TIP3      6942            0.0000000000
     43078      7134  TIP3      H2            -31.0576337564      -15.3369341751       68.6652104741  TIP3      6942            0.0000000000
     43079      7135  TIP3      OH2           -26.2811488523      -16.5074103091       71.5333831768  TIP3      6943            0.0000000000
     43080      7135  TIP3      H1            -25.8876976005      -16.9288744508       72.3204336235  TIP3      6943            0.0000000000
     43081      7135  TIP3      H2            -27.2520345704      -16.6249782677       71.6794041027  TIP3      6943            0.0000000000
     43082      7136  TIP3      OH2           -22.9900670413      -12.6539206085       72.4416661001  TIP3      6944            0.0000000000
     43083      7136  TIP3      H1            -23.5603155536      -12.8711952202       73.2187529150  TIP3      6944            0.0000000000
     43084      7136  TIP3      H2            -23.1792815232      -11.7297237664       72.2084462286  TIP3      6944            0.0000000000
     43085      7137  TIP3      OH2           -22.2391390378       -7.8351700518       58.3295139097  TIP3      6945            0.0000000000
     43086      7137  TIP3      H1            -22.2562157138       -8.0321907947       57.3651198121  TIP3      6945            0.0000000000
     43087      7137  TIP3      H2            -21.3768594727       -7.4000016175       58.3846022065  TIP3      6945            0.0000000000
     43088      7138  TIP3      OH2           -26.6401235325      -13.9172526218       58.8436682417  TIP3      6946            0.0000000000
     43089      7138  TIP3      H1            -26.9585690345      -13.9798014721       59.7622394649  TIP3      6946            0.0000000000
     43090      7138  TIP3      H2            -26.9455353021      -14.7946733225       58.5384371594  TIP3      6946            0.0000000000
     43091      7139  TIP3      OH2           -30.8408974266      -11.2006256987       69.4239482397  TIP3      6947            0.0000000000
     43092      7139  TIP3      H1            -31.5642674545      -11.2000544977       70.0771179389  TIP3      6947            0.0000000000
     43093      7139  TIP3      H2            -30.8568987673      -10.2872582534       69.0578258237  TIP3      6947            0.0000000000
     43094      7140  TIP3      OH2           -30.8418346295      -11.0759199577       64.2899942833  TIP3      6948            0.0000000000
     43095      7140  TIP3      H1            -31.7815105294      -11.3237452523       64.1508335786  TIP3      6948            0.0000000000
     43096      7140  TIP3      H2            -30.4682688871      -11.3755310235       63.4395572732  TIP3      6948            0.0000000000
     43097      7141  TIP3      OH2           -25.3408447762      -10.5820660653       63.0656264420  TIP3      6949            0.0000000000
     43098      7141  TIP3      H1            -25.7336272695       -9.7567166749       62.6960887198  TIP3      6949            0.0000000000
     43099      7141  TIP3      H2            -24.6336785270      -10.7445628602       62.4163615918  TIP3      6949            0.0000000000
     43100      7142  TIP3      OH2           -26.3010942978      -10.3607167334       74.4961920054  TIP3      6950            0.0000000000
     43101      7142  TIP3      H1            -26.8057818260      -11.1514899680       74.8022212863  TIP3      6950            0.0000000000
     43102      7142  TIP3      H2            -25.4504007371      -10.4826330253       74.9515437396  TIP3      6950            0.0000000000
     43103      7143  TIP3      OH2           -24.3536267841      -11.0982848196       65.9176156796  TIP3      6951            0.0000000000
     43104      7143  TIP3      H1            -24.5594810867      -10.5210743462       65.1635911344  TIP3      6951            0.0000000000
     43105      7143  TIP3      H2            -24.1902139595      -11.9302002616       65.4348660189  TIP3      6951            0.0000000000
     43106      7144  TIP3      OH2           -33.1863560875      -10.9652404760       71.1103930544  TIP3      6952            0.0000000000
     43107      7144  TIP3      H1            -33.1666644295      -10.5409454160       71.9825134735  TIP3      6952            0.0000000000
     43108      7144  TIP3      H2            -33.6742076515      -11.7776242754       71.3083727293  TIP3      6952            0.0000000000
     43109      7145  TIP3      OH2           -29.8279659556      -13.5501022174       57.9590499656  TIP3      6953            0.0000000000
     43110      7145  TIP3      H1            -30.2778757672      -13.9738456779       58.7175102757  TIP3      6953            0.0000000000
     43111      7145  TIP3      H2            -30.5422022463      -13.1222379546       57.4704052393  TIP3      6953            0.0000000000
     43112      7146  TIP3      OH2           -36.1646147577      -13.5159153478       64.9041389395  TIP3      6954            0.0000000000
     43113      7146  TIP3      H1            -35.8332401930      -13.8654273034       65.7590053095  TIP3      6954            0.0000000000
     43114      7146  TIP3      H2            -36.0298042831      -14.2715711083       64.3318279248  TIP3      6954            0.0000000000
     43115      7147  TIP3      OH2           -35.2913304896      -12.9770572324       60.4088675338  TIP3      6955            0.0000000000
     43116      7147  TIP3      H1            -34.7312398652      -12.4134925720       59.8384379331  TIP3      6955            0.0000000000
     43117      7147  TIP3      H2            -36.0149298173      -12.4136750256       60.6629761592  TIP3      6955            0.0000000000
     43118      7148  TIP3      OH2           -25.1113408325       -9.5067557146       70.4605561735  TIP3      6956            0.0000000000
     43119      7148  TIP3      H1            -24.7304235615      -10.1954859686       69.8766112282  TIP3      6956            0.0000000000
     43120      7148  TIP3      H2            -25.5790027300      -10.0339323875       71.1327957036  TIP3      6956            0.0000000000
     43121      7149  TIP3      OH2           -28.3067337958      -13.5260355401       65.3048927768  TIP3      6957            0.0000000000
     43122      7149  TIP3      H1            -29.2413237311      -13.5242925680       65.5933284618  TIP3      6957            0.0000000000
     43123      7149  TIP3      H2            -27.8239130089      -13.6987194179       66.1261635214  TIP3      6957            0.0000000000
     43124      7150  TIP3      OH2           -33.4868632357      -11.9863512016       64.1584506130  TIP3      6958            0.0000000000
     43125      7150  TIP3      H1            -34.3571220216      -11.8152516319       63.7559140832  TIP3      6958            0.0000000000
     43126      7150  TIP3      H2            -33.2474715711      -12.8344515493       63.7451008887  TIP3      6958            0.0000000000
     43127      7151  TIP3      OH2           -29.8568901215      -11.9330046329       61.7931482684  TIP3      6959            0.0000000000
     43128      7151  TIP3      H1            -28.9005271360      -11.8164461185       61.9494256758  TIP3      6959            0.0000000000
     43129      7151  TIP3      H2            -30.1084843239      -11.2468608808       61.1463685725  TIP3      6959            0.0000000000
     43130      7152  TIP3      OH2           -23.9063103372      -14.2959208913       68.5398995786  TIP3      6960            0.0000000000
     43131      7152  TIP3      H1            -24.5882660144      -14.2429356807       69.2433131353  TIP3      6960            0.0000000000
     43132      7152  TIP3      H2            -24.4124045652      -14.5477497799       67.7544424097  TIP3      6960            0.0000000000
     43133      7153  TIP3      OH2           -31.1362678099      -10.7616738868       59.3690414530  TIP3      6961            0.0000000000
     43134      7153  TIP3      H1            -31.6762022140      -11.1246476584       58.6485550164  TIP3      6961            0.0000000000
     43135      7153  TIP3      H2            -30.3148975235      -10.5436386866       58.9023036528  TIP3      6961            0.0000000000
     43136      7154  TIP3      OH2           -20.7252003969        1.3526240388       74.8896179899  TIP3      6962            0.0000000000
     43137      7154  TIP3      H1            -20.4204752745        1.7014174859       74.0339020896  TIP3      6962            0.0000000000
     43138      7154  TIP3      H2            -19.9914808170        1.6343032957       75.4593804117  TIP3      6962            0.0000000000
     43139      7155  TIP3      OH2           -33.0432477753       -6.2082065369       74.4563378947  TIP3      6963            0.0000000000
     43140      7155  TIP3      H1            -32.3153202419       -5.9391847490       75.0498809583  TIP3      6963            0.0000000000
     43141      7155  TIP3      H2            -33.7973579144       -6.0801549037       75.0537753656  TIP3      6963            0.0000000000
     43142      7156  TIP3      OH2           -27.0335274361      -10.7759009347       67.1843593990  TIP3      6964            0.0000000000
     43143      7156  TIP3      H1            -26.4137427481      -11.2945231656       66.6539346491  TIP3      6964            0.0000000000
     43144      7156  TIP3      H2            -27.1675431726      -11.3227554764       67.9692850646  TIP3      6964            0.0000000000
     43145      7157  TIP3      OH2           -32.0252492166      -14.6186292700       63.6210521622  TIP3      6965            0.0000000000
     43146      7157  TIP3      H1            -32.3384226071      -15.5385488759       63.6207976603  TIP3      6965            0.0000000000
     43147      7157  TIP3      H2            -31.2312810477      -14.7026837477       63.0780682884  TIP3      6965            0.0000000000
     43148      7158  TIP3      OH2           -28.3891441944      -12.4459193887       69.6052755143  TIP3      6966            0.0000000000
     43149      7158  TIP3      H1            -29.2133082788      -11.9258073651       69.6926949545  TIP3      6966            0.0000000000
     43150      7158  TIP3      H2            -27.8325760246      -12.0925984263       70.3259973819  TIP3      6966            0.0000000000
     43151      7159  TIP3      OH2           -27.7948269957       -6.2210520584       61.3003947245  TIP3      6967            0.0000000000
     43152      7159  TIP3      H1            -28.5953905664       -6.6876712059       60.9664142779  TIP3      6967            0.0000000000
     43153      7159  TIP3      H2            -28.0221812749       -6.0982259674       62.2450035635  TIP3      6967            0.0000000000
     43154      7160  TIP3      OH2           -20.6103838204       -7.0175962716       70.0999015716  TIP3      6968            0.0000000000
     43155      7160  TIP3      H1            -20.0471149088       -6.5399801535       69.4636023089  TIP3      6968            0.0000000000
     43156      7160  TIP3      H2            -21.4692332533       -6.9819242233       69.6300242762  TIP3      6968            0.0000000000
     43157      7161  TIP3      OH2           -23.9706559336      -13.4121030834       59.4716169054  TIP3      6969            0.0000000000
     43158      7161  TIP3      H1            -24.9208148615      -13.2528293671       59.3413564583  TIP3      6969            0.0000000000
     43159      7161  TIP3      H2            -23.6306001015      -12.5610741221       59.8290988832  TIP3      6969            0.0000000000
     43160      7162  TIP3      OH2           -26.3065116964       -5.9557170360       72.5408302879  TIP3      6970            0.0000000000
     43161      7162  TIP3      H1            -26.6602499417       -6.3810957044       73.3291698137  TIP3      6970            0.0000000000
     43162      7162  TIP3      H2            -26.5615920085       -5.0319621739       72.6511462195  TIP3      6970            0.0000000000
     43163      7163  TIP3      OH2           -23.2864772150      -11.4585118736       61.0571398577  TIP3      6971            0.0000000000
     43164      7163  TIP3      H1            -22.4154901522      -11.6396163094       61.5002263199  TIP3      6971            0.0000000000
     43165      7163  TIP3      H2            -23.1139055551      -10.6356734096       60.5827396456  TIP3      6971            0.0000000000
     43166      7164  TIP3      OH2           -32.6941845289       -6.8251936684       67.0891598203  TIP3      6972            0.0000000000
     43167      7164  TIP3      H1            -32.0169691161       -6.9080931137       66.3974724904  TIP3      6972            0.0000000000
     43168      7164  TIP3      H2            -32.5988681836       -7.6656887782       67.5694743885  TIP3      6972            0.0000000000
     43169      7165  TIP3      OH2           -25.7065281548       -4.7538084439       60.3304444809  TIP3      6973            0.0000000000
     43170      7165  TIP3      H1            -26.0485741870       -3.9085738072       60.6892040612  TIP3      6973            0.0000000000
     43171      7165  TIP3      H2            -26.4394028981       -5.3696578630       60.5503189125  TIP3      6973            0.0000000000
     43172      7166  TIP3      OH2           -35.7296171824       -8.4436536549       72.3640326918  TIP3      6974            0.0000000000
     43173      7166  TIP3      H1            -35.4720113992       -8.8827915755       73.1975924180  TIP3      6974            0.0000000000
     43174      7166  TIP3      H2            -36.3176949311       -9.0852137145       71.9406862532  TIP3      6974            0.0000000000
     43175      7167  TIP3      OH2           -28.6932031594       -8.8637956738       74.5502961693  TIP3      6975            0.0000000000
     43176      7167  TIP3      H1            -29.0074978295       -9.1706902503       73.6867627538  TIP3      6975            0.0000000000
     43177      7167  TIP3      H2            -27.7666961511       -9.1816905483       74.5401630403  TIP3      6975            0.0000000000
     43178      7168  TIP3      OH2           -24.0001150361       -3.5286645074       72.4914296141  TIP3      6976            0.0000000000
     43179      7168  TIP3      H1            -24.9257983686       -3.3492239469       72.2595334691  TIP3      6976            0.0000000000
     43180      7168  TIP3      H2            -24.0349641927       -3.2418353877       73.4251245370  TIP3      6976            0.0000000000
     43181      7169  TIP3      OH2           -18.2388241617      -11.3537671565       60.7889020960  TIP3      6977            0.0000000000
     43182      7169  TIP3      H1            -18.9240341516      -11.6272545299       60.1574479840  TIP3      6977            0.0000000000
     43183      7169  TIP3      H2            -18.2600602870      -10.3889201519       60.6411749121  TIP3      6977            0.0000000000
     43184      7170  TIP3      OH2           -18.3420865204       -5.4915732079       73.6834049127  TIP3      6978            0.0000000000
     43185      7170  TIP3      H1            -19.2353619355       -5.2656659550       73.3233354920  TIP3      6978            0.0000000000
     43186      7170  TIP3      H2            -17.8012570787       -5.5415565237       72.8690539327  TIP3      6978            0.0000000000
     43187      7171  TIP3      OH2           -20.0783180186       -2.5196866638       61.2738200665  TIP3      6979            0.0000000000
     43188      7171  TIP3      H1            -20.4073218730       -3.3573356734       61.6233320416  TIP3      6979            0.0000000000
     43189      7171  TIP3      H2            -19.7222659219       -2.7393435312       60.3971944920  TIP3      6979            0.0000000000
     43190      7172  TIP3      OH2           -22.8349581414       -7.7007025272       68.3850929879  TIP3      6980            0.0000000000
     43191      7172  TIP3      H1            -23.7755073721       -7.9148019596       68.2761071770  TIP3      6980            0.0000000000
     43192      7172  TIP3      H2            -22.4079114947       -8.4630916622       67.9367990693  TIP3      6980            0.0000000000
     43193      7173  TIP3      OH2           -30.3269412138       -3.3665435905       64.5002681932  TIP3      6981            0.0000000000
     43194      7173  TIP3      H1            -29.8203490377       -2.5677522333       64.2815550366  TIP3      6981            0.0000000000
     43195      7173  TIP3      H2            -31.2057922678       -3.1384547388       64.1653448549  TIP3      6981            0.0000000000
     43196      7174  TIP3      OH2           -34.6004177233       -8.5261574234       59.0955551206  TIP3      6982            0.0000000000
     43197      7174  TIP3      H1            -33.9566279675       -7.8693478491       59.4500655338  TIP3      6982            0.0000000000
     43198      7174  TIP3      H2            -35.4531871072       -8.1726460379       59.3580211014  TIP3      6982            0.0000000000
     43199      7175  TIP3      OH2           -28.9015083125       -5.7034971371       63.9935212163  TIP3      6983            0.0000000000
     43200      7175  TIP3      H1            -29.2162774337       -4.7866564949       64.0969025098  TIP3      6983            0.0000000000
     43201      7175  TIP3      H2            -29.6140471624       -6.2012106222       64.4451492086  TIP3      6983            0.0000000000
     43202      7176  TIP3      OH2           -28.4386110801       -1.5260425294       70.4091922300  TIP3      6984            0.0000000000
     43203      7176  TIP3      H1            -27.9919993660       -0.7144314546       70.1262381398  TIP3      6984            0.0000000000
     43204      7176  TIP3      H2            -27.8215145080       -1.8678880584       71.0798910627  TIP3      6984            0.0000000000
     43205      7177  TIP3      OH2           -30.2266864538       -0.7168764513       63.5268919404  TIP3      6985            0.0000000000
     43206      7177  TIP3      H1            -31.1905515691       -0.5725525613       63.6633083159  TIP3      6985            0.0000000000
     43207      7177  TIP3      H2            -29.8603449202        0.1184644056       63.8716821048  TIP3      6985            0.0000000000
     43208      7178  TIP3      OH2           -24.9312977971       -5.5277713377       70.0321357735  TIP3      6986            0.0000000000
     43209      7178  TIP3      H1            -25.2518951018       -5.7214574099       70.9386135184  TIP3      6986            0.0000000000
     43210      7178  TIP3      H2            -24.2876011858       -6.2362314275       69.8651823965  TIP3      6986            0.0000000000
     43211      7179  TIP3      OH2           -22.5891658374       -4.4418491871       59.1217631900  TIP3      6987            0.0000000000
     43212      7179  TIP3      H1            -22.2940752510       -4.9217096974       59.9241373580  TIP3      6987            0.0000000000
     43213      7179  TIP3      H2            -23.5421152609       -4.6279079990       59.1983646542  TIP3      6987            0.0000000000
     43214      7180  TIP3      OH2           -22.1184566648       -0.9275451136       72.5277685172  TIP3      6988            0.0000000000
     43215      7180  TIP3      H1            -22.7922633028       -1.4521350024       72.0515228820  TIP3      6988            0.0000000000
     43216      7180  TIP3      H2            -21.9238177934       -0.2540302669       71.8473374691  TIP3      6988            0.0000000000
     43217      7181  TIP3      OH2           -18.1249259283       -0.0972119191       59.3773412993  TIP3      6989            0.0000000000
     43218      7181  TIP3      H1            -17.4371463244        0.5676664093       59.1714513898  TIP3      6989            0.0000000000
     43219      7181  TIP3      H2            -18.8398719373        0.5142132680       59.6626056787  TIP3      6989            0.0000000000
     43220      7182  TIP3      OH2           -34.0383137628      -13.6884193361       71.8809484616  TIP3      6990            0.0000000000
     43221      7182  TIP3      H1            -34.9293564560      -13.3116026804       71.9399349104  TIP3      6990            0.0000000000
     43222      7182  TIP3      H2            -34.1813637218      -14.5350784759       72.3332937143  TIP3      6990            0.0000000000
     43223      7183  TIP3      OH2           -21.8102212184       -5.8172961836       61.3608479910  TIP3      6991            0.0000000000
     43224      7183  TIP3      H1            -22.0466994020       -6.6095506020       61.8949434073  TIP3      6991            0.0000000000
     43225      7183  TIP3      H2            -20.8591459624       -5.7716045628       61.5440185380  TIP3      6991            0.0000000000
     43226      7184  TIP3      OH2           -34.2662976296       -1.8527224780       70.2918065499  TIP3      6992            0.0000000000
     43227      7184  TIP3      H1            -34.1476116381       -2.8110109579       70.3478753981  TIP3      6992            0.0000000000
     43228      7184  TIP3      H2            -34.1826745347       -1.6212602599       71.2228725381  TIP3      6992            0.0000000000
     43229      7185  TIP3      OH2           -28.4589541834       -3.3776558987       57.6181877729  TIP3      6993            0.0000000000
     43230      7185  TIP3      H1            -28.3608459862       -4.1411004418       57.0263145070  TIP3      6993            0.0000000000
     43231      7185  TIP3      H2            -28.9018297801       -3.8085604767       58.3817804322  TIP3      6993            0.0000000000
     43232      7186  TIP3      OH2           -29.6888469635       -3.8511531881       60.0702190607  TIP3      6994            0.0000000000
     43233      7186  TIP3      H1            -29.4171635588       -4.3655363300       60.8398105001  TIP3      6994            0.0000000000
     43234      7186  TIP3      H2            -29.5964259017       -2.9248191695       60.3927444988  TIP3      6994            0.0000000000
     43235      7187  TIP3      OH2           -33.1946058166       -6.6074655583       60.5457997893  TIP3      6995            0.0000000000
     43236      7187  TIP3      H1            -33.9043848430       -6.2147497385       61.0980125961  TIP3      6995            0.0000000000
     43237      7187  TIP3      H2            -32.6718951254       -5.8273026517       60.2747387706  TIP3      6995            0.0000000000
     43238      7188  TIP3      OH2           -25.3179293932      -13.9142081080       70.8735218633  TIP3      6996            0.0000000000
     43239      7188  TIP3      H1            -24.5904489838      -13.8568968030       71.5018575508  TIP3      6996            0.0000000000
     43240      7188  TIP3      H2            -25.6946375311      -14.7930206308       71.0726869381  TIP3      6996            0.0000000000
     43241      7189  TIP3      OH2           -24.5673060205      -14.3451830295       61.9644850151  TIP3      6997            0.0000000000
     43242      7189  TIP3      H1            -24.3399750001      -13.8856727627       61.1317749354  TIP3      6997            0.0000000000
     43243      7189  TIP3      H2            -23.9763442752      -13.9024566999       62.5913393938  TIP3      6997            0.0000000000
     43244      7190  TIP3      OH2           -26.8826407359       -2.1882778902       60.7651239652  TIP3      6998            0.0000000000
     43245      7190  TIP3      H1            -27.7006824042       -1.6558133842       60.8375477358  TIP3      6998            0.0000000000
     43246      7190  TIP3      H2            -26.3437805871       -1.6376685954       60.1788635705  TIP3      6998            0.0000000000
     43247      7191  TIP3      OH2           -27.3321895487      -12.5914332596       62.7814810563  TIP3      6999            0.0000000000
     43248      7191  TIP3      H1            -26.5457634413      -12.0081249319       62.8329430834  TIP3      6999            0.0000000000
     43249      7191  TIP3      H2            -27.6061230416      -12.7182513752       63.7099185595  TIP3      6999            0.0000000000
     43250      7192  TIP3      OH2           -26.7793930860      -11.5614740594       71.9739932648  TIP3      7000            0.0000000000
     43251      7192  TIP3      H1            -26.7096742936      -11.0168641935       72.7794971834  TIP3      7000            0.0000000000
     43252      7192  TIP3      H2            -26.1238774987      -12.2639079867       72.0679405715  TIP3      7000            0.0000000000
     43253      7193  TIP3      OH2           -26.4927518983      -15.5408130845       63.6596261253  TIP3      7001            0.0000000000
     43254      7193  TIP3      H1            -26.8153578728      -14.8930811876       64.3106329503  TIP3      7001            0.0000000000
     43255      7193  TIP3      H2            -25.7984328319      -14.9924215039       63.2197279409  TIP3      7001            0.0000000000
     43256      7194  TIP3      OH2           -29.4810404732       -1.1597863103       60.7937600373  TIP3      7002            0.0000000000
     43257      7194  TIP3      H1            -29.3845069494       -0.3437130618       60.2411343714  TIP3      7002            0.0000000000
     43258      7194  TIP3      H2            -29.7534430591       -0.7893316463       61.6638893681  TIP3      7002            0.0000000000
     43259      7195  TIP3      OH2           -30.8236247931      -14.4331845540       60.3710773376  TIP3      7003            0.0000000000
     43260      7195  TIP3      H1            -30.8839103003      -13.5367458330       60.7586919834  TIP3      7003            0.0000000000
     43261      7195  TIP3      H2            -29.9186379629      -14.6759706188       60.6372423830  TIP3      7003            0.0000000000
     43262      7196  TIP3      OH2           -20.6098904821      -13.6957937868       72.8260745933  TIP3      7004            0.0000000000
     43263      7196  TIP3      H1            -21.5386763531      -13.3850782597       72.6920878349  TIP3      7004            0.0000000000
     43264      7196  TIP3      H2            -20.3098533099      -13.7155170716       71.9008022591  TIP3      7004            0.0000000000
     43265      7197  TIP3      OH2           -22.0497866191       -9.8961595836       66.9562654197  TIP3      7005            0.0000000000
     43266      7197  TIP3      H1            -22.7912588735      -10.3588583375       66.5208485713  TIP3      7005            0.0000000000
     43267      7197  TIP3      H2            -21.5032800369      -10.6207383567       67.3268778298  TIP3      7005            0.0000000000
     43268      7198  TIP3      OH2           -32.6204785700       -3.9790507077       59.4116137372  TIP3      7006            0.0000000000
     43269      7198  TIP3      H1            -31.9505187366       -3.3501949153       59.7235803553  TIP3      7006            0.0000000000
     43270      7198  TIP3      H2            -32.0881284944       -4.4591415497       58.7435404946  TIP3      7006            0.0000000000
     43271      7199  TIP3      OH2           -34.3031962862      -11.3285955273       58.5458322031  TIP3      7007            0.0000000000
     43272      7199  TIP3      H1            -34.2332590440      -10.3747243123       58.7483682565  TIP3      7007            0.0000000000
     43273      7199  TIP3      H2            -35.1876444303      -11.4997462093       58.2057767752  TIP3      7007            0.0000000000
     43274      7200  TIP3      OH2           -20.9478902194       -0.6216747045       68.5208493395  TIP3      7008            0.0000000000
     43275      7200  TIP3      H1            -21.0243095102        0.0217916201       67.7895093963  TIP3      7008            0.0000000000
     43276      7200  TIP3      H2            -19.9807272849       -0.6017150245       68.6721980415  TIP3      7008            0.0000000000
     43277      7201  TIP3      OH2           -33.4118753304      -16.5474134704       67.2849390582  TIP3      7009            0.0000000000
     43278      7201  TIP3      H1            -33.6325178349      -16.5118182051       66.3267467728  TIP3      7009            0.0000000000
     43279      7201  TIP3      H2            -33.8606783053      -17.3760765425       67.5488889232  TIP3      7009            0.0000000000
     43280      7202  TIP3      OH2           -34.4679165551       -2.6041136828       63.4688034037  TIP3      7010            0.0000000000
     43281      7202  TIP3      H1            -35.3272340551       -2.1799654189       63.4083154371  TIP3      7010            0.0000000000
     43282      7202  TIP3      H2            -33.9963908235       -2.1468076285       62.7566693531  TIP3      7010            0.0000000000
     43283      7203  TIP3      OH2           -34.9472791813        0.0710152546       74.7123711314  TIP3      7011            0.0000000000
     43284      7203  TIP3      H1            -34.5616309009       -0.1603829720       75.5693363256  TIP3      7011            0.0000000000
     43285      7203  TIP3      H2            -35.4900728481       -0.7287932540       74.5465016305  TIP3      7011            0.0000000000
     43286      7204  TIP3      OH2           -30.6279065727       -1.0868270240       76.3643174551  TIP3      7012            0.0000000000
     43287      7204  TIP3      H1            -29.8355590091       -1.5434052001       76.6669520671  TIP3      7012            0.0000000000
     43288      7204  TIP3      H2            -30.6374427196       -1.3223698649       75.4161307140  TIP3      7012            0.0000000000
     43289      7205  TIP3      OH2           -26.4657188980       -1.5273112543       57.7412729271  TIP3      7013            0.0000000000
     43290      7205  TIP3      H1            -27.1579256139       -2.1871765574       57.9688051489  TIP3      7013            0.0000000000
     43291      7205  TIP3      H2            -25.7473950469       -2.1256793365       57.4933517054  TIP3      7013            0.0000000000
     43292      7206  TIP3      OH2           -24.1063109335       -2.6585340270       75.0611219841  TIP3      7014            0.0000000000
     43293      7206  TIP3      H1            -24.4228354779       -3.5372713749       75.3589706782  TIP3      7014            0.0000000000
     43294      7206  TIP3      H2            -23.3238672617       -2.5342104238       75.6325373052  TIP3      7014            0.0000000000
     43295      7207  TIP3      OH2           -21.9076283455       -1.7834533021       57.9276133542  TIP3      7015            0.0000000000
     43296      7207  TIP3      H1            -21.6115539480       -2.5594015388       58.4310760811  TIP3      7015            0.0000000000
     43297      7207  TIP3      H2            -21.1449160222       -1.5582314775       57.3754969494  TIP3      7015            0.0000000000
     43298      7208  TIP3      OH2           -35.4434565116       -6.2211623098       75.7236527002  TIP3      7016            0.0000000000
     43299      7208  TIP3      H1            -35.1752978504       -7.0827256658       75.3490923261  TIP3      7016            0.0000000000
     43300      7208  TIP3      H2            -36.1050294838       -5.9112113385       75.0952926863  TIP3      7016            0.0000000000
     43301      7209  TIP3      OH2           -31.0205835519       -5.8400424839       57.7439442477  TIP3      7017            0.0000000000
     43302      7209  TIP3      H1            -30.8844205990       -6.6031420543       58.3251583092  TIP3      7017            0.0000000000
     43303      7209  TIP3      H2            -30.2707433037       -5.9597774083       57.1283084963  TIP3      7017            0.0000000000
     43304      7210  TIP3      OH2           -28.6570061625       -6.2107788649       75.1112579965  TIP3      7018            0.0000000000
     43305      7210  TIP3      H1            -28.9842493387       -5.8854824766       74.2511242330  TIP3      7018            0.0000000000
     43306      7210  TIP3      H2            -28.5849380385       -7.1864472208       74.9942938440  TIP3      7018            0.0000000000
     43307      7211  TIP3      OH2           -25.5898624909       -4.7333469363       57.5238563177  TIP3      7019            0.0000000000
     43308      7211  TIP3      H1            -25.8602600157       -4.6524140135       58.4521643790  TIP3      7019            0.0000000000
     43309      7211  TIP3      H2            -25.7791909036       -5.6910168287       57.3792968945  TIP3      7019            0.0000000000
     43310      7212  TIP3      OH2           -22.9578504056       -6.3401053965       72.5043451276  TIP3      7020            0.0000000000
     43311      7212  TIP3      H1            -22.1697517018       -5.7576642749       72.4434108224  TIP3      7020            0.0000000000
     43312      7212  TIP3      H2            -23.6551945339       -5.6692734428       72.5440305510  TIP3      7020            0.0000000000
     43313      7213  TIP3      OH2           -34.5171336042       -8.9534606936       75.0900086727  TIP3      7021            0.0000000000
     43314      7213  TIP3      H1            -34.0400390707       -9.7928776075       74.9944246530  TIP3      7021            0.0000000000
     43315      7213  TIP3      H2            -34.6683354943       -8.9538148929       76.0495703651  TIP3      7021            0.0000000000
     43316      7214  TIP3      OH2           -29.8173901687       -7.8249057375       60.1769292014  TIP3      7022            0.0000000000
     43317      7214  TIP3      H1            -30.3212372217       -8.3642974738       60.8041141605  TIP3      7022            0.0000000000
     43318      7214  TIP3      H2            -29.5185909345       -8.4976431706       59.5214638787  TIP3      7022            0.0000000000
     43319      7215  TIP3      OH2           -30.5534952293      -10.0196527391       72.4649940277  TIP3      7023            0.0000000000
     43320      7215  TIP3      H1            -31.1576772257       -9.3052381173       72.7228878698  TIP3      7023            0.0000000000
     43321      7215  TIP3      H2            -30.1556743767       -9.6504979724       71.6565347817  TIP3      7023            0.0000000000
     43322      7216  TIP3      OH2           -28.7417930909       -9.6012537598       58.3748507152  TIP3      7024            0.0000000000
     43323      7216  TIP3      H1            -28.8948190188       -9.6905389797       57.4133801469  TIP3      7024            0.0000000000
     43324      7216  TIP3      H2            -27.7653394568       -9.5497363397       58.4400375354  TIP3      7024            0.0000000000
     43325      7217  TIP3      OH2           -25.4851244753       -7.4340098721       75.8415785132  TIP3      7025            0.0000000000
     43326      7217  TIP3      H1            -24.5341974941       -7.4722133394       75.6588158429  TIP3      7025            0.0000000000
     43327      7217  TIP3      H2            -25.6481418618       -8.2179294190       76.3886777169  TIP3      7025            0.0000000000
     43328      7218  TIP3      OH2           -19.4136306870       -7.2826299945       57.7840603033  TIP3      7026            0.0000000000
     43329      7218  TIP3      H1            -19.6029428522       -7.6627282572       56.9124613445  TIP3      7026            0.0000000000
     43330      7218  TIP3      H2            -19.3234710296       -6.3199310204       57.5978238096  TIP3      7026            0.0000000000
     43331      7219  TIP3      OH2           -30.1492504434      -12.6496171871       73.5124953257  TIP3      7027            0.0000000000
     43332      7219  TIP3      H1            -30.0090630572      -13.3368125783       72.8317614410  TIP3      7027            0.0000000000
     43333      7219  TIP3      H2            -30.2012298657      -11.8302544735       72.9720203479  TIP3      7027            0.0000000000
     43334      7220  TIP3      OH2           -29.7460777376      -14.2501862875       71.0882230473  TIP3      7028            0.0000000000
     43335      7220  TIP3      H1            -29.2284410617      -13.7961236514       70.3789497677  TIP3      7028            0.0000000000
     43336      7220  TIP3      H2            -30.6301500933      -14.3378329229       70.6588522057  TIP3      7028            0.0000000000
     43337      7221  TIP3      OH2           -28.2042558859       -8.7677900824       71.3244746998  TIP3      7029            0.0000000000
     43338      7221  TIP3      H1            -27.4518204816       -8.9336629803       70.7467861272  TIP3      7029            0.0000000000
     43339      7221  TIP3      H2            -28.5685725889       -7.9356678199       70.9798711278  TIP3      7029            0.0000000000
     43340      7222  TIP3      OH2           -23.8267804482      -11.0302293593       76.2551935029  TIP3      7030            0.0000000000
     43341      7222  TIP3      H1            -23.5813418197      -11.9644677543       76.1937606702  TIP3      7030            0.0000000000
     43342      7222  TIP3      H2            -22.9618437266      -10.5888360516       76.3052441275  TIP3      7030            0.0000000000
     43343      7223  TIP3      OH2           -22.4573450034       -8.2130492394       74.4537777988  TIP3      7031            0.0000000000
     43344      7223  TIP3      H1            -22.7130043713       -7.5037022134       73.8227722509  TIP3      7031            0.0000000000
     43345      7223  TIP3      H2            -21.4988435931       -8.2599170676       74.2479247112  TIP3      7031            0.0000000000
     43346      7224  TIP3      OH2           -31.6587771045      -11.4522816660       75.5018126565  TIP3      7032            0.0000000000
     43347      7224  TIP3      H1            -32.4799342323      -11.9214583657       75.2339080565  TIP3      7032            0.0000000000
     43348      7224  TIP3      H2            -31.0566026975      -11.7039309570       74.7697007634  TIP3      7032            0.0000000000
     43349      7225  TIP3      OH2           -28.9632088450      -16.8276247150       71.4808804825  TIP3      7033            0.0000000000
     43350      7225  TIP3      H1            -29.1226140654      -15.8701679055       71.3287241736  TIP3      7033            0.0000000000
     43351      7225  TIP3      H2            -29.7012779192      -17.1954505984       70.9628185909  TIP3      7033            0.0000000000
     43352      7226  TIP3      OH2           -27.6663754664      -12.4988467138       75.0814330290  TIP3      7034            0.0000000000
     43353      7226  TIP3      H1            -27.9779977571      -12.6940299592       75.9877854936  TIP3      7034            0.0000000000
     43354      7226  TIP3      H2            -28.4431790077      -12.6754017456       74.5178142111  TIP3      7034            0.0000000000
     43355      7227  TIP3      OH2           -24.9653008381      -13.3590544039       74.1616479527  TIP3      7035            0.0000000000
     43356      7227  TIP3      H1            -25.9256938895      -13.2952060647       74.2966559695  TIP3      7035            0.0000000000
     43357      7227  TIP3      H2            -24.6933043726      -13.9947105092       74.8533269674  TIP3      7035            0.0000000000
     43358      7228  TIP3      OH2           -23.4300244139      -14.7214873435       76.0806579511  TIP3      7036            0.0000000000
     43359      7228  TIP3      H1            -23.4235912088      -15.7013804676       76.0991417026  TIP3      7036            0.0000000000
     43360      7228  TIP3      H2            -23.6457006989      -14.4416780462       76.9984531524  TIP3      7036            0.0000000000
     43361      7229  TIP3      OH2           -33.3100400449      -13.5387116215       75.2911719130  TIP3      7037            0.0000000000
     43362      7229  TIP3      H1            -33.4464201013      -14.1879880831       74.5667463951  TIP3      7037            0.0000000000
     43363      7229  TIP3      H2            -33.8203729455      -13.9123781190       76.0404083754  TIP3      7037            0.0000000000
     43364      7230  TIP3      OH2           -28.7398214375      -17.4229779210       74.1640770247  TIP3      7038            0.0000000000
     43365      7230  TIP3      H1            -28.0570484763      -18.1279672327       74.1439037996  TIP3      7038            0.0000000000
     43366      7230  TIP3      H2            -28.8335735728      -17.2882733333       73.2028281509  TIP3      7038            0.0000000000
     43367      7231  TIP3      OH2           -28.4845537930      -15.8801072552       76.3013785005  TIP3      7039            0.0000000000
     43368      7231  TIP3      H1            -28.5191135662      -16.3471654569       75.4236850545  TIP3      7039            0.0000000000
     43369      7231  TIP3      H2            -28.8716714829      -15.0129954926       76.1142033166  TIP3      7039            0.0000000000
     43370      7232  TIP3      OH2           -28.9099894180        1.0999252501       59.4526390161  TIP3      7040            0.0000000000
     43371      7232  TIP3      H1            -27.9432125510        1.1846104463       59.5199491683  TIP3      7040            0.0000000000
     43372      7232  TIP3      H2            -29.0558903098        1.7009102814       58.7132437214  TIP3      7040            0.0000000000
     43373      7233  TIP3      OH2           -35.3164150716       -4.3264707769       58.9349520122  TIP3      7041            0.0000000000
     43374      7233  TIP3      H1            -34.3550286061       -4.2136222006       59.1081511644  TIP3      7041            0.0000000000
     43375      7233  TIP3      H2            -35.2797862200       -4.9689603371       58.2005743776  TIP3      7041            0.0000000000
     43376      7234  TIP3      OH2            36.8614674901        1.2204083207       63.7200693585  TIP3      7042            0.0000000000
     43377      7234  TIP3      H1             35.9521242078        1.0113067629       63.4137151825  TIP3      7042            0.0000000000
     43378      7234  TIP3      H2             36.9509801615        0.5857542744       64.4713583906  TIP3      7042            0.0000000000
     43379      7235  TIP3      OH2           -35.7242917120       -0.7667996711       65.7148986820  TIP3      7043            0.0000000000
     43380      7235  TIP3      H1            -36.0815410089       -1.6543873208       65.9466130246  TIP3      7043            0.0000000000
     43381      7235  TIP3      H2            -35.4786169058       -0.4865101092       66.6154140850  TIP3      7043            0.0000000000
     43382      7236  TIP3      OH2           -18.2181206579       -0.0101582421       68.6882599398  TIP3      7044            0.0000000000
     43383      7236  TIP3      H1            -18.1840831120        0.1497322913       69.6479536239  TIP3      7044            0.0000000000
     43384      7236  TIP3      H2            -17.5045952872        0.5656227028       68.3873015680  TIP3      7044            0.0000000000
     43385      7237  TIP3      OH2           -18.6412833607       -0.4161317388       71.6499545814  TIP3      7045            0.0000000000
     43386      7237  TIP3      H1            -19.1100446518       -1.1835524572       71.2571741015  TIP3      7045            0.0000000000
     43387      7237  TIP3      H2            -18.1466183674       -0.8753653977       72.3524059155  TIP3      7045            0.0000000000
     43388      7238  TIP3      OH2           -20.1872836727       -4.7052334605       76.3196218175  TIP3      7046            0.0000000000
     43389      7238  TIP3      H1            -21.0957428461       -4.7206890356       76.6827358508  TIP3      7046            0.0000000000
     43390      7238  TIP3      H2            -19.8297249351       -3.9025530280       76.7531219585  TIP3      7046            0.0000000000
     43391      7239  TIP3      OH2           -18.8820645690       -6.3440510513       61.7310704312  TIP3      7047            0.0000000000
     43392      7239  TIP3      H1            -18.0074173281       -5.9783678566       61.9290670040  TIP3      7047            0.0000000000
     43393      7239  TIP3      H2            -18.9066025432       -7.0757130241       62.3969433200  TIP3      7047            0.0000000000
     43394      7240  TIP3      OH2           -18.5665488841       -8.1697699677       63.6695520612  TIP3      7048            0.0000000000
     43395      7240  TIP3      H1            -19.2105196068       -8.8387837704       63.9750422817  TIP3      7048            0.0000000000
     43396      7240  TIP3      H2            -17.9111763713       -8.1775034575       64.3915876636  TIP3      7048            0.0000000000
     43397      7241  TIP3      OH2           -18.7616605221       -5.5925395472       68.6139490504  TIP3      7049            0.0000000000
     43398      7241  TIP3      H1            -17.9500154700       -5.9707332336       68.2320017944  TIP3      7049            0.0000000000
     43399      7241  TIP3      H2            -18.6175957438       -4.6425540737       68.4307401981  TIP3      7049            0.0000000000
     43400      7242  TIP3      OH2           -20.2025040240       -2.6874446342       70.8771248285  TIP3      7050            0.0000000000
     43401      7242  TIP3      H1            -20.8938009485       -2.3467208158       71.4683567104  TIP3      7050            0.0000000000
     43402      7242  TIP3      H2            -20.7532746657       -3.0908104094       70.1731296440  TIP3      7050            0.0000000000
     43403      7243  TIP3      OH2           -18.2013997482       -8.4448960656       59.9899210991  TIP3      7051            0.0000000000
     43404      7243  TIP3      H1            -18.8045133059       -8.1166828402       59.2949650781  TIP3      7051            0.0000000000
     43405      7243  TIP3      H2            -18.3259785259       -7.7715958435       60.6844490580  TIP3      7051            0.0000000000
     43406      7244  TIP3      OH2           -19.8650613150      -11.2193814789       58.5397965639  TIP3      7052            0.0000000000
     43407      7244  TIP3      H1            -19.7673314035      -10.5703396215       57.8347755519  TIP3      7052            0.0000000000
     43408      7244  TIP3      H2            -20.0240051186      -12.0569642343       58.0605021299  TIP3      7052            0.0000000000
     43409      7245  TIP3      OH2           -21.3866469621       -9.6614877421       64.3323605872  TIP3      7053            0.0000000000
     43410      7245  TIP3      H1            -20.8775737331      -10.4854332295       64.1220332653  TIP3      7053            0.0000000000
     43411      7245  TIP3      H2            -21.0510574191       -9.5394462902       65.2361081291  TIP3      7053            0.0000000000
     43412      7246  TIP3      OH2           -35.6774412067       -7.7436435076       68.1767149133  TIP3      7054            0.0000000000
     43413      7246  TIP3      H1            -35.4738672139       -7.7845096667       67.2190420679  TIP3      7054            0.0000000000
     43414      7246  TIP3      H2            -34.7967708942       -7.8539957643       68.5967999475  TIP3      7054            0.0000000000
     43415      7247  TIP3      OH2           -19.8378310138       -7.8448359421       73.9075535557  TIP3      7055            0.0000000000
     43416      7247  TIP3      H1            -19.2256610181       -8.6046210388       74.0125281721  TIP3      7055            0.0000000000
     43417      7247  TIP3      H2            -19.2321202050       -7.0739397113       73.8810276659  TIP3      7055            0.0000000000
     43418      7248  TIP3      OH2           -18.3501280079       -9.9627558529       74.5524859938  TIP3      7056            0.0000000000
     43419      7248  TIP3      H1            -19.2226409720      -10.3691149285       74.3628087110  TIP3      7056            0.0000000000
     43420      7248  TIP3      H2            -17.7697184544      -10.7379021107       74.4665208731  TIP3      7056            0.0000000000
     43421      7249  TIP3      OH2           -20.5964761409      -13.7606168332       57.6686166196  TIP3      7057            0.0000000000
     43422      7249  TIP3      H1            -20.0072063514      -14.2010557096       58.3105685074  TIP3      7057            0.0000000000
     43423      7249  TIP3      H2            -21.4558372233      -14.1852332967       57.8234574368  TIP3      7057            0.0000000000
     43424      7250  TIP3      OH2           -21.2083381668      -12.3954031547       62.3441676524  TIP3      7058            0.0000000000
     43425      7250  TIP3      H1            -20.7846360834      -13.1680339042       62.7826416935  TIP3      7058            0.0000000000
     43426      7250  TIP3      H2            -20.3902488159      -11.8474211330       62.4228552536  TIP3      7058            0.0000000000
     43427      7251  TIP3      OH2           -20.3862586958      -11.6881990849       68.0962081239  TIP3      7059            0.0000000000
     43428      7251  TIP3      H1            -19.4290418430      -11.4545028399       68.0693441286  TIP3      7059            0.0000000000
     43429      7251  TIP3      H2            -20.5772215350      -11.5396655794       69.0322045620  TIP3      7059            0.0000000000
     43430      7252  TIP3      OH2           -20.3282610790      -10.9705147620       70.8579896932  TIP3      7060            0.0000000000
     43431      7252  TIP3      H1            -21.2059610807      -10.6815213986       71.1906444255  TIP3      7060            0.0000000000
     43432      7252  TIP3      H2            -19.8911462375      -10.1068948763       70.6543559833  TIP3      7060            0.0000000000
     43433      7253  TIP3      OH2           -35.7850717184      -12.5754784648       74.3980930898  TIP3      7061            0.0000000000
     43434      7253  TIP3      H1            -34.9139054155      -12.7383862990       74.7425120240  TIP3      7061            0.0000000000
     43435      7253  TIP3      H2            -36.3889071430      -13.2393300724       74.8216434557  TIP3      7061            0.0000000000
     43436      7254  TIP3      OH2           -18.0629626712      -16.8967641465       76.2176492820  TIP3      7062            0.0000000000
     43437      7254  TIP3      H1            -17.7119238137      -17.5669817701       75.6094212378  TIP3      7062            0.0000000000
     43438      7254  TIP3      H2            -17.9474756057      -16.0804166380       75.6996179055  TIP3      7062            0.0000000000
     43439      7255  TIP3      OH2           -20.3381890330      -14.9929894066       62.6848818594  TIP3      7063            0.0000000000
     43440      7255  TIP3      H1            -20.1573681210      -15.3862318571       63.5622243773  TIP3      7063            0.0000000000
     43441      7255  TIP3      H2            -20.9762327311      -15.5936184376       62.2639111440  TIP3      7063            0.0000000000
     43442      7256  TIP3      OH2           -34.8343909826      -14.1810047141       67.2158171047  TIP3      7064            0.0000000000
     43443      7256  TIP3      H1            -34.3749777939      -14.9763652515       67.5447488208  TIP3      7064            0.0000000000
     43444      7256  TIP3      H2            -34.3341395632      -13.4771265034       67.6587818768  TIP3      7064            0.0000000000
     43445      7257  TIP3      OH2           -36.0179169393      -10.3820392797       68.6574361925  TIP3      7065            0.0000000000
     43446      7257  TIP3      H1            -35.9822314777      -10.8108739072       67.7762866156  TIP3      7065            0.0000000000
     43447      7257  TIP3      H2            -35.9403113398       -9.4669108742       68.3769157832  TIP3      7065            0.0000000000
     43448      7258  TIP3      OH2           -18.5358108546      -14.8016465521       74.5723556280  TIP3      7066            0.0000000000
     43449      7258  TIP3      H1            -19.4743070570      -14.5324813883       74.5198874344  TIP3      7066            0.0000000000
     43450      7258  TIP3      H2            -18.5031205761      -15.3538981367       73.7763489213  TIP3      7066            0.0000000000
     43451      7259  TIP3      OH2           -18.5417471576      -14.9212896436       59.2523785827  TIP3      7067            0.0000000000
     43452      7259  TIP3      H1            -18.1196779965      -15.6245047541       58.7127311141  TIP3      7067            0.0000000000
     43453      7259  TIP3      H2            -17.8519418162      -14.2410690416       59.3216637269  TIP3      7067            0.0000000000
     43454      7260  TIP3      OH2           -35.7462669822      -14.8850044883       61.9804571753  TIP3      7068            0.0000000000
     43455      7260  TIP3      H1            -36.7048549234      -14.7512055983       62.0485829000  TIP3      7068            0.0000000000
     43456      7260  TIP3      H2            -35.5391449447      -14.1763107382       61.3406036837  TIP3      7068            0.0000000000
     43457      7261  TIP3      OH2           -21.4875569428        0.0730092713       64.3248278301  TIP3      7069            0.0000000000
     43458      7261  TIP3      H1            -20.8082978890       -0.2297431922       63.6967957881  TIP3      7069            0.0000000000
     43459      7261  TIP3      H2            -20.9683744259        0.5737931604       64.9670536719  TIP3      7069            0.0000000000
     43460      7262  TIP3      OH2            37.0308801143      -16.2549681037       70.8808379341  TIP3      7070            0.0000000000
     43461      7262  TIP3      H1             36.2414156580      -16.4670707022       71.4037493151  TIP3      7070            0.0000000000
     43462      7262  TIP3      H2             36.5485880446      -15.7422478096       70.2079294239  TIP3      7070            0.0000000000
     43463      7263  TIP3      OH2           -34.0674769486       -2.9767442417       74.8341036017  TIP3      7071            0.0000000000
     43464      7263  TIP3      H1            -34.9202113917       -2.8202515944       74.4139372951  TIP3      7071            0.0000000000
     43465      7263  TIP3      H2            -34.3210373905       -3.0867587957       75.7527522049  TIP3      7071            0.0000000000
     43466      7264  TIP3      OH2           -31.1087117099       -1.9952934891       71.1364572184  TIP3      7072            0.0000000000
     43467      7264  TIP3      H1            -31.5057684602       -1.1604835229       70.8347744073  TIP3      7072            0.0000000000
     43468      7264  TIP3      H2            -30.2000134813       -1.9092662274       70.7902036806  TIP3      7072            0.0000000000
     43469      7265  TIP3      OH2           -26.8236932721       -0.6048772146       74.0122093421  TIP3      7073            0.0000000000
     43470      7265  TIP3      H1            -26.6943146725       -0.9455801055       74.9280441057  TIP3      7073            0.0000000000
     43471      7265  TIP3      H2            -25.9214977908       -0.3056067153       73.7887203674  TIP3      7073            0.0000000000
     43472      7266  TIP3      OH2           -24.5098000991        0.7247148577       73.2884732992  TIP3      7074            0.0000000000
     43473      7266  TIP3      H1            -23.8161163037        0.0736460928       73.0957286443  TIP3      7074            0.0000000000
     43474      7266  TIP3      H2            -24.1674851074        1.0928449789       74.1319877862  TIP3      7074            0.0000000000
     43475      7267  TIP3      OH2           -19.5349405742      -16.7047391111       72.4419947949  TIP3      7075            0.0000000000
     43476      7267  TIP3      H1            -20.3519181323      -16.4065699383       72.0095012972  TIP3      7075            0.0000000000
     43477      7267  TIP3      H2            -19.3493020406      -17.5195105520       71.9177182809  TIP3      7075            0.0000000000
     43478      7268  TIP3      OH2           -33.6847431771        1.2240569440       71.1215207285  TIP3      7076            0.0000000000
     43479      7268  TIP3      H1            -34.4345608057        1.7129190887       70.7278694813  TIP3      7076            0.0000000000
     43480      7268  TIP3      H2            -34.0320651797        1.0316636477       72.0067822049  TIP3      7076            0.0000000000
     43481      7269  TIP3      OH2           -31.2345972726        0.8032787741       70.1600171922  TIP3      7077            0.0000000000
     43482      7269  TIP3      H1            -32.1313304682        0.9331169580       70.5553676841  TIP3      7077            0.0000000000
     43483      7269  TIP3      H2            -31.2907532735        1.3979286970       69.3924254702  TIP3      7077            0.0000000000
     43484      7270  TIP3      OH2           -26.5050400743        0.7221910352       69.3321149041  TIP3      7078            0.0000000000
     43485      7270  TIP3      H1            -27.0120731971        1.2483813507       68.6921419215  TIP3      7078            0.0000000000
     43486      7270  TIP3      H2            -26.4272446835        1.3358440409       70.0890916572  TIP3      7078            0.0000000000
     43487      7271  TIP3      OH2           -24.2592324957       -0.4788877649       70.3881871646  TIP3      7079            0.0000000000
     43488      7271  TIP3      H1            -25.1105722470       -0.2236483635       69.9948166713  TIP3      7079            0.0000000000
     43489      7271  TIP3      H2            -23.7659701210        0.3427613424       70.2699745608  TIP3      7079            0.0000000000
     43490      7272  TIP3      OH2           -21.7277365952        1.0991046333       70.5663020846  TIP3      7080            0.0000000000
     43491      7272  TIP3      H1            -21.6683667490        2.0375685278       70.3157451946  TIP3      7080            0.0000000000
     43492      7272  TIP3      H2            -21.4401815399        0.6761814368       69.7241116099  TIP3      7080            0.0000000000
     43493      7273  TIP3      OH2           -34.3099405061       -0.1298678007       68.0335975266  TIP3      7081            0.0000000000
     43494      7273  TIP3      H1            -34.3121610563       -0.5807670221       68.9033490741  TIP3      7081            0.0000000000
     43495      7273  TIP3      H2            -33.4935948282       -0.5055700164       67.6453133119  TIP3      7081            0.0000000000
     43496      7274  TIP3      OH2           -32.2103735009       -1.4154180088       66.7040783409  TIP3      7082            0.0000000000
     43497      7274  TIP3      H1            -32.3648517359       -2.3529931146       66.9364726943  TIP3      7082            0.0000000000
     43498      7274  TIP3      H2            -31.3430882256       -1.2641683105       67.1410367645  TIP3      7082            0.0000000000
     43499      7275  TIP3      OH2           -29.5909339172       -0.9459945344       67.5782696839  TIP3      7083            0.0000000000
     43500      7275  TIP3      H1            -29.4217088961       -1.8643266702       67.3135563987  TIP3      7083            0.0000000000
     43501      7275  TIP3      H2            -29.5280728658       -0.9933757514       68.5419133210  TIP3      7083            0.0000000000
     43502      7276  TIP3      OH2           -26.1243222081      -15.2883737399       66.7137569312  TIP3      7084            0.0000000000
     43503      7276  TIP3      H1            -26.8009392945      -15.9283842501       66.9924643479  TIP3      7084            0.0000000000
     43504      7276  TIP3      H2            -25.5723214243      -15.8202606368       66.1283596770  TIP3      7084            0.0000000000
     43505      7277  TIP3      OH2           -20.9882844116      -17.2411951897       66.7804533720  TIP3      7085            0.0000000000
     43506      7277  TIP3      H1            -20.3739743581      -16.6508573846       66.2695430108  TIP3      7085            0.0000000000
     43507      7277  TIP3      H2            -21.8688870493      -16.8811931237       66.5467372684  TIP3      7085            0.0000000000
     43508      7278  TIP3      OH2           -19.3223259304      -16.0159104707       65.0684223829  TIP3      7086            0.0000000000
     43509      7278  TIP3      H1            -18.6275096840      -16.5593979155       64.6281670523  TIP3      7086            0.0000000000
     43510      7278  TIP3      H2            -18.8257943065      -15.1605560821       65.1581756177  TIP3      7086            0.0000000000
     43511      7279  TIP3      OH2           -33.7425930187      -16.6699608015       64.5888931505  TIP3      7087            0.0000000000
     43512      7279  TIP3      H1            -34.5235593055      -16.8673933661       64.0242695709  TIP3      7087            0.0000000000
     43513      7279  TIP3      H2            -33.2540690315      -17.5085494027       64.4860788844  TIP3      7087            0.0000000000
     43514      7280  TIP3      OH2           -34.8629424072      -16.9013497947       60.3588520629  TIP3      7088            0.0000000000
     43515      7280  TIP3      H1            -34.4762221571      -16.2756680646       59.7292759270  TIP3      7088            0.0000000000
     43516      7280  TIP3      H2            -35.5426440687      -16.3563493658       60.7870789332  TIP3      7088            0.0000000000
     43517      7281  TIP3      OH2           -29.2827984411      -16.7351847476       64.3459428714  TIP3      7089            0.0000000000
     43518      7281  TIP3      H1            -28.3816748305      -16.3779011893       64.2679703432  TIP3      7089            0.0000000000
     43519      7281  TIP3      H2            -29.3153032648      -16.9523664377       65.2773782468  TIP3      7089            0.0000000000
     43520      7282  TIP3      OH2           -23.5678278452      -16.7173465244       65.9686659965  TIP3      7090            0.0000000000
     43521      7282  TIP3      H1            -23.6191902712      -16.6039564486       65.0108463164  TIP3      7090            0.0000000000
     43522      7282  TIP3      H2            -23.9473793863      -17.6209649354       66.0977968637  TIP3      7090            0.0000000000
     43523      7283  TIP3      OH2           -22.3023476662      -16.6889326535       61.6544734851  TIP3      7091            0.0000000000
     43524      7283  TIP3      H1            -23.0491581131      -16.0928033291       61.4943297218  TIP3      7091            0.0000000000
     43525      7283  TIP3      H2            -22.7425406601      -17.5405938485       61.8872664888  TIP3      7091            0.0000000000
     43526      7284  TIP3      OH2           -35.0657363319       -0.9224013323       61.3358297027  TIP3      7092            0.0000000000
     43527      7284  TIP3      H1            -35.6726332962       -0.9511471309       60.5815367793  TIP3      7092            0.0000000000
     43528      7284  TIP3      H2            -35.0458794772        0.0333063970       61.4754756239  TIP3      7092            0.0000000000
     43529      7285  TIP3      OH2           -33.1448413606      -14.9234609615       58.8069707698  TIP3      7093            0.0000000000
     43530      7285  TIP3      H1            -32.6552261027      -15.5816342614       58.2775505278  TIP3      7093            0.0000000000
     43531      7285  TIP3      H2            -32.4528912305      -14.6634853782       59.4347079310  TIP3      7093            0.0000000000
     43532      7286  TIP3      OH2           -28.1299853156      -14.7216612351       61.1951901862  TIP3      7094            0.0000000000
     43533      7286  TIP3      H1            -27.8781549534      -15.3018113191       61.9327264554  TIP3      7094            0.0000000000
     43534      7286  TIP3      H2            -28.0591164985      -13.8552677591       61.6534272561  TIP3      7094            0.0000000000
     43535      7287  TIP3      OH2           -26.1964344800        0.3524791203       59.6430762700  TIP3      7095            0.0000000000
     43536      7287  TIP3      H1            -25.2786518558        0.5782489219       59.4212523549  TIP3      7095            0.0000000000
     43537      7287  TIP3      H2            -26.4169056161       -0.1680854870       58.8421255044  TIP3      7095            0.0000000000
     43538      7288  TIP3      OH2           -19.5062348708       -0.1469150871       62.3651904786  TIP3      7096            0.0000000000
     43539      7288  TIP3      H1            -19.6948724632       -0.9289640008       61.7928184490  TIP3      7096            0.0000000000
     43540      7288  TIP3      H2            -19.5693872280        0.5875003475       61.7205715117  TIP3      7096            0.0000000000
     43541      7289  TIP3      OH2           -33.9301741331      -16.0839378574       74.0855861490  TIP3      7097            0.0000000000
     43542      7289  TIP3      H1            -34.2756919350      -16.9551752479       74.3792262463  TIP3      7097            0.0000000000
     43543      7289  TIP3      H2            -32.9915422754      -16.2095418539       74.3272630649  TIP3      7097            0.0000000000
     43544      7290  TIP3      OH2           -31.8172291338      -16.6962188572       75.7045585727  TIP3      7098            0.0000000000
     43545      7290  TIP3      H1            -30.9951180794      -17.1339426509       75.3836274991  TIP3      7098            0.0000000000
     43546      7290  TIP3      H2            -32.2709689013      -17.5181078288       76.0229332535  TIP3      7098            0.0000000000
     43547      7291  TIP3      OH2           -33.2759532223       -0.0029270697       58.2355145801  TIP3      7099            0.0000000000
     43548      7291  TIP3      H1            -33.5246984109        0.2731527460       59.1264635831  TIP3      7099            0.0000000000
     43549      7291  TIP3      H2            -32.4678678464       -0.5235538285       58.4039931829  TIP3      7099            0.0000000000
     43550      7292  TIP3      OH2           -23.4653749651      -17.4555595374       75.8098074751  TIP3      7100            0.0000000000
     43551      7292  TIP3      H1            -23.3602205615      -17.9205974329       76.6612300729  TIP3      7100            0.0000000000
     43552      7292  TIP3      H2            -22.5479171378      -17.4801574329       75.4626243278  TIP3      7100            0.0000000000
     43553      7293  TIP3      OH2           -20.2593789883       -1.4008382393       74.4609521296  TIP3      7101            0.0000000000
     43554      7293  TIP3      H1            -21.0514362059       -1.5367639030       73.8967426056  TIP3      7101            0.0000000000
     43555      7293  TIP3      H2            -20.3749820389       -0.4520556630       74.6637873832  TIP3      7101            0.0000000000
     43556      7294  TIP3      OH2            -5.8045197713       -7.5197664273       64.4047827262  TIP3      7102            0.0000000000
     43557      7294  TIP3      H1             -5.8264047385       -6.5392567924       64.3886240601  TIP3      7102            0.0000000000
     43558      7294  TIP3      H2             -6.5392049349       -7.7540408628       63.8138649924  TIP3      7102            0.0000000000
     43559      7295  TIP3      OH2            -6.9535593076       -8.2663892992       67.9169834235  TIP3      7103            0.0000000000
     43560      7295  TIP3      H1             -6.9666444153       -8.9159994529       68.6342057319  TIP3      7103            0.0000000000
     43561      7295  TIP3      H2             -7.3046982517       -8.7753516041       67.1658825990  TIP3      7103            0.0000000000
     43562      7296  TIP3      OH2           -14.6037479446       -8.5888126388       69.4698879720  TIP3      7104            0.0000000000
     43563      7296  TIP3      H1            -14.5182451138       -9.2756985459       70.1639294216  TIP3      7104            0.0000000000
     43564      7296  TIP3      H2            -13.8528198153       -8.0191821638       69.6914390188  TIP3      7104            0.0000000000
     43565      7297  TIP3      OH2            -3.2704307694       -5.3179052670       66.2010794085  TIP3      7105            0.0000000000
     43566      7297  TIP3      H1             -3.6801475591       -6.0356521329       66.6940663963  TIP3      7105            0.0000000000
     43567      7297  TIP3      H2             -3.2442886202       -4.6096318234       66.8718352530  TIP3      7105            0.0000000000
     43568      7298  TIP3      OH2           -13.6767555596       -4.1408785463       67.9701812558  TIP3      7106            0.0000000000
     43569      7298  TIP3      H1            -13.9857664371       -5.0122389913       67.6519016294  TIP3      7106            0.0000000000
     43570      7298  TIP3      H2            -12.7214388446       -4.3255305214       68.0140097846  TIP3      7106            0.0000000000
     43571      7299  TIP3      OH2           -16.6092237731      -10.3414490823       63.1592469403  TIP3      7107            0.0000000000
     43572      7299  TIP3      H1            -17.3059417111       -9.7263691304       63.4356675968  TIP3      7107            0.0000000000
     43573      7299  TIP3      H2            -17.2978138587      -11.0356955703       62.9939816361  TIP3      7107            0.0000000000
     43574      7300  TIP3      OH2           -16.3016982735       -8.3424599565       65.6267209320  TIP3      7108            0.0000000000
     43575      7300  TIP3      H1            -16.0672551528       -9.1934825296       66.0463170154  TIP3      7108            0.0000000000
     43576      7300  TIP3      H2            -15.6452496454       -8.2698591935       64.9177981338  TIP3      7108            0.0000000000
     43577      7301  TIP3      OH2            -6.1502493400       -0.1588725142       66.4404338016  TIP3      7109            0.0000000000
     43578      7301  TIP3      H1             -5.5011216567       -0.8471200859       66.1512911117  TIP3      7109            0.0000000000
     43579      7301  TIP3      H2             -6.3646045994       -0.4984289927       67.3087665420  TIP3      7109            0.0000000000
     43580      7302  TIP3      OH2            -8.5905265334       -5.8556264948       68.4013211197  TIP3      7110            0.0000000000
     43581      7302  TIP3      H1             -8.2538975436       -6.4810477645       67.7407005848  TIP3      7110            0.0000000000
     43582      7302  TIP3      H2             -7.7733456504       -5.7048900253       68.9081561296  TIP3      7110            0.0000000000
     43583      7303  TIP3      OH2             0.0139824864      -14.2026360989       69.1109278541  TIP3      7111            0.0000000000
     43584      7303  TIP3      H1              0.1951903907      -13.6177242530       69.8780775777  TIP3      7111            0.0000000000
     43585      7303  TIP3      H2              0.5851184666      -13.7844784457       68.4505521732  TIP3      7111            0.0000000000
     43586      7304  TIP3      OH2            -5.4120063061      -11.3979769458       68.7033420575  TIP3      7112            0.0000000000
     43587      7304  TIP3      H1             -5.2438909046      -12.3567981574       68.7082269713  TIP3      7112            0.0000000000
     43588      7304  TIP3      H2             -5.5150917934      -11.2578745606       67.7422465717  TIP3      7112            0.0000000000
     43589      7305  TIP3      OH2           -12.2815784096      -13.3168672925       65.9225075595  TIP3      7113            0.0000000000
     43590      7305  TIP3      H1            -12.1808869393      -12.4803783301       65.4320258897  TIP3      7113            0.0000000000
     43591      7305  TIP3      H2            -12.6855234350      -13.8880918842       65.2346762242  TIP3      7113            0.0000000000
     43592      7306  TIP3      OH2            -4.5642254021      -13.2344810007       64.2866820201  TIP3      7114            0.0000000000
     43593      7306  TIP3      H1             -3.9130793707      -13.5454188745       64.9585299251  TIP3      7114            0.0000000000
     43594      7306  TIP3      H2             -3.9975411584      -12.6532898037       63.7577542189  TIP3      7114            0.0000000000
     43595      7307  TIP3      OH2           -15.6741539143      -10.8855644413       66.6472214696  TIP3      7115            0.0000000000
     43596      7307  TIP3      H1            -15.0178670604      -11.4450411440       67.0981354224  TIP3      7115            0.0000000000
     43597      7307  TIP3      H2            -15.5725118811      -11.2092813715       65.7390305240  TIP3      7115            0.0000000000
     43598      7308  TIP3      OH2           -10.5245567715       -9.3458322566       65.9724337821  TIP3      7116            0.0000000000
     43599      7308  TIP3      H1             -9.8461921476       -9.9227131638       66.3654104036  TIP3      7116            0.0000000000
     43600      7308  TIP3      H2            -11.0346953315      -10.0055766168       65.4643413443  TIP3      7116            0.0000000000
     43601      7309  TIP3      OH2             0.4634354637      -12.8039242753       71.3900549373  TIP3      7117            0.0000000000
     43602      7309  TIP3      H1             -0.1435696249      -12.0377420136       71.2777973243  TIP3      7117            0.0000000000
     43603      7309  TIP3      H2              0.4926375954      -12.8825572270       72.3515410344  TIP3      7117            0.0000000000
     43604      7310  TIP3      OH2           -13.3895227319      -14.4115165284       69.9581345517  TIP3      7118            0.0000000000
     43605      7310  TIP3      H1            -13.6682826613      -13.8405373455       69.2100515838  TIP3      7118            0.0000000000
     43606      7310  TIP3      H2            -14.0668357729      -14.1756089913       70.6386690236  TIP3      7118            0.0000000000
     43607      7311  TIP3      OH2            -6.1018279791       -4.9315409439       63.5032863021  TIP3      7119            0.0000000000
     43608      7311  TIP3      H1             -6.3637080327       -5.2023190733       62.6141263116  TIP3      7119            0.0000000000
     43609      7311  TIP3      H2             -6.4079751358       -3.9967038354       63.5549216732  TIP3      7119            0.0000000000
     43610      7312  TIP3      OH2           -10.8777010902       -6.7603603353       70.1938742015  TIP3      7120            0.0000000000
     43611      7312  TIP3      H1            -11.5817030240       -6.1174871850       70.4175856577  TIP3      7120            0.0000000000
     43612      7312  TIP3      H2            -10.1683493242       -6.1653069034       69.9048803384  TIP3      7120            0.0000000000
     43613      7313  TIP3      OH2            -2.7479673387      -13.8818628892       66.2798930141  TIP3      7121            0.0000000000
     43614      7313  TIP3      H1             -2.9699729813      -14.6504851955       66.8132445761  TIP3      7121            0.0000000000
     43615      7313  TIP3      H2             -2.0787487234      -13.4465501856       66.8352914696  TIP3      7121            0.0000000000
     43616      7314  TIP3      OH2           -13.8204379314      -12.5562938331       67.9918130582  TIP3      7122            0.0000000000
     43617      7314  TIP3      H1            -13.1924065756      -11.8668203374       68.3056028716  TIP3      7122            0.0000000000
     43618      7314  TIP3      H2            -13.3029103801      -12.9649286569       67.2544918699  TIP3      7122            0.0000000000
     43619      7315  TIP3      OH2           -12.4305727728       -4.7568964339       71.0249348981  TIP3      7123            0.0000000000
     43620      7315  TIP3      H1            -12.4816709577       -3.8597794794       70.6602646037  TIP3      7123            0.0000000000
     43621      7315  TIP3      H2            -13.3163365647       -4.8367438377       71.4613109142  TIP3      7123            0.0000000000
     43622      7316  TIP3      OH2           -16.3448948907       -5.1535949584       61.8124138639  TIP3      7124            0.0000000000
     43623      7316  TIP3      H1            -16.6004030782       -4.8225598539       60.9352038477  TIP3      7124            0.0000000000
     43624      7316  TIP3      H2            -16.2701853444       -4.3234906523       62.3240520893  TIP3      7124            0.0000000000
     43625      7317  TIP3      OH2            -2.7583248364       -3.4886475507       68.5520636859  TIP3      7125            0.0000000000
     43626      7317  TIP3      H1             -3.7205725825       -3.3658006202       68.6886124275  TIP3      7125            0.0000000000
     43627      7317  TIP3      H2             -2.4706582684       -2.5728035711       68.3688743112  TIP3      7125            0.0000000000
     43628      7318  TIP3      OH2            -2.4159633766      -15.1976612676       69.9564270522  TIP3      7126            0.0000000000
     43629      7318  TIP3      H1             -3.1404930381      -14.5640526516       69.8645838234  TIP3      7126            0.0000000000
     43630      7318  TIP3      H2             -1.7025779150      -14.7784884822       69.4344686550  TIP3      7126            0.0000000000
     43631      7319  TIP3      OH2            -9.4510499907      -17.0757857606       67.4247848604  TIP3      7127            0.0000000000
     43632      7319  TIP3      H1             -9.5924624873      -18.0380824022       67.3480313533  TIP3      7127            0.0000000000
     43633      7319  TIP3      H2            -10.3305999817      -16.7698885727       67.7282641901  TIP3      7127            0.0000000000
     43634      7320  TIP3      OH2            -4.4791613419       -1.6944250093       65.1550036259  TIP3      7128            0.0000000000
     43635      7320  TIP3      H1             -4.0522379135       -2.4153632996       64.6477758395  TIP3      7128            0.0000000000
     43636      7320  TIP3      H2             -4.0445565342       -0.9065795893       64.7648818066  TIP3      7128            0.0000000000
     43637      7321  TIP3      OH2            -3.2649410332       -3.7695065370       63.6764046712  TIP3      7129            0.0000000000
     43638      7321  TIP3      H1             -3.5682711256       -4.4660411931       63.0726079870  TIP3      7129            0.0000000000
     43639      7321  TIP3      H2             -3.2330943342       -4.2601628446       64.5173072495  TIP3      7129            0.0000000000
     43640      7322  TIP3      OH2            -1.6630569616       -5.1734309710       72.1697211952  TIP3      7130            0.0000000000
     43641      7322  TIP3      H1             -1.4911852456       -5.8182203084       71.4490217379  TIP3      7130            0.0000000000
     43642      7322  TIP3      H2             -1.4486713547       -4.3310942137       71.7319028698  TIP3      7130            0.0000000000
     43643      7323  TIP3      OH2            -7.1541654923       -8.2943340628       61.9288892745  TIP3      7131            0.0000000000
     43644      7323  TIP3      H1             -7.8454297902       -7.7129101499       61.5681302112  TIP3      7131            0.0000000000
     43645      7323  TIP3      H2             -6.4430380299       -8.1891886278       61.2686814684  TIP3      7131            0.0000000000
     43646      7324  TIP3      OH2            -7.0726540375       -9.7168436328       58.9405044837  TIP3      7132            0.0000000000
     43647      7324  TIP3      H1             -6.3673889739       -9.7343941596       59.6051091267  TIP3      7132            0.0000000000
     43648      7324  TIP3      H2             -6.7656756305      -10.4345490933       58.3718692337  TIP3      7132            0.0000000000
     43649      7325  TIP3      OH2             0.2157381222       -8.8777520736       70.1979484221  TIP3      7133            0.0000000000
     43650      7325  TIP3      H1             -0.4110780581       -8.1291093743       70.2534070675  TIP3      7133            0.0000000000
     43651      7325  TIP3      H2              0.7272756512       -8.6301215062       69.4063871604  TIP3      7133            0.0000000000
     43652      7326  TIP3      OH2            -3.6981814554       -8.0743998853       62.8538877924  TIP3      7134            0.0000000000
     43653      7326  TIP3      H1             -4.4445434318       -7.8320918501       63.4520149536  TIP3      7134            0.0000000000
     43654      7326  TIP3      H2             -3.2286334292       -8.7482694103       63.3768029579  TIP3      7134            0.0000000000
     43655      7327  TIP3      OH2            -3.7777816827       -9.9079264173       71.9795505796  TIP3      7135            0.0000000000
     43656      7327  TIP3      H1             -3.7700511636       -9.0863558582       72.4972085536  TIP3      7135            0.0000000000
     43657      7327  TIP3      H2             -4.4063015629       -9.6180621529       71.2853382559  TIP3      7135            0.0000000000
     43658      7328  TIP3      OH2           -12.0887966553       -7.4114069722       64.7714296183  TIP3      7136            0.0000000000
     43659      7328  TIP3      H1            -12.4115828449       -7.7985360181       63.9222774564  TIP3      7136            0.0000000000
     43660      7328  TIP3      H2            -11.4917972374       -8.1161704197       65.1041315192  TIP3      7136            0.0000000000
     43661      7329  TIP3      OH2           -10.7749520633       -4.0315707567       67.4496836964  TIP3      7137            0.0000000000
     43662      7329  TIP3      H1            -10.7782597788       -4.5574040146       66.6391748034  TIP3      7137            0.0000000000
     43663      7329  TIP3      H2             -9.9911503842       -4.3889627709       67.9093613934  TIP3      7137            0.0000000000
     43664      7330  TIP3      OH2           -11.7649986223       -8.6699875064       68.4344475972  TIP3      7138            0.0000000000
     43665      7330  TIP3      H1            -11.2184731164       -8.5703418352       67.6302466931  TIP3      7138            0.0000000000
     43666      7330  TIP3      H2            -11.3742881308       -8.0026308750       69.0410949670  TIP3      7138            0.0000000000
     43667      7331  TIP3      OH2            -5.3467506627       -3.0957405824       69.1377431033  TIP3      7139            0.0000000000
     43668      7331  TIP3      H1             -5.6374199160       -2.4583283294       69.7952896768  TIP3      7139            0.0000000000
     43669      7331  TIP3      H2             -5.5987231084       -3.9490370350       69.5621006198  TIP3      7139            0.0000000000
     43670      7332  TIP3      OH2           -10.8063687722       -4.2105081955       73.1140893947  TIP3      7140            0.0000000000
     43671      7332  TIP3      H1            -11.2275919993       -3.4970695396       73.6252475164  TIP3      7140            0.0000000000
     43672      7332  TIP3      H2            -11.4854380083       -4.4479754938       72.4337949292  TIP3      7140            0.0000000000
     43673      7333  TIP3      OH2            -4.8253098596       -8.8753148486       60.5188978455  TIP3      7141            0.0000000000
     43674      7333  TIP3      H1             -4.2707244368       -8.6971405169       61.3181688213  TIP3      7141            0.0000000000
     43675      7333  TIP3      H2             -4.3771507520       -8.3783447850       59.7970593028  TIP3      7141            0.0000000000
     43676      7334  TIP3      OH2           -13.8672855279       -8.0735297268       72.2749435382  TIP3      7142            0.0000000000
     43677      7334  TIP3      H1            -13.8149599816       -7.4108222597       72.9890336977  TIP3      7142            0.0000000000
     43678      7334  TIP3      H2            -14.8109904303       -7.9881264279       72.0718847983  TIP3      7142            0.0000000000
     43679      7335  TIP3      OH2            -7.1163837437       -2.1497476207       63.9917097495  TIP3      7143            0.0000000000
     43680      7335  TIP3      H1             -6.6841731736       -1.8428044903       64.7963672483  TIP3      7143            0.0000000000
     43681      7335  TIP3      H2             -7.6734674661       -1.4007134762       63.7519158048  TIP3      7143            0.0000000000
     43682      7336  TIP3      OH2           -12.5841738350       -2.1129514980       73.8509203001  TIP3      7144            0.0000000000
     43683      7336  TIP3      H1            -12.6318391544       -2.3590126156       72.9099659133  TIP3      7144            0.0000000000
     43684      7336  TIP3      H2            -13.4829519799       -2.3604925776       74.1596745515  TIP3      7144            0.0000000000
     43685      7337  TIP3      OH2            -1.1527433064      -17.1465800700       60.3673461031  TIP3      7145            0.0000000000
     43686      7337  TIP3      H1             -2.0447433073      -16.9935506165       60.7378946285  TIP3      7145            0.0000000000
     43687      7337  TIP3      H2             -0.8677663475      -16.2849275249       60.0125017340  TIP3      7145            0.0000000000
     43688      7338  TIP3      OH2           -13.1340536851       -8.4018515964       62.3990377317  TIP3      7146            0.0000000000
     43689      7338  TIP3      H1            -13.4144676221       -7.6159309110       61.8822103765  TIP3      7146            0.0000000000
     43690      7338  TIP3      H2            -13.7912209090       -9.0611751086       62.1587182753  TIP3      7146            0.0000000000
     43691      7339  TIP3      OH2             0.0090791154       -2.7884769258       58.7706814498  TIP3      7147            0.0000000000
     43692      7339  TIP3      H1              0.1752185927       -1.8455180871       58.9404900857  TIP3      7147            0.0000000000
     43693      7339  TIP3      H2              0.9324851314       -3.1015533552       58.7677689355  TIP3      7147            0.0000000000
     43694      7340  TIP3      OH2           -17.0423778341       -5.9654815783       71.2881321438  TIP3      7148            0.0000000000
     43695      7340  TIP3      H1            -17.4822864448       -6.0494860552       70.4229007692  TIP3      7148            0.0000000000
     43696      7340  TIP3      H2            -16.9539725206       -6.9140619523       71.5011483100  TIP3      7148            0.0000000000
     43697      7341  TIP3      OH2           -17.2665666212       -3.2217268908       68.0691180671  TIP3      7149            0.0000000000
     43698      7341  TIP3      H1            -16.3113997177       -3.3433964780       68.0402719020  TIP3      7149            0.0000000000
     43699      7341  TIP3      H2            -17.3547045984       -2.4028498613       68.5694684655  TIP3      7149            0.0000000000
     43700      7342  TIP3      OH2             0.9367418495       -2.5182508013       73.7373855795  TIP3      7150            0.0000000000
     43701      7342  TIP3      H1              0.8560747630       -3.4794152092       73.7201852661  TIP3      7150            0.0000000000
     43702      7342  TIP3      H2              0.0810942529       -2.2737729088       74.1594937355  TIP3      7150            0.0000000000
     43703      7343  TIP3      OH2            -8.0955722469       -2.9667806831       72.5888199621  TIP3      7151            0.0000000000
     43704      7343  TIP3      H1             -8.0101086724       -2.1558424726       73.1462005622  TIP3      7151            0.0000000000
     43705      7343  TIP3      H2             -8.9444285339       -3.3548668752       72.8725805449  TIP3      7151            0.0000000000
     43706      7344  TIP3      OH2            -7.6326397766        0.7594096569       62.4006634919  TIP3      7152            0.0000000000
     43707      7344  TIP3      H1             -7.7457778155        0.6800536097       61.4363497367  TIP3      7152            0.0000000000
     43708      7344  TIP3      H2             -7.6328468895        1.7203697453       62.5578258652  TIP3      7152            0.0000000000
     43709      7345  TIP3      OH2           -13.9987521266       -0.3613714917       64.2268162070  TIP3      7153            0.0000000000
     43710      7345  TIP3      H1            -13.8526913294       -0.7784352423       65.1027558810  TIP3      7153            0.0000000000
     43711      7345  TIP3      H2            -14.8460619037       -0.7717395306       63.9861914914  TIP3      7153            0.0000000000
     43712      7346  TIP3      OH2            -4.5808243245       -0.0281342986       59.3857240499  TIP3      7154            0.0000000000
     43713      7346  TIP3      H1             -4.1261761641       -0.7867349733       58.9514846707  TIP3      7154            0.0000000000
     43714      7346  TIP3      H2             -4.5412511388       -0.2895328505       60.3291532472  TIP3      7154            0.0000000000
     43715      7347  TIP3      OH2            -4.8835344009       -0.0924218850       62.1611800124  TIP3      7155            0.0000000000
     43716      7347  TIP3      H1             -5.8460604703       -0.0174731308       62.3308922646  TIP3      7155            0.0000000000
     43717      7347  TIP3      H2             -4.6515897593       -0.8356787368       62.7385499173  TIP3      7155            0.0000000000
     43718      7348  TIP3      OH2            -1.8829458522      -11.0539657492       74.1874881853  TIP3      7156            0.0000000000
     43719      7348  TIP3      H1             -2.3768594766      -10.6058743325       73.4818075524  TIP3      7156            0.0000000000
     43720      7348  TIP3      H2             -1.9107470943      -11.9801688272       73.9052599464  TIP3      7156            0.0000000000
     43721      7349  TIP3      OH2           -14.7509280423       -4.6484583629       72.2266597462  TIP3      7157            0.0000000000
     43722      7349  TIP3      H1            -14.5293057571       -5.0157982990       73.1095113707  TIP3      7157            0.0000000000
     43723      7349  TIP3      H2            -15.6212549263       -5.0435312464       72.0146002081  TIP3      7157            0.0000000000
     43724      7350  TIP3      OH2           -12.0581471792      -16.1590017312       68.1664409088  TIP3      7158            0.0000000000
     43725      7350  TIP3      H1            -12.9660629458      -16.3003353942       67.8078303759  TIP3      7158            0.0000000000
     43726      7350  TIP3      H2            -12.2024212843      -15.3365768066       68.6603805332  TIP3      7158            0.0000000000
     43727      7351  TIP3      OH2            -7.4258084608      -16.5082978890       71.5324917386  TIP3      7159            0.0000000000
     43728      7351  TIP3      H1             -7.0363876106      -16.9334177005       72.3200188341  TIP3      7159            0.0000000000
     43729      7351  TIP3      H2             -8.3965438978      -16.6268296184       71.6749061878  TIP3      7159            0.0000000000
     43730      7352  TIP3      OH2            -4.1346032413      -12.6539962587       72.4419135936  TIP3      7160            0.0000000000
     43731      7352  TIP3      H1             -4.7042958631      -12.8712822605       73.2189687625  TIP3      7160            0.0000000000
     43732      7352  TIP3      H2             -4.3231582390      -11.7297317835       72.2089074057  TIP3      7160            0.0000000000
     43733      7353  TIP3      OH2            -3.3811375633       -7.8385225585       58.3317167311  TIP3      7161            0.0000000000
     43734      7353  TIP3      H1             -3.4007083712       -8.0324619049       57.3658472395  TIP3      7161            0.0000000000
     43735      7353  TIP3      H2             -2.5206354262       -7.3978403284       58.3850826707  TIP3      7161            0.0000000000
     43736      7354  TIP3      OH2            -7.7367017210      -13.9546672122       58.8561003781  TIP3      7162            0.0000000000
     43737      7354  TIP3      H1             -8.1110671872      -13.9686383984       59.7589823176  TIP3      7162            0.0000000000
     43738      7354  TIP3      H2             -8.1261385178      -14.7947528444       58.5395681286  TIP3      7162            0.0000000000
     43739      7355  TIP3      OH2           -11.9636813635      -11.1948631692       69.4346575953  TIP3      7163            0.0000000000
     43740      7355  TIP3      H1            -12.7048694237      -11.2078893210       70.0655354470  TIP3      7163            0.0000000000
     43741      7355  TIP3      H2            -12.0142704420      -10.2886332165       69.0547467530  TIP3      7163            0.0000000000
     43742      7356  TIP3      OH2           -11.9988661000      -11.0857567830       64.2938104187  TIP3      7164            0.0000000000
     43743      7356  TIP3      H1            -12.9379403558      -11.3347425384       64.1587260329  TIP3      7164            0.0000000000
     43744      7356  TIP3      H2            -11.6175705749      -11.3752299311       63.4409476563  TIP3      7164            0.0000000000
     43745      7357  TIP3      OH2            -6.4879104040      -10.5789639074       63.0687230800  TIP3      7165            0.0000000000
     43746      7357  TIP3      H1             -6.8798438889       -9.7561580823       62.6987311494  TIP3      7165            0.0000000000
     43747      7357  TIP3      H2             -5.8000459434      -10.7469978747       62.4038696744  TIP3      7165            0.0000000000
     43748      7358  TIP3      OH2            -7.4453246558      -10.3607383229       74.4968957902  TIP3      7166            0.0000000000
     43749      7358  TIP3      H1             -7.9513552883      -11.1518662767       74.8001481568  TIP3      7166            0.0000000000
     43750      7358  TIP3      H2             -6.5949231157      -10.4834902438       74.9516642753  TIP3      7166            0.0000000000
     43751      7359  TIP3      OH2            -5.4503373035      -11.0866108477       65.9062096592  TIP3      7167            0.0000000000
     43752      7359  TIP3      H1             -5.7366108533      -10.5248257223       65.1666446072  TIP3      7167            0.0000000000
     43753      7359  TIP3      H2             -5.3572592964      -11.9379007571       65.4387025762  TIP3      7167            0.0000000000
     43754      7360  TIP3      OH2           -14.3433400501      -10.9498080205       71.1069508188  TIP3      7168            0.0000000000
     43755      7360  TIP3      H1            -14.2618151524      -10.5418831406       71.9861328243  TIP3      7168            0.0000000000
     43756      7360  TIP3      H2            -14.7867600116      -11.7875290549       71.3171090821  TIP3      7168            0.0000000000
     43757      7361  TIP3      OH2           -10.9642334941      -13.5569853354       57.9573108016  TIP3      7169            0.0000000000
     43758      7361  TIP3      H1            -11.4245089354      -13.9723494500       58.7176329513  TIP3      7169            0.0000000000
     43759      7361  TIP3      H2            -11.6782047443      -13.1198455603       57.4724716101  TIP3      7169            0.0000000000
     43760      7362  TIP3      OH2           -17.6795076724      -13.9539265872       65.1270723750  TIP3      7170            0.0000000000
     43761      7362  TIP3      H1            -16.9753323925      -13.8843179622       65.7973622634  TIP3      7170            0.0000000000
     43762      7362  TIP3      H2            -17.2266302892      -14.2039241619       64.3076462630  TIP3      7170            0.0000000000
     43763      7363  TIP3      OH2           -16.4148871408      -13.1440022883       60.4242395524  TIP3      7171            0.0000000000
     43764      7363  TIP3      H1            -15.9152994675      -12.5001768810       59.8913746726  TIP3      7171            0.0000000000
     43765      7363  TIP3      H2            -17.0980220898      -12.5161677809       60.7631848041  TIP3      7171            0.0000000000
     43766      7364  TIP3      OH2            -6.2582439021       -9.5067240595       70.4602124494  TIP3      7172            0.0000000000
     43767      7364  TIP3      H1             -5.8752040121      -10.1922134792       69.8754589246  TIP3      7172            0.0000000000
     43768      7364  TIP3      H2             -6.7229331000      -10.0344808222       71.1329203617  TIP3      7172            0.0000000000
     43769      7365  TIP3      OH2            -9.4547890033      -13.5236980633       65.2981124435  TIP3      7173            0.0000000000
     43770      7365  TIP3      H1            -10.3900739991      -13.5224077218       65.5953451250  TIP3      7173            0.0000000000
     43771      7365  TIP3      H2             -8.9703062308      -13.6988186236       66.1195759516  TIP3      7173            0.0000000000
     43772      7366  TIP3      OH2           -14.6089084044      -11.9970295211       64.1954219884  TIP3      7174            0.0000000000
     43773      7366  TIP3      H1            -15.4747433059      -11.7924889188       63.7763813671  TIP3      7174            0.0000000000
     43774      7366  TIP3      H2            -14.3670581202      -12.8225920218       63.7469667924  TIP3      7174            0.0000000000
     43775      7367  TIP3      OH2           -10.9953868072      -11.9350395764       61.7895018029  TIP3      7175            0.0000000000
     43776      7367  TIP3      H1            -10.0429391553      -11.8160355014       61.9501133524  TIP3      7175            0.0000000000
     43777      7367  TIP3      H2            -11.2503667234      -11.2449629115       61.1462418526  TIP3      7175            0.0000000000
     43778      7368  TIP3      OH2            -5.0461654463      -14.2929247118       68.5347184847  TIP3      7176            0.0000000000
     43779      7368  TIP3      H1             -5.7291622592      -14.2442112636       69.2415210848  TIP3      7176            0.0000000000
     43780      7368  TIP3      H2             -5.5563710262      -14.5492547388       67.7531745773  TIP3      7176            0.0000000000
     43781      7369  TIP3      OH2           -12.2756806002      -10.7588588984       59.3718378107  TIP3      7177            0.0000000000
     43782      7369  TIP3      H1            -12.8307542724      -11.1301106489       58.6650368237  TIP3      7177            0.0000000000
     43783      7369  TIP3      H2            -11.4624732925      -10.5459431076       58.8917602991  TIP3      7177            0.0000000000
     43784      7370  TIP3      OH2            -1.8228187128        1.3324218945       74.8892907843  TIP3      7178            0.0000000000
     43785      7370  TIP3      H1             -1.5854464222        1.7300510523       74.0359151655  TIP3      7178            0.0000000000
     43786      7370  TIP3      H2             -1.1198270192        1.6737488227       75.4609536520  TIP3      7178            0.0000000000
     43787      7371  TIP3      OH2           -14.1569044344       -6.1895696299       74.4475000299  TIP3      7179            0.0000000000
     43788      7371  TIP3      H1            -13.4534614615       -5.9383076148       75.0671746252  TIP3      7179            0.0000000000
     43789      7371  TIP3      H2            -14.9409459269       -6.1063636633       75.0326563197  TIP3      7179            0.0000000000
     43790      7372  TIP3      OH2            -8.1709780464      -10.7715736852       67.1902216134  TIP3      7180            0.0000000000
     43791      7372  TIP3      H1             -7.5697730890      -11.3042362966       66.6559568528  TIP3      7180            0.0000000000
     43792      7372  TIP3      H2             -8.3153660754      -11.3221219370       67.9725876659  TIP3      7180            0.0000000000
     43793      7373  TIP3      OH2           -13.1592679433      -14.6281121968       63.6255032133  TIP3      7181            0.0000000000
     43794      7373  TIP3      H1            -13.4670672878      -15.5527458951       63.6225208364  TIP3      7181            0.0000000000
     43795      7373  TIP3      H2            -12.3652538911      -14.6947568333       63.0806464010  TIP3      7181            0.0000000000
     43796      7374  TIP3      OH2            -9.5314204921      -12.4451829586       69.6043878118  TIP3      7182            0.0000000000
     43797      7374  TIP3      H1            -10.3562225848      -11.9250666812       69.6923845316  TIP3      7182            0.0000000000
     43798      7374  TIP3      H2             -8.9760290550      -12.0920602132       70.3260855015  TIP3      7182            0.0000000000
     43799      7375  TIP3      OH2            -8.9413077350       -6.2212452950       61.3009303901  TIP3      7183            0.0000000000
     43800      7375  TIP3      H1             -9.7413663867       -6.6865059251       60.9656917962  TIP3      7183            0.0000000000
     43801      7375  TIP3      H2             -9.1685817102       -6.0967991876       62.2450027367  TIP3      7183            0.0000000000
     43802      7376  TIP3      OH2            -1.7508595570       -7.0158835922       70.1025448373  TIP3      7184            0.0000000000
     43803      7376  TIP3      H1             -1.1903103232       -6.5276305403       69.4735885186  TIP3      7184            0.0000000000
     43804      7376  TIP3      H2             -2.6134848025       -6.9735002990       69.6408412210  TIP3      7184            0.0000000000
     43805      7377  TIP3      OH2            -5.1143062763      -13.4332657443       59.4616293384  TIP3      7185            0.0000000000
     43806      7377  TIP3      H1             -6.0658513550      -13.2459583409       59.3497118660  TIP3      7185            0.0000000000
     43807      7377  TIP3      H2             -4.7685964153      -12.5776722841       59.8184561506  TIP3      7185            0.0000000000
     43808      7378  TIP3      OH2            -7.4534636660       -5.9570065589       72.5369783643  TIP3      7186            0.0000000000
     43809      7378  TIP3      H1             -7.8036556395       -6.3816812702       73.3281033887  TIP3      7186            0.0000000000
     43810      7378  TIP3      H2             -7.7041013009       -5.0341947597       72.6491083230  TIP3      7186            0.0000000000
     43811      7379  TIP3      OH2            -4.3657154743      -11.5213777120       61.0671565782  TIP3      7187            0.0000000000
     43812      7379  TIP3      H1             -3.4987296274      -11.6078807833       61.5159918418  TIP3      7187            0.0000000000
     43813      7379  TIP3      H2             -4.2775841826      -10.6772914981       60.5906516395  TIP3      7187            0.0000000000
     43814      7380  TIP3      OH2           -13.8066777643       -6.8128077348       67.1204797044  TIP3      7188            0.0000000000
     43815      7380  TIP3      H1            -13.1658435495       -6.9176862400       66.3915053448  TIP3      7188            0.0000000000
     43816      7380  TIP3      H2            -13.7742582276       -7.6809381440       67.5578892187  TIP3      7188            0.0000000000
     43817      7381  TIP3      OH2            -6.8479931301       -4.7535418951       60.3329190919  TIP3      7189            0.0000000000
     43818      7381  TIP3      H1             -7.1918551163       -3.9083366930       60.6896663350  TIP3      7189            0.0000000000
     43819      7381  TIP3      H2             -7.5798634506       -5.3703634012       60.5515673443  TIP3      7189            0.0000000000
     43820      7382  TIP3      OH2           -16.8454713989       -8.4225095885       72.3669481930  TIP3      7190            0.0000000000
     43821      7382  TIP3      H1            -16.6726542888       -8.8682494809       73.2178501566  TIP3      7190            0.0000000000
     43822      7382  TIP3      H2            -17.4622619255       -9.0341102851       71.9235952520  TIP3      7190            0.0000000000
     43823      7383  TIP3      OH2            -9.8373812208       -8.8638448031       74.5471691688  TIP3      7191            0.0000000000
     43824      7383  TIP3      H1            -10.1533673910       -9.1744898496       73.6862897475  TIP3      7191            0.0000000000
     43825      7383  TIP3      H2             -8.9108201818       -9.1821419182       74.5392463390  TIP3      7191            0.0000000000
     43826      7384  TIP3      OH2            -5.1461617859       -3.5307136268       72.4922942913  TIP3      7192            0.0000000000
     43827      7384  TIP3      H1             -6.0688549126       -3.3329702524       72.2667894324  TIP3      7192            0.0000000000
     43828      7384  TIP3      H2             -5.1728483372       -3.2380726746       73.4243800812  TIP3      7192            0.0000000000
     43829      7385  TIP3      OH2             0.5173013578      -11.3523574598       60.8800498841  TIP3      7193            0.0000000000
     43830      7385  TIP3      H1             -0.0365853286      -11.6495379207       60.1328714367  TIP3      7193            0.0000000000
     43831      7385  TIP3      H2              0.5974289951      -10.4041872187       60.6251477362  TIP3      7193            0.0000000000
     43832      7386  TIP3      OH2             0.4987173669       -5.5186694972       73.6904801515  TIP3      7194            0.0000000000
     43833      7386  TIP3      H1             -0.3909638109       -5.2744586618       73.3354084473  TIP3      7194            0.0000000000
     43834      7386  TIP3      H2              1.0572667616       -5.5198391465       72.8802300406  TIP3      7194            0.0000000000
     43835      7387  TIP3      OH2            -1.2226115039       -2.5207218483       61.2738568000  TIP3      7195            0.0000000000
     43836      7387  TIP3      H1             -1.5556248234       -3.3587560549       61.6193542242  TIP3      7195            0.0000000000
     43837      7387  TIP3      H2             -0.8668366459       -2.7389875906       60.3967960398  TIP3      7195            0.0000000000
     43838      7388  TIP3      OH2            -3.9791933250       -7.7049132820       68.3873474176  TIP3      7196            0.0000000000
     43839      7388  TIP3      H1             -4.9202966597       -7.9143146378       68.2773488679  TIP3      7196            0.0000000000
     43840      7388  TIP3      H2             -3.5468668265       -8.4624184686       67.9497885681  TIP3      7196            0.0000000000
     43841      7389  TIP3      OH2           -11.4578329339       -3.3700507111       64.4877654557  TIP3      7197            0.0000000000
     43842      7389  TIP3      H1            -10.9591870391       -2.5627472156       64.2793866593  TIP3      7197            0.0000000000
     43843      7389  TIP3      H2            -12.3363486239       -3.1407045370       64.1559750805  TIP3      7197            0.0000000000
     43844      7390  TIP3      OH2           -15.6921349176       -8.5315771044       59.0509533890  TIP3      7198            0.0000000000
     43845      7390  TIP3      H1            -15.1157944598       -7.8697330564       59.4699979832  TIP3      7198            0.0000000000
     43846      7390  TIP3      H2            -16.5862918231       -8.2367584667       59.3194731213  TIP3      7198            0.0000000000
     43847      7391  TIP3      OH2           -10.0492556337       -5.7005647165       63.9979329771  TIP3      7199            0.0000000000
     43848      7391  TIP3      H1            -10.3628121382       -4.7829802736       64.0983184526  TIP3      7199            0.0000000000
     43849      7391  TIP3      H2            -10.7601912852       -6.1995197010       64.4475966730  TIP3      7199            0.0000000000
     43850      7392  TIP3      OH2            -9.6172083228       -1.4769287385       70.4624244544  TIP3      7200            0.0000000000
     43851      7392  TIP3      H1             -9.0990674295       -0.7403336073       70.1023832136  TIP3      7200            0.0000000000
     43852      7392  TIP3      H2             -8.9586530733       -1.8880471344       71.0590131631  TIP3      7200            0.0000000000
     43853      7393  TIP3      OH2           -11.3678811178       -0.7181069013       63.5273929385  TIP3      7201            0.0000000000
     43854      7393  TIP3      H1            -12.3316637328       -0.5758027548       63.6593905416  TIP3      7201            0.0000000000
     43855      7393  TIP3      H2            -11.0025553130        0.1181704866       63.8727988305  TIP3      7201            0.0000000000
     43856      7394  TIP3      OH2            -6.0773595410       -5.5303898946       70.0313548401  TIP3      7202            0.0000000000
     43857      7394  TIP3      H1             -6.3956221932       -5.7216171671       70.9387525859  TIP3      7202            0.0000000000
     43858      7394  TIP3      H2             -5.4313023965       -6.2355408025       69.8650708043  TIP3      7202            0.0000000000
     43859      7395  TIP3      OH2            -3.7297623941       -4.4467910948       59.1218835774  TIP3      7203            0.0000000000
     43860      7395  TIP3      H1             -3.4359705562       -4.9221582876       59.9253243987  TIP3      7203            0.0000000000
     43861      7395  TIP3      H2             -4.6834398299       -4.6324023999       59.2021790452  TIP3      7203            0.0000000000
     43862      7396  TIP3      OH2            -3.2465827166       -0.9452178441       72.5249273925  TIP3      7204            0.0000000000
     43863      7396  TIP3      H1             -3.9434874968       -1.4340930509       72.0460456306  TIP3      7204            0.0000000000
     43864      7396  TIP3      H2             -3.0568245821       -0.2495312807       71.8585423278  TIP3      7204            0.0000000000
     43865      7397  TIP3      OH2             0.7311006177       -0.0972313912       59.3771482216  TIP3      7205            0.0000000000
     43866      7397  TIP3      H1              1.4189201783        0.5676511303       59.1714749460  TIP3      7205            0.0000000000
     43867      7397  TIP3      H2              0.0162096470        0.5141310340       59.6626323325  TIP3      7205            0.0000000000
     43868      7398  TIP3      OH2           -15.1923221095      -13.6844360927       71.9121395988  TIP3      7206            0.0000000000
     43869      7398  TIP3      H1            -16.1004013370      -13.3358865044       71.8902369523  TIP3      7206            0.0000000000
     43870      7398  TIP3      H2            -15.3044405790      -14.5257658611       72.3800544650  TIP3      7206            0.0000000000
     43871      7399  TIP3      OH2            -2.9568721812       -5.8150085869       61.3640527724  TIP3      7207            0.0000000000
     43872      7399  TIP3      H1             -3.1943719225       -6.6020505779       61.9015033309  TIP3      7207            0.0000000000
     43873      7399  TIP3      H2             -2.0041326857       -5.7719913625       61.5418909596  TIP3      7207            0.0000000000
     43874      7400  TIP3      OH2           -15.5515045440       -1.8923037440       70.3371575617  TIP3      7208            0.0000000000
     43875      7400  TIP3      H1            -15.3007734625       -2.8325471950       70.3370682697  TIP3      7208            0.0000000000
     43876      7400  TIP3      H2            -15.3462367461       -1.6399163098       71.2423658300  TIP3      7208            0.0000000000
     43877      7401  TIP3      OH2            -9.6037536751       -3.3771071854       57.6184623590  TIP3      7209            0.0000000000
     43878      7401  TIP3      H1             -9.5032019926       -4.1384738721       57.0235840293  TIP3      7209            0.0000000000
     43879      7401  TIP3      H2            -10.0458693003       -3.8091748318       58.3818464775  TIP3      7209            0.0000000000
     43880      7402  TIP3      OH2           -10.8329965571       -3.8506667525       60.0706516280  TIP3      7210            0.0000000000
     43881      7402  TIP3      H1            -10.5615525754       -4.3655389935       60.8401068616  TIP3      7210            0.0000000000
     43882      7402  TIP3      H2            -10.7401378085       -2.9246910900       60.3933079205  TIP3      7210            0.0000000000
     43883      7403  TIP3      OH2           -14.2911492580       -6.6111703102       60.5613611162  TIP3      7211            0.0000000000
     43884      7403  TIP3      H1            -15.0063508363       -6.2119967030       61.0956967915  TIP3      7211            0.0000000000
     43885      7403  TIP3      H2            -13.7868851364       -5.8310723070       60.2629407176  TIP3      7211            0.0000000000
     43886      7404  TIP3      OH2            -6.4605281203      -13.9167555811       70.8755150809  TIP3      7212            0.0000000000
     43887      7404  TIP3      H1             -5.7456146174      -13.8559227958       71.5182268778  TIP3      7212            0.0000000000
     43888      7404  TIP3      H2             -6.8437486530      -14.7929272374       71.0797695203  TIP3      7212            0.0000000000
     43889      7405  TIP3      OH2            -5.6506043298      -14.4042292610       61.9227802356  TIP3      7213            0.0000000000
     43890      7405  TIP3      H1             -5.4982793429      -13.8468447226       61.1385572463  TIP3      7213            0.0000000000
     43891      7405  TIP3      H2             -5.1734619181      -13.9008023044       62.6048236623  TIP3      7213            0.0000000000
     43892      7406  TIP3      OH2            -8.0266671327       -2.1883657485       60.7650884637  TIP3      7214            0.0000000000
     43893      7406  TIP3      H1             -8.8442654268       -1.6557867731       60.8372187339  TIP3      7214            0.0000000000
     43894      7406  TIP3      H2             -7.4878281877       -1.6376631930       60.1787526769  TIP3      7214            0.0000000000
     43895      7407  TIP3      OH2            -8.4819693279      -12.5988149753       62.7810076402  TIP3      7215            0.0000000000
     43896      7407  TIP3      H1             -7.7064043947      -12.0075967810       62.8317324928  TIP3      7215            0.0000000000
     43897      7407  TIP3      H2             -8.7558493014      -12.7235791549       63.7099712571  TIP3      7215            0.0000000000
     43898      7408  TIP3      OH2            -7.9240550652      -11.5617188274       71.9738267159  TIP3      7216            0.0000000000
     43899      7408  TIP3      H1             -7.8543657597      -11.0168868412       72.7791555943  TIP3      7216            0.0000000000
     43900      7408  TIP3      H2             -7.2697471791      -12.2652660681       72.0679089366  TIP3      7216            0.0000000000
     43901      7409  TIP3      OH2            -7.6449059708      -15.5371342001       63.6640859235  TIP3      7217            0.0000000000
     43902      7409  TIP3      H1             -7.9662702452      -14.8928856296       64.3174204144  TIP3      7217            0.0000000000
     43903      7409  TIP3      H2             -6.9526979936      -14.9860843357       63.2320125337  TIP3      7217            0.0000000000
     43904      7410  TIP3      OH2           -10.6243438040       -1.1536789438       60.7960508234  TIP3      7218            0.0000000000
     43905      7410  TIP3      H1            -10.5331494293       -0.3390497024       60.2447463436  TIP3      7218            0.0000000000
     43906      7410  TIP3      H2            -10.8992199939       -0.7892360211       61.6657510903  TIP3      7218            0.0000000000
     43907      7411  TIP3      OH2           -11.9778555587      -14.4284720760       60.3688671957  TIP3      7219            0.0000000000
     43908      7411  TIP3      H1            -12.0293422974      -13.5332533151       60.7583394846  TIP3      7219            0.0000000000
     43909      7411  TIP3      H2            -11.0699970989      -14.6774936339       60.6359866969  TIP3      7219            0.0000000000
     43910      7412  TIP3      OH2            -1.7536469142      -13.6968572703       72.8171734749  TIP3      7220            0.0000000000
     43911      7412  TIP3      H1             -2.6827307428      -13.3847540755       72.6878389763  TIP3      7220            0.0000000000
     43912      7412  TIP3      H2             -1.4544395358      -13.7147123108       71.8929696265  TIP3      7220            0.0000000000
     43913      7413  TIP3      OH2            -3.1366237894       -9.9138573466       66.8202794345  TIP3      7221            0.0000000000
     43914      7413  TIP3      H1             -3.9631973909      -10.3582804368       66.5492327054  TIP3      7221            0.0000000000
     43915      7413  TIP3      H2             -2.6596469271      -10.5999318850       67.3404012092  TIP3      7221            0.0000000000
     43916      7414  TIP3      OH2           -13.7472295142       -3.9916889210       59.4153582684  TIP3      7222            0.0000000000
     43917      7414  TIP3      H1            -13.0800117819       -3.3640235774       59.7314853496  TIP3      7222            0.0000000000
     43918      7414  TIP3      H2            -13.2234850974       -4.4557122588       58.7311225715  TIP3      7222            0.0000000000
     43919      7415  TIP3      OH2           -15.3992821533      -11.3175183923       58.5572058049  TIP3      7223            0.0000000000
     43920      7415  TIP3      H1            -15.3856253068      -10.3601068198       58.7694168372  TIP3      7223            0.0000000000
     43921      7415  TIP3      H2            -16.2938587545      -11.4924086364       58.2569813502  TIP3      7223            0.0000000000
     43922      7416  TIP3      OH2            -2.0671032471       -0.6491329578       68.5105839477  TIP3      7224            0.0000000000
     43923      7416  TIP3      H1             -2.1465875966        0.0239513104       67.8071837336  TIP3      7224            0.0000000000
     43924      7416  TIP3      H2             -1.1030737773       -0.5976306161       68.6810244284  TIP3      7224            0.0000000000
     43925      7417  TIP3      OH2           -14.5823372578      -16.5395916705       67.3088515380  TIP3      7225            0.0000000000
     43926      7417  TIP3      H1            -14.7781192613      -16.5200353735       66.3451445488  TIP3      7225            0.0000000000
     43927      7417  TIP3      H2            -15.0056538710      -17.3865885328       67.5528983575  TIP3      7225            0.0000000000
     43928      7418  TIP3      OH2           -15.6278740954       -2.6110137528       63.4505989010  TIP3      7226            0.0000000000
     43929      7418  TIP3      H1            -16.4813090250       -2.1654870384       63.4009560854  TIP3      7226            0.0000000000
     43930      7418  TIP3      H2            -15.1540234059       -2.1479599075       62.7467436023  TIP3      7226            0.0000000000
     43931      7419  TIP3      OH2           -16.4005515203        0.0684542570       74.7218364364  TIP3      7227            0.0000000000
     43932      7419  TIP3      H1            -15.8419603630       -0.1577400632       75.4925358528  TIP3      7227            0.0000000000
     43933      7419  TIP3      H2            -16.8472990809       -0.7870683110       74.5678400909  TIP3      7227            0.0000000000
     43934      7420  TIP3      OH2           -11.7650355225       -1.0875191816       76.3626835690  TIP3      7228            0.0000000000
     43935      7420  TIP3      H1            -10.9839994884       -1.5493859250       76.6895083376  TIP3      7228            0.0000000000
     43936      7420  TIP3      H2            -11.7768685637       -1.3535847958       75.4269205425  TIP3      7228            0.0000000000
     43937      7421  TIP3      OH2            -7.6091808601       -1.5253187291       57.7445082603  TIP3      7229            0.0000000000
     43938      7421  TIP3      H1             -8.3023692525       -2.1858685998       57.9684889692  TIP3      7229            0.0000000000
     43939      7421  TIP3      H2             -6.8922640777       -2.1253933971       57.4926610510  TIP3      7229            0.0000000000
     43940      7422  TIP3      OH2            -5.2565862301       -2.6744341366       75.0632345001  TIP3      7230            0.0000000000
     43941      7422  TIP3      H1             -5.5678160856       -3.5476388813       75.3655624295  TIP3      7230            0.0000000000
     43942      7422  TIP3      H2             -4.4717408457       -2.5324361322       75.6301919901  TIP3      7230            0.0000000000
     43943      7423  TIP3      OH2            -3.0514433247       -1.7829694836       57.9281871510  TIP3      7231            0.0000000000
     43944      7423  TIP3      H1             -2.7557131698       -2.5593695374       58.4309866499  TIP3      7231            0.0000000000
     43945      7423  TIP3      H2             -2.2891289289       -1.5582104642       57.3755426630  TIP3      7231            0.0000000000
     43946      7424  TIP3      OH2           -16.5234756120       -6.2102423044       75.7121976228  TIP3      7232            0.0000000000
     43947      7424  TIP3      H1            -16.3414357495       -7.1128682755       75.3920105731  TIP3      7232            0.0000000000
     43948      7424  TIP3      H2            -17.2506760676       -5.9360797417       75.1280922314  TIP3      7232            0.0000000000
     43949      7425  TIP3      OH2           -12.1635239480       -5.8425782383       57.7469221652  TIP3      7233            0.0000000000
     43950      7425  TIP3      H1            -12.0238969053       -6.6038219801       58.3305333875  TIP3      7233            0.0000000000
     43951      7425  TIP3      H2            -11.4161211594       -5.9609565495       57.1278769355  TIP3      7233            0.0000000000
     43952      7426  TIP3      OH2            -9.8039802168       -6.2136514845       75.1119450597  TIP3      7234            0.0000000000
     43953      7426  TIP3      H1            -10.1302541649       -5.8929993771       74.2519210782  TIP3      7234            0.0000000000
     43954      7426  TIP3      H2             -9.7296398399       -7.1903605951       74.9952748975  TIP3      7234            0.0000000000
     43955      7427  TIP3      OH2            -6.7330883794       -4.7335658281       57.5248888923  TIP3      7235            0.0000000000
     43956      7427  TIP3      H1             -7.0046743657       -4.6524155748       58.4524264915  TIP3      7235            0.0000000000
     43957      7427  TIP3      H2             -6.9235056235       -5.6906404929       57.3786604621  TIP3      7235            0.0000000000
     43958      7428  TIP3      OH2            -4.1038867047       -6.3408214428       72.5049847729  TIP3      7236            0.0000000000
     43959      7428  TIP3      H1             -3.3140596400       -5.7595749744       72.4430741012  TIP3      7236            0.0000000000
     43960      7428  TIP3      H2             -4.7999701394       -5.6684657234       72.5438958748  TIP3      7236            0.0000000000
     43961      7429  TIP3      OH2           -15.6139756682       -8.9545671043       75.1045692946  TIP3      7237            0.0000000000
     43962      7429  TIP3      H1            -15.1822008846       -9.8108725291       75.0102239568  TIP3      7237            0.0000000000
     43963      7429  TIP3      H2            -15.8183918392       -8.9443308651       76.0584467589  TIP3      7237            0.0000000000
     43964      7430  TIP3      OH2           -10.9607675439       -7.8250545007       60.1768677826  TIP3      7238            0.0000000000
     43965      7430  TIP3      H1            -11.4670092680       -8.3641867250       60.8033131804  TIP3      7238            0.0000000000
     43966      7430  TIP3      H2            -10.6633532169       -8.4974558044       59.5212782633  TIP3      7238            0.0000000000
     43967      7431  TIP3      OH2           -11.6971247991      -10.0171772825       72.4610523055  TIP3      7239            0.0000000000
     43968      7431  TIP3      H1            -12.2924150290       -9.2952249666       72.7178116333  TIP3      7239            0.0000000000
     43969      7431  TIP3      H2            -11.2979587892       -9.6496250609       71.6538823830  TIP3      7239            0.0000000000
     43970      7432  TIP3      OH2            -9.8847834764       -9.6014035683       58.3731793788  TIP3      7240            0.0000000000
     43971      7432  TIP3      H1            -10.0371934796       -9.6915262126       57.4101692887  TIP3      7240            0.0000000000
     43972      7432  TIP3      H2             -8.9087617244       -9.5493410573       58.4392564208  TIP3      7240            0.0000000000
     43973      7433  TIP3      OH2            -6.6294512707       -7.4350278219       75.8589314267  TIP3      7241            0.0000000000
     43974      7433  TIP3      H1             -5.6806541513       -7.4735631386       75.6609017567  TIP3      7241            0.0000000000
     43975      7433  TIP3      H2             -6.7916272782       -8.2233557487       76.3948208902  TIP3      7241            0.0000000000
     43976      7434  TIP3      OH2            -0.5561938820       -7.2820836282       57.7845515565  TIP3      7242            0.0000000000
     43977      7434  TIP3      H1             -0.7500383005       -7.6585441146       56.9135302242  TIP3      7242            0.0000000000
     43978      7434  TIP3      H2             -0.4677181168       -6.3193470381       57.5989579921  TIP3      7242            0.0000000000
     43979      7435  TIP3      OH2           -11.2779333372      -12.6271895656       73.5007141912  TIP3      7243            0.0000000000
     43980      7435  TIP3      H1            -11.1712761953      -13.3458165877       72.8520374766  TIP3      7243            0.0000000000
     43981      7435  TIP3      H2            -11.3323934365      -11.8194618956       72.9536778005  TIP3      7243            0.0000000000
     43982      7436  TIP3      OH2           -10.8830732330      -14.2669777311       71.0688274012  TIP3      7244            0.0000000000
     43983      7436  TIP3      H1            -10.3728046685      -13.7891155458       70.3683484687  TIP3      7244            0.0000000000
     43984      7436  TIP3      H2            -11.7789675008      -14.3340323211       70.6665348062  TIP3      7244            0.0000000000
     43985      7437  TIP3      OH2            -9.3497711982       -8.7670048987       71.3211395951  TIP3      7245            0.0000000000
     43986      7437  TIP3      H1             -8.5955569074       -8.9349807322       70.7459743182  TIP3      7245            0.0000000000
     43987      7437  TIP3      H2             -9.7115392222       -7.9330907601       70.9797596377  TIP3      7245            0.0000000000
     43988      7438  TIP3      OH2            -4.9704426931      -11.0326032205       76.2635022227  TIP3      7246            0.0000000000
     43989      7438  TIP3      H1             -4.7238519803      -11.9647452874       76.1890675032  TIP3      7246            0.0000000000
     43990      7438  TIP3      H2             -4.1059522466      -10.5883218794       76.3050404905  TIP3      7246            0.0000000000
     43991      7439  TIP3      OH2            -3.6013013268       -8.2123812709       74.4535733374  TIP3      7247            0.0000000000
     43992      7439  TIP3      H1             -3.8568292716       -7.5034089488       73.8221459760  TIP3      7247            0.0000000000
     43993      7439  TIP3      H2             -2.6426160518       -8.2598890464       74.2476154466  TIP3      7247            0.0000000000
     43994      7440  TIP3      OH2           -12.8060223525      -11.4001280796       75.4602400176  TIP3      7248            0.0000000000
     43995      7440  TIP3      H1            -13.5943890362      -11.9486015323       75.2648277901  TIP3      7248            0.0000000000
     43996      7440  TIP3      H2            -12.1821813569      -11.7494058466       74.7942006868  TIP3      7248            0.0000000000
     43997      7441  TIP3      OH2           -10.1111926989      -16.8338375728       71.4849843622  TIP3      7249            0.0000000000
     43998      7441  TIP3      H1            -10.2745154528      -15.8663929252       71.3681423487  TIP3      7249            0.0000000000
     43999      7441  TIP3      H2            -10.8464267985      -17.1923202029       70.9603438453  TIP3      7249            0.0000000000
     44000      7442  TIP3      OH2            -8.8150866682      -12.4952384923       75.0847439954  TIP3      7250            0.0000000000
     44001      7442  TIP3      H1             -9.1421653593      -12.7073766919       75.9826442207  TIP3      7250            0.0000000000
     44002      7442  TIP3      H2             -9.5965695435      -12.6868031351       74.5293879677  TIP3      7250            0.0000000000
     44003      7443  TIP3      OH2            -6.1103061248      -13.3576226623       74.1630977418  TIP3      7251            0.0000000000
     44004      7443  TIP3      H1             -7.0708746649      -13.2929719399       74.2958887241  TIP3      7251            0.0000000000
     44005      7443  TIP3      H2             -5.8445835461      -13.9954480485       74.8549114162  TIP3      7251            0.0000000000
     44006      7444  TIP3      OH2            -4.5683425392      -14.7182017874       76.0772888194  TIP3      7252            0.0000000000
     44007      7444  TIP3      H1             -4.5711233317      -15.6989353294       76.0982936745  TIP3      7252            0.0000000000
     44008      7444  TIP3      H2             -4.7911856331      -14.4411568671       76.9889822302  TIP3      7252            0.0000000000
     44009      7445  TIP3      OH2           -14.7325983300      -13.4519773784       75.1964218335  TIP3      7253            0.0000000000
     44010      7445  TIP3      H1            -14.4909234854      -14.1925501702       74.6126022273  TIP3      7253            0.0000000000
     44011      7445  TIP3      H2            -14.8342600457      -13.8980429752       76.0616452785  TIP3      7253            0.0000000000
     44012      7446  TIP3      OH2            -9.8807789309      -17.4359568917       74.1718886352  TIP3      7254            0.0000000000
     44013      7446  TIP3      H1             -9.1939560132      -18.1314889142       74.1394253224  TIP3      7254            0.0000000000
     44014      7446  TIP3      H2             -9.9869709274      -17.2776496400       73.2155615394  TIP3      7254            0.0000000000
     44015      7447  TIP3      OH2            -9.5432252448      -15.8345902826       76.2694621482  TIP3      7255            0.0000000000
     44016      7447  TIP3      H1             -9.6946826000      -16.3308946262       75.4245521134  TIP3      7255            0.0000000000
     44017      7447  TIP3      H2            -10.1048042792      -15.0450523261       76.1552270571  TIP3      7255            0.0000000000
     44018      7448  TIP3      OH2           -10.0541919433        1.1005849771       59.4526689092  TIP3      7256            0.0000000000
     44019      7448  TIP3      H1             -9.0873548880        1.1846514949       59.5198784421  TIP3      7256            0.0000000000
     44020      7448  TIP3      H2            -10.2015853330        1.7014836848       58.7127053155  TIP3      7256            0.0000000000
     44021      7449  TIP3      OH2           -16.5021066357       -4.3276803405       58.9205329314  TIP3      7257            0.0000000000
     44022      7449  TIP3      H1            -15.5351529325       -4.2337209212       59.1011348273  TIP3      7257            0.0000000000
     44023      7449  TIP3      H2            -16.4517607719       -4.9717904153       58.1745546208  TIP3      7257            0.0000000000
     44024      7450  TIP3      OH2           -17.7246783106        1.0585862196       63.8904383301  TIP3      7258            0.0000000000
     44025      7450  TIP3      H1            -18.4320111635        0.5657905491       63.4196491214  TIP3      7258            0.0000000000
     44026      7450  TIP3      H2            -17.4386954904        0.4041088674       64.5529488907  TIP3      7258            0.0000000000
     44027      7451  TIP3      OH2           -16.8946028380       -0.8055898531       65.7633638974  TIP3      7259            0.0000000000
     44028      7451  TIP3      H1            -17.2474292791       -1.6852959245       65.9578560440  TIP3      7259            0.0000000000
     44029      7451  TIP3      H2            -16.6713964125       -0.4753665525       66.6485047650  TIP3      7259            0.0000000000
     44030      7452  TIP3      OH2             0.5884339323        0.0764561846       68.6744178448  TIP3      7260            0.0000000000
     44031      7452  TIP3      H1              0.7010914781        0.1070241661       69.6422941232  TIP3      7260            0.0000000000
     44032      7452  TIP3      H2              1.3767228871        0.5502283162       68.3988985060  TIP3      7260            0.0000000000
     44033      7453  TIP3      OH2             0.1708689922       -0.4100905107       71.6792070530  TIP3      7261            0.0000000000
     44034      7453  TIP3      H1             -0.2258716439       -1.1947439573       71.2429766994  TIP3      7261            0.0000000000
     44035      7453  TIP3      H2              0.7328583547       -0.8740379222       72.3291327312  TIP3      7261            0.0000000000
     44036      7454  TIP3      OH2            -1.3306898646       -4.7059802613       76.3193149187  TIP3      7262            0.0000000000
     44037      7454  TIP3      H1             -2.2391754715       -4.7211045873       76.6822418195  TIP3      7262            0.0000000000
     44038      7454  TIP3      H2             -0.9736527657       -3.9007565173       76.7476669550  TIP3      7262            0.0000000000
     44039      7455  TIP3      OH2            -0.0247876153       -6.3626071509       61.7382687584  TIP3      7263            0.0000000000
     44040      7455  TIP3      H1              0.8424747123       -5.9729617791       61.9249887706  TIP3      7263            0.0000000000
     44041      7455  TIP3      H2             -0.0406983285       -7.0816454327       62.4075604631  TIP3      7263            0.0000000000
     44042      7456  TIP3      OH2             0.3362358298       -8.2851690476       63.6304717709  TIP3      7264            0.0000000000
     44043      7456  TIP3      H1             -0.4150347986       -8.7861447969       64.0207218677  TIP3      7264            0.0000000000
     44044      7456  TIP3      H2              0.9345030757       -8.1563152893       64.3931780392  TIP3      7264            0.0000000000
     44045      7457  TIP3      OH2             0.1013867070       -5.5779991008       68.6253702621  TIP3      7265            0.0000000000
     44046      7457  TIP3      H1              0.9008802230       -5.9760299593       68.2335457438  TIP3      7265            0.0000000000
     44047      7457  TIP3      H2              0.2576805992       -4.6248583000       68.4514967590  TIP3      7265            0.0000000000
     44048      7458  TIP3      OH2            -1.3489839228       -2.6951337665       70.8823802008  TIP3      7266            0.0000000000
     44049      7458  TIP3      H1             -2.0365952523       -2.3385673625       71.4718545950  TIP3      7266            0.0000000000
     44050      7458  TIP3      H2             -1.8979326980       -3.0910656261       70.1744645247  TIP3      7266            0.0000000000
     44051      7459  TIP3      OH2             0.6366281209       -8.4637014089       60.0187557447  TIP3      7267            0.0000000000
     44052      7459  TIP3      H1              0.0695093088       -8.1228520499       59.2950854258  TIP3      7267            0.0000000000
     44053      7459  TIP3      H2              0.5365561525       -7.7509345266       60.6771349622  TIP3      7267            0.0000000000
     44054      7460  TIP3      OH2            -0.9896974274      -11.2237392910       58.5269500940  TIP3      7268            0.0000000000
     44055      7460  TIP3      H1             -0.9104839970      -10.5628989056       57.8333695535  TIP3      7268            0.0000000000
     44056      7460  TIP3      H2             -1.1599758295      -12.0447264123       58.0284042077  TIP3      7268            0.0000000000
     44057      7461  TIP3      OH2            -1.8434467760       -9.8148515166       64.1979789060  TIP3      7269            0.0000000000
     44058      7461  TIP3      H1             -1.9889426121      -10.7695290210       64.1567721950  TIP3      7269            0.0000000000
     44059      7461  TIP3      H2             -2.1727943805       -9.6014713663       65.0911929627  TIP3      7269            0.0000000000
     44060      7462  TIP3      OH2           -16.8408046053       -7.7316897807       68.2504496158  TIP3      7270            0.0000000000
     44061      7462  TIP3      H1            -16.6630768739       -7.8182196946       67.2865863640  TIP3      7270            0.0000000000
     44062      7462  TIP3      H2            -15.9456149919       -7.9034690883       68.6078222007  TIP3      7270            0.0000000000
     44063      7463  TIP3      OH2            -0.9830474646       -7.8472832099       73.9078620349  TIP3      7271            0.0000000000
     44064      7463  TIP3      H1             -0.3692923798       -8.6056093578       74.0125338175  TIP3      7271            0.0000000000
     44065      7463  TIP3      H2             -0.3766127409       -7.0757319302       73.8806903933  TIP3      7271            0.0000000000
     44066      7464  TIP3      OH2             0.5052907779       -9.9632122958       74.5531994521  TIP3      7272            0.0000000000
     44067      7464  TIP3      H1             -0.3669417347      -10.3692285010       74.3625339059  TIP3      7272            0.0000000000
     44068      7464  TIP3      H2              1.0865420224      -10.7375975317       74.4663175586  TIP3      7272            0.0000000000
     44069      7465  TIP3      OH2            -1.7329571044      -13.7794486609       57.6566152286  TIP3      7273            0.0000000000
     44070      7465  TIP3      H1             -1.1234844100      -14.2008209917       58.2975387005  TIP3      7273            0.0000000000
     44071      7465  TIP3      H2             -2.6102166150      -14.1446220099       57.8278777691  TIP3      7273            0.0000000000
     44072      7466  TIP3      OH2            -2.1951713986      -12.2303452227       62.6227328187  TIP3      7274            0.0000000000
     44073      7466  TIP3      H1             -1.8716428576      -13.1438879656       62.7922974360  TIP3      7274            0.0000000000
     44074      7466  TIP3      H2             -1.3779918459      -11.8250344211       62.3018266724  TIP3      7274            0.0000000000
     44075      7467  TIP3      OH2            -1.5367328511      -11.6885920602       68.0979273784  TIP3      7275            0.0000000000
     44076      7467  TIP3      H1             -0.5756708711      -11.4576042673       68.0816260495  TIP3      7275            0.0000000000
     44077      7467  TIP3      H2             -1.7230420042      -11.5474206698       69.0389298849  TIP3      7275            0.0000000000
     44078      7468  TIP3      OH2            -1.4834936614      -10.9793013690       70.8632598143  TIP3      7276            0.0000000000
     44079      7468  TIP3      H1             -2.3558393062      -10.6768836109       71.1953883355  TIP3      7276            0.0000000000
     44080      7468  TIP3      H2             -1.0395543975      -10.1187504713       70.6562148194  TIP3      7276            0.0000000000
     44081      7469  TIP3      OH2           -17.2141076137      -12.4423193199       74.3878797032  TIP3      7277            0.0000000000
     44082      7469  TIP3      H1            -16.2805470097      -12.6392051311       74.6045572154  TIP3      7277            0.0000000000
     44083      7469  TIP3      H2            -17.6750725652      -13.2543195126       74.6942816744  TIP3      7277            0.0000000000
     44084      7470  TIP3      OH2             0.7907550366      -16.8960983356       76.2177633796  TIP3      7278            0.0000000000
     44085      7470  TIP3      H1              1.1459026953      -17.5679931343       75.6106455499  TIP3      7278            0.0000000000
     44086      7470  TIP3      H2              0.9091363514      -16.0808899733       75.6990757435  TIP3      7278            0.0000000000
     44087      7471  TIP3      OH2            -1.5055398264      -14.9557851866       62.6873008990  TIP3      7279            0.0000000000
     44088      7471  TIP3      H1             -1.2823059316      -15.3642367473       63.5571483331  TIP3      7279            0.0000000000
     44089      7471  TIP3      H2             -2.1046900337      -15.5985669505       62.2757307449  TIP3      7279            0.0000000000
     44090      7472  TIP3      OH2           -16.0116817122      -14.1468899608       67.2743913296  TIP3      7280            0.0000000000
     44091      7472  TIP3      H1            -15.5461952575      -14.9708479250       67.5257992424  TIP3      7280            0.0000000000
     44092      7472  TIP3      H2            -15.4698720460      -13.4405861070       67.6460090052  TIP3      7280            0.0000000000
     44093      7473  TIP3      OH2           -17.7128749023      -11.1521246891       68.3253849547  TIP3      7281            0.0000000000
     44094      7473  TIP3      H1            -17.1971718689      -11.3896958566       67.5243273930  TIP3      7281            0.0000000000
     44095      7473  TIP3      H2            -17.2706113631      -10.3231020946       68.5459844702  TIP3      7281            0.0000000000
     44096      7474  TIP3      OH2             0.3246565516      -14.8030565232       74.5693240585  TIP3      7282            0.0000000000
     44097      7474  TIP3      H1             -0.6108320687      -14.5328913765       74.5080072490  TIP3      7282            0.0000000000
     44098      7474  TIP3      H2              0.3567368250      -15.3565199104       73.7749294090  TIP3      7282            0.0000000000
     44099      7475  TIP3      OH2             0.3044420474      -14.9086281002       59.2540144201  TIP3      7283            0.0000000000
     44100      7475  TIP3      H1              0.7506504407      -15.6154872548       58.7325570489  TIP3      7283            0.0000000000
     44101      7475  TIP3      H2              1.0237473290      -14.2567994683       59.3136834952  TIP3      7283            0.0000000000
     44102      7476  TIP3      OH2           -17.3493196557      -14.9176562305       62.3407909318  TIP3      7284            0.0000000000
     44103      7476  TIP3      H1            -18.2927560788      -14.7012787404       62.2406366089  TIP3      7284            0.0000000000
     44104      7476  TIP3      H2            -16.9618172706      -14.3500505360       61.6574137728  TIP3      7284            0.0000000000
     44105      7477  TIP3      OH2            -2.6353936236        0.0754044369       64.3215994231  TIP3      7285            0.0000000000
     44106      7477  TIP3      H1             -1.9509165544       -0.2314633597       63.6987247026  TIP3      7285            0.0000000000
     44107      7477  TIP3      H2             -2.1187572383        0.5718680768       64.9733572357  TIP3      7285            0.0000000000
     44108      7478  TIP3      OH2           -17.4237837186      -16.2157002070       70.6762456515  TIP3      7286            0.0000000000
     44109      7478  TIP3      H1            -18.0969856257      -16.4064082175       71.3486739859  TIP3      7286            0.0000000000
     44110      7478  TIP3      H2            -17.8775227457      -15.5509152723       70.1179182858  TIP3      7286            0.0000000000
     44111      7479  TIP3      OH2           -15.1696331112       -2.9771378550       74.8162136556  TIP3      7287            0.0000000000
     44112      7479  TIP3      H1            -16.0316172357       -2.8089190005       74.4021360513  TIP3      7287            0.0000000000
     44113      7479  TIP3      H2            -15.4404033494       -3.0786394657       75.7348929151  TIP3      7287            0.0000000000
     44114      7480  TIP3      OH2           -12.2705392311       -1.9789493645       71.1626896137  TIP3      7288            0.0000000000
     44115      7480  TIP3      H1            -12.6468399463       -1.2020487781       70.7458656158  TIP3      7288            0.0000000000
     44116      7480  TIP3      H2            -11.3575010499       -1.9608644702       70.7897056393  TIP3      7288            0.0000000000
     44117      7481  TIP3      OH2            -7.9763837153       -0.6114888016       73.9969981865  TIP3      7289            0.0000000000
     44118      7481  TIP3      H1             -7.8324250477       -0.9194593298       74.9255990495  TIP3      7289            0.0000000000
     44119      7481  TIP3      H2             -7.0701794996       -0.2825019537       73.7952636431  TIP3      7289            0.0000000000
     44120      7482  TIP3      OH2            -5.6784711099        0.6737188562       73.2861169605  TIP3      7290            0.0000000000
     44121      7482  TIP3      H1             -4.9294718143        0.0936347927       73.1068690602  TIP3      7290            0.0000000000
     44122      7482  TIP3      H2             -5.3421604305        1.1050748000       74.1143393178  TIP3      7290            0.0000000000
     44123      7483  TIP3      OH2            -0.6592738991      -16.7151761170       72.4309140524  TIP3      7291            0.0000000000
     44124      7483  TIP3      H1             -1.4857728961      -16.4144532118       72.0156002213  TIP3      7291            0.0000000000
     44125      7483  TIP3      H2             -0.4894540404      -17.5356719999       71.9103116575  TIP3      7291            0.0000000000
     44126      7484  TIP3      OH2           -14.8095689101        1.2588232941       71.1591698626  TIP3      7292            0.0000000000
     44127      7484  TIP3      H1            -15.5575909321        1.6916467973       70.6937953279  TIP3      7292            0.0000000000
     44128      7484  TIP3      H2            -15.2296401383        1.0295625199       71.9987567612  TIP3      7292            0.0000000000
     44129      7485  TIP3      OH2           -12.4476273386        0.8057614795       70.1131616818  TIP3      7293            0.0000000000
     44130      7485  TIP3      H1            -13.3834585073        0.9418533188       70.4028737710  TIP3      7293            0.0000000000
     44131      7485  TIP3      H2            -12.4572034242        1.3859380827       69.3157334138  TIP3      7293            0.0000000000
     44132      7486  TIP3      OH2            -7.7355733577        0.6878237036       69.3716559975  TIP3      7294            0.0000000000
     44133      7486  TIP3      H1             -8.1212203432        1.2597587750       68.6851427433  TIP3      7294            0.0000000000
     44134      7486  TIP3      H2             -7.5258834505        1.3421655473       70.0702905671  TIP3      7294            0.0000000000
     44135      7487  TIP3      OH2            -5.3980564470       -0.4854407888       70.3652497809  TIP3      7295            0.0000000000
     44136      7487  TIP3      H1             -6.2543175810       -0.2057597436       70.0060131980  TIP3      7295            0.0000000000
     44137      7487  TIP3      H2             -4.9090529965        0.3515680011       70.2824642324  TIP3      7295            0.0000000000
     44138      7488  TIP3      OH2            -2.8227869385        1.0899549201       70.5929592459  TIP3      7296            0.0000000000
     44139      7488  TIP3      H1             -2.8673838261        2.0472044556       70.3617156429  TIP3      7296            0.0000000000
     44140      7488  TIP3      H2             -2.5913481149        0.7122397769       69.7206764603  TIP3      7296            0.0000000000
     44141      7489  TIP3      OH2           -15.3821882046       -0.1106218787       68.0617793881  TIP3      7297            0.0000000000
     44142      7489  TIP3      H1            -15.4879166226       -0.6210543887       68.8901309724  TIP3      7297            0.0000000000
     44143      7489  TIP3      H2            -14.5922235126       -0.5184883034       67.6404156026  TIP3      7297            0.0000000000
     44144      7490  TIP3      OH2           -13.3295348323       -1.4246530077       66.6903814250  TIP3      7298            0.0000000000
     44145      7490  TIP3      H1            -13.4909600342       -2.3567833731       66.9297470794  TIP3      7298            0.0000000000
     44146      7490  TIP3      H2            -12.4662584065       -1.2735569822       67.1274177005  TIP3      7298            0.0000000000
     44147      7491  TIP3      OH2           -10.7274385062       -0.9388466388       67.5865799432  TIP3      7299            0.0000000000
     44148      7491  TIP3      H1            -10.5685346142       -1.8557059003       67.3008476506  TIP3      7299            0.0000000000
     44149      7491  TIP3      H2            -10.6594151068       -1.0255360684       68.5434169502  TIP3      7299            0.0000000000
     44150      7492  TIP3      OH2            -7.2685060582      -15.2877111352       66.7124042012  TIP3      7300            0.0000000000
     44151      7492  TIP3      H1             -7.9442381088      -15.9278752640       66.9928511515  TIP3      7300            0.0000000000
     44152      7492  TIP3      H2             -6.7161958373      -15.8229737406       66.1306082013  TIP3      7300            0.0000000000
     44153      7493  TIP3      OH2            -2.1304878028      -17.2391157714       66.7719809484  TIP3      7301            0.0000000000
     44154      7493  TIP3      H1             -1.5183292543      -16.6448192274       66.2680726832  TIP3      7301            0.0000000000
     44155      7493  TIP3      H2             -3.0134383640      -16.8777271908       66.5447360101  TIP3      7301            0.0000000000
     44156      7494  TIP3      OH2            -0.4664395933      -15.9862026479       65.0462326222  TIP3      7302            0.0000000000
     44157      7494  TIP3      H1              0.2238991649      -16.5650694515       64.6388252963  TIP3      7302            0.0000000000
     44158      7494  TIP3      H2              0.0449083270      -15.1529773461       65.1620074005  TIP3      7302            0.0000000000
     44159      7495  TIP3      OH2           -14.8865299375      -16.6578897557       64.5630804929  TIP3      7303            0.0000000000
     44160      7495  TIP3      H1            -15.6810678021      -16.8667384277       64.0310683208  TIP3      7303            0.0000000000
     44161      7495  TIP3      H2            -14.4406329621      -17.5321517990       64.4987849508  TIP3      7303            0.0000000000
     44162      7496  TIP3      OH2           -16.1383474934      -16.8989781054       60.2613220046  TIP3      7304            0.0000000000
     44163      7496  TIP3      H1            -15.6361452117      -16.2437237765       59.7433327638  TIP3      7304            0.0000000000
     44164      7496  TIP3      H2            -16.6966176547      -16.3271423543       60.8180386847  TIP3      7304            0.0000000000
     44165      7497  TIP3      OH2           -10.4303611804      -16.7443928382       64.3469811455  TIP3      7305            0.0000000000
     44166      7497  TIP3      H1             -9.5329805060      -16.3774484019       64.2709719362  TIP3      7305            0.0000000000
     44167      7497  TIP3      H2            -10.4615668278      -16.9549223599       65.2783946045  TIP3      7305            0.0000000000
     44168      7498  TIP3      OH2            -4.7092918017      -16.7172130993       65.9669356337  TIP3      7306            0.0000000000
     44169      7498  TIP3      H1             -4.7623098538      -16.6034781003       65.0094467447  TIP3      7306            0.0000000000
     44170      7498  TIP3      H2             -5.0859553504      -17.6234255161       66.0931149581  TIP3      7306            0.0000000000
     44171      7499  TIP3      OH2            -3.4981804621      -16.7061694464       61.5453100329  TIP3      7307            0.0000000000
     44172      7499  TIP3      H1             -4.2230235769      -16.0664906239       61.5935776345  TIP3      7307            0.0000000000
     44173      7499  TIP3      H2             -3.8888914432      -17.5354499825       61.9289568396  TIP3      7307            0.0000000000
     44174      7500  TIP3      OH2           -16.2155859171       -0.9600868692       61.3111772602  TIP3      7308            0.0000000000
     44175      7500  TIP3      H1            -16.8719636780       -0.9741445411       60.5904697546  TIP3      7308            0.0000000000
     44176      7500  TIP3      H2            -16.2175892150       -0.0048182849       61.4817550849  TIP3      7308            0.0000000000
     44177      7501  TIP3      OH2           -14.3008067712      -14.9639237191       58.7922202032  TIP3      7309            0.0000000000
     44178      7501  TIP3      H1            -13.7716402568      -15.5792419393       58.2605728133  TIP3      7309            0.0000000000
     44179      7501  TIP3      H2            -13.6349885315      -14.6428153388       59.4273775471  TIP3      7309            0.0000000000
     44180      7502  TIP3      OH2            -9.2778614490      -14.7195702082       61.1950575318  TIP3      7310            0.0000000000
     44181      7502  TIP3      H1             -9.0222379034      -15.2992971810       61.9316581575  TIP3      7310            0.0000000000
     44182      7502  TIP3      H2             -9.2040517030      -13.8545939492       61.6543866855  TIP3      7310            0.0000000000
     44183      7503  TIP3      OH2            -7.3403203309        0.3528406590       59.6433821506  TIP3      7311            0.0000000000
     44184      7503  TIP3      H1             -6.4230057316        0.5786226000       59.4213861162  TIP3      7311            0.0000000000
     44185      7503  TIP3      H2             -7.5609846985       -0.1681100497       58.8424930771  TIP3      7311            0.0000000000
     44186      7504  TIP3      OH2            -0.6481809236       -0.1479498257       62.3637733692  TIP3      7312            0.0000000000
     44187      7504  TIP3      H1             -0.8365146572       -0.9302487875       61.7914292128  TIP3      7312            0.0000000000
     44188      7504  TIP3      H2             -0.7131143568        0.5871641019       61.7200360743  TIP3      7312            0.0000000000
     44189      7505  TIP3      OH2           -15.0222641473      -16.1304590575       73.9899458383  TIP3      7313            0.0000000000
     44190      7505  TIP3      H1            -15.4070030842      -16.9213793615       74.4160463815  TIP3      7313            0.0000000000
     44191      7505  TIP3      H2            -14.1128082170      -16.1650612102       74.3738739889  TIP3      7313            0.0000000000
     44192      7506  TIP3      OH2           -13.0032483931      -16.7324523386       75.6304300790  TIP3      7314            0.0000000000
     44193      7506  TIP3      H1            -12.1212138857      -17.0883305852       75.4071299149  TIP3      7314            0.0000000000
     44194      7506  TIP3      H2            -13.3923162129      -17.5259441144       76.0545447695  TIP3      7314            0.0000000000
     44195      7507  TIP3      OH2           -14.4215605533        0.0277297629       58.2514279951  TIP3      7315            0.0000000000
     44196      7507  TIP3      H1            -14.6803314718        0.2859065217       59.1478657214  TIP3      7315            0.0000000000
     44197      7507  TIP3      H2            -13.6378918363       -0.5355887671       58.4063034477  TIP3      7315            0.0000000000
     44198      7508  TIP3      OH2            -4.6068908254      -17.4587778327       75.8065639088  TIP3      7316            0.0000000000
     44199      7508  TIP3      H1             -4.5054385256      -17.9189992653       76.6615316600  TIP3      7316            0.0000000000
     44200      7508  TIP3      H2             -3.6895563893      -17.4809950396       75.4616466967  TIP3      7316            0.0000000000
     44201      7509  TIP3      OH2            -1.4200064878       -1.4026290718       74.4761759622  TIP3      7317            0.0000000000
     44202      7509  TIP3      H1             -2.2007821791       -1.5331739945       73.8949126265  TIP3      7317            0.0000000000
     44203      7509  TIP3      H2             -1.5240764795       -0.4480297423       74.6688856927  TIP3      7317            0.0000000000
     44204      7510  TIP3      OH2            13.0512030027       -7.5182447655       64.4039577767  TIP3      7318            0.0000000000
     44205      7510  TIP3      H1             13.0294829639       -6.5381134344       64.3894463211  TIP3      7318            0.0000000000
     44206      7510  TIP3      H2             12.3168962273       -7.7537365024       63.8138938682  TIP3      7318            0.0000000000
     44207      7511  TIP3      OH2            11.9023356584       -8.1967434335       67.9351947423  TIP3      7319            0.0000000000
     44208      7511  TIP3      H1             11.8901447236       -8.8853279897       68.6207286495  TIP3      7319            0.0000000000
     44209      7511  TIP3      H2             11.5925024335       -8.7610057366       67.1950396894  TIP3      7319            0.0000000000
     44210      7512  TIP3      OH2             4.2323199246       -8.5815457780       69.4897129957  TIP3      7320            0.0000000000
     44211      7512  TIP3      H1              4.3460266479       -9.2878002113       70.1616686434  TIP3      7320            0.0000000000
     44212      7512  TIP3      H2              5.0148329604       -8.0385123742       69.6765698500  TIP3      7320            0.0000000000
     44213      7513  TIP3      OH2            15.5920336117       -5.3183132080       66.2035023706  TIP3      7321            0.0000000000
     44214      7513  TIP3      H1             15.1695609358       -6.0378128409       66.6892898420  TIP3      7321            0.0000000000
     44215      7513  TIP3      H2             15.6107390475       -4.6096262007       66.8727191121  TIP3      7321            0.0000000000
     44216      7514  TIP3      OH2             5.1856980351       -4.1279262974       67.9039531392  TIP3      7322            0.0000000000
     44217      7514  TIP3      H1              4.8671819307       -5.0168896417       67.6636389038  TIP3      7322            0.0000000000
     44218      7514  TIP3      H2              6.1303223182       -4.3218104990       68.0349092035  TIP3      7322            0.0000000000
     44219      7515  TIP3      OH2             1.8129114255      -10.5857915703       63.4591361240  TIP3      7323            0.0000000000
     44220      7515  TIP3      H1              1.3783435216       -9.7145613174       63.3967326167  TIP3      7323            0.0000000000
     44221      7515  TIP3      H2              1.2545225639      -11.1265581838       62.8877733983  TIP3      7323            0.0000000000
     44222      7516  TIP3      OH2             2.5312782043       -8.3602441516       65.6102020627  TIP3      7324            0.0000000000
     44223      7516  TIP3      H1              2.8038892608       -9.1832213330       66.0577191699  TIP3      7324            0.0000000000
     44224      7516  TIP3      H2              3.2244919236       -8.2530951715       64.9409250513  TIP3      7324            0.0000000000
     44225      7517  TIP3      OH2            12.7060845829       -0.1579675314       66.4358693499  TIP3      7325            0.0000000000
     44226      7517  TIP3      H1             13.3552310290       -0.8479630045       66.1507963369  TIP3      7325            0.0000000000
     44227      7517  TIP3      H2             12.4952283774       -0.4946740628       67.3067033290  TIP3      7325            0.0000000000
     44228      7518  TIP3      OH2            10.2670436324       -5.8772827316       68.3851750799  TIP3      7326            0.0000000000
     44229      7518  TIP3      H1             10.6135608339       -6.5167110749       67.7404036586  TIP3      7326            0.0000000000
     44230      7518  TIP3      H2             11.0718863032       -5.6987983135       68.9052415691  TIP3      7326            0.0000000000
     44231      7519  TIP3      OH2            18.8690741978      -14.2031765396       69.1111103113  TIP3      7327            0.0000000000
     44232      7519  TIP3      H1             19.0483574893      -13.6183762062       69.8788094168  TIP3      7327            0.0000000000
     44233      7519  TIP3      H2             19.4393531935      -13.7840682743       68.4508644125  TIP3      7327            0.0000000000
     44234      7520  TIP3      OH2            13.5424023842      -11.3997725109       68.7159642638  TIP3      7328            0.0000000000
     44235      7520  TIP3      H1             13.5937870781      -12.3673604518       68.6995295640  TIP3      7328            0.0000000000
     44236      7520  TIP3      H2             13.2893924658      -11.2424117024       67.7779618632  TIP3      7328            0.0000000000
     44237      7521  TIP3      OH2             6.4771436489      -13.3435253716       65.9018455879  TIP3      7329            0.0000000000
     44238      7521  TIP3      H1              6.7032055745      -12.4951661667       65.4726959332  TIP3      7329            0.0000000000
     44239      7521  TIP3      H2              6.1375775406      -13.8931376490       65.1747137961  TIP3      7329            0.0000000000
     44240      7522  TIP3      OH2            14.2948219098      -13.2508764173       64.2783978360  TIP3      7330            0.0000000000
     44241      7522  TIP3      H1             14.9432262072      -13.5440286908       64.9600210372  TIP3      7330            0.0000000000
     44242      7522  TIP3      H2             14.8548830451      -12.6494248789       63.7628840878  TIP3      7330            0.0000000000
     44243      7523  TIP3      OH2             3.1573480715      -10.8997898463       66.6558560142  TIP3      7331            0.0000000000
     44244      7523  TIP3      H1              3.8576440797      -11.4216267059       67.1062677774  TIP3      7331            0.0000000000
     44245      7523  TIP3      H2              3.2995529519      -11.2083405140       65.7463755132  TIP3      7331            0.0000000000
     44246      7524  TIP3      OH2             8.3626771900       -9.2801545983       65.9109611890  TIP3      7332            0.0000000000
     44247      7524  TIP3      H1              8.9287241083       -9.9191289345       66.3965185647  TIP3      7332            0.0000000000
     44248      7524  TIP3      H2              7.8265682230       -9.9889988279       65.4965060455  TIP3      7332            0.0000000000
     44249      7525  TIP3      OH2            19.3130925622      -12.8027018088       71.3922996337  TIP3      7333            0.0000000000
     44250      7525  TIP3      H1             18.7102268794      -12.0363437859       71.2805256071  TIP3      7333            0.0000000000
     44251      7525  TIP3      H2             19.3474160757      -12.8820836767       72.3535736976  TIP3      7333            0.0000000000
     44252      7526  TIP3      OH2             5.4292728459      -14.4385734916       69.9471182299  TIP3      7334            0.0000000000
     44253      7526  TIP3      H1              5.2079465670      -13.8289799789       69.2111538559  TIP3      7334            0.0000000000
     44254      7526  TIP3      H2              4.7858346491      -14.1646153882       70.6385642954  TIP3      7334            0.0000000000
     44255      7527  TIP3      OH2            12.7545278955       -4.9314920167       63.5033637466  TIP3      7335            0.0000000000
     44256      7527  TIP3      H1             12.4923674162       -5.2024591650       62.6141701605  TIP3      7335            0.0000000000
     44257      7527  TIP3      H2             12.4475426476       -3.9970139771       63.5553076221  TIP3      7335            0.0000000000
     44258      7528  TIP3      OH2             7.9955396773       -6.7579155862       70.2096203372  TIP3      7336            0.0000000000
     44259      7528  TIP3      H1              7.2805629462       -6.1238400345       70.4291615193  TIP3      7336            0.0000000000
     44260      7528  TIP3      H2              8.6899254133       -6.1539033365       69.9092095052  TIP3      7336            0.0000000000
     44261      7529  TIP3      OH2            16.1291456511      -13.8966743495       66.2732576702  TIP3      7337            0.0000000000
     44262      7529  TIP3      H1             15.8877808525      -14.6519394046       66.8162425304  TIP3      7337            0.0000000000
     44263      7529  TIP3      H2             16.7798364490      -13.4455735727       66.8370324280  TIP3      7337            0.0000000000
     44264      7530  TIP3      OH2             5.0347608816      -12.5377897304       67.9867833380  TIP3      7338            0.0000000000
     44265      7530  TIP3      H1              5.6935248511      -11.8747285517       68.3040311119  TIP3      7338            0.0000000000
     44266      7530  TIP3      H2              5.5640147336      -12.9585263907       67.2592276472  TIP3      7338            0.0000000000
     44267      7531  TIP3      OH2             6.4384084522       -4.7596857642       71.0077706363  TIP3      7339            0.0000000000
     44268      7531  TIP3      H1              6.3610912213       -3.8441521354       70.6975905049  TIP3      7339            0.0000000000
     44269      7531  TIP3      H2              5.5509957247       -4.8208220405       71.4614433094  TIP3      7339            0.0000000000
     44270      7532  TIP3      OH2             2.5086688158       -5.1504807897       61.8111701378  TIP3      7340            0.0000000000
     44271      7532  TIP3      H1              2.2571634691       -4.8125929154       60.9330705601  TIP3      7340            0.0000000000
     44272      7532  TIP3      H2              2.5926521471       -4.3230303323       62.3299880900  TIP3      7340            0.0000000000
     44273      7533  TIP3      OH2            16.1178180627       -3.4773370429       68.5688944244  TIP3      7341            0.0000000000
     44274      7533  TIP3      H1             15.1473717150       -3.3672375331       68.6898391886  TIP3      7341            0.0000000000
     44275      7533  TIP3      H2             16.3850867759       -2.5625832200       68.3648495067  TIP3      7341            0.0000000000
     44276      7534  TIP3      OH2            16.4398267417      -15.1978777742       69.9577252409  TIP3      7342            0.0000000000
     44277      7534  TIP3      H1             15.7149608370      -14.5645804505       69.8638067928  TIP3      7342            0.0000000000
     44278      7534  TIP3      H2             17.1528163938      -14.7789845967       69.4348744306  TIP3      7342            0.0000000000
     44279      7535  TIP3      OH2             9.4131837667      -17.1028485428       67.4143064648  TIP3      7343            0.0000000000
     44280      7535  TIP3      H1              9.2386067600      -18.0615435683       67.3478982818  TIP3      7343            0.0000000000
     44281      7535  TIP3      H2              8.5492955463      -16.7502335368       67.7239431571  TIP3      7343            0.0000000000
     44282      7536  TIP3      OH2            14.3827632894       -1.6952523919       65.1573886995  TIP3      7344            0.0000000000
     44283      7536  TIP3      H1             14.8044146056       -2.4160771091       64.6466481080  TIP3      7344            0.0000000000
     44284      7536  TIP3      H2             14.8116194845       -0.9063038236       64.7643082159  TIP3      7344            0.0000000000
     44285      7537  TIP3      OH2            15.5911499652       -3.7694015835       63.6765103852  TIP3      7345            0.0000000000
     44286      7537  TIP3      H1             15.2878125406       -4.4659276731       63.0725959283  TIP3      7345            0.0000000000
     44287      7537  TIP3      H2             15.6232125638       -4.2604373487       64.5170999306  TIP3      7345            0.0000000000
     44288      7538  TIP3      OH2            17.2061677004       -5.1712304705       72.1684161824  TIP3      7346            0.0000000000
     44289      7538  TIP3      H1             17.3496874811       -5.8271006098       71.4506708886  TIP3      7346            0.0000000000
     44290      7538  TIP3      H2             17.4101858955       -4.3296864364       71.7240763435  TIP3      7346            0.0000000000
     44291      7539  TIP3      OH2            11.6981037227       -8.2837026848       61.9364875043  TIP3      7347            0.0000000000
     44292      7539  TIP3      H1             11.0062411692       -7.7058725397       61.5630006576  TIP3      7347            0.0000000000
     44293      7539  TIP3      H2             12.4105177086       -8.1921922971       61.2751702482  TIP3      7347            0.0000000000
     44294      7540  TIP3      OH2            11.7871072276       -9.7181978599       58.9342357381  TIP3      7348            0.0000000000
     44295      7540  TIP3      H1             12.4879950534       -9.7365995591       59.6036188851  TIP3      7348            0.0000000000
     44296      7540  TIP3      H2             12.0927597407      -10.4373869228       58.3675593921  TIP3      7348            0.0000000000
     44297      7541  TIP3      OH2            19.0917585430       -8.8608790896       70.2123366213  TIP3      7349            0.0000000000
     44298      7541  TIP3      H1             18.4323394385       -8.1395974422       70.2493804782  TIP3      7349            0.0000000000
     44299      7541  TIP3      H2             19.5871555301       -8.6293643292       69.4055276358  TIP3      7349            0.0000000000
     44300      7542  TIP3      OH2            15.1538463480       -8.0773677442       62.8539504746  TIP3      7350            0.0000000000
     44301      7542  TIP3      H1             14.4070744560       -7.8484163020       63.4610998831  TIP3      7350            0.0000000000
     44302      7542  TIP3      H2             15.6349675334       -8.7482764540       63.3699243165  TIP3      7350            0.0000000000
     44303      7543  TIP3      OH2            15.0805268102       -9.9069948212       71.9788047398  TIP3      7351            0.0000000000
     44304      7543  TIP3      H1             15.0845529940       -9.0851850507       72.4947746551  TIP3      7351            0.0000000000
     44305      7543  TIP3      H2             14.4488782142       -9.6208009482       71.2834578984  TIP3      7351            0.0000000000
     44306      7544  TIP3      OH2             6.7668875660       -7.4222916270       64.7791663740  TIP3      7352            0.0000000000
     44307      7544  TIP3      H1              6.4511627670       -7.8233036312       63.9350750719  TIP3      7352            0.0000000000
     44308      7544  TIP3      H2              7.3808430870       -8.1186852041       65.1216442032  TIP3      7352            0.0000000000
     44309      7545  TIP3      OH2             8.0815968689       -4.0336649411       67.4381528532  TIP3      7353            0.0000000000
     44310      7545  TIP3      H1              8.0832878873       -4.5624625499       66.6326113724  TIP3      7353            0.0000000000
     44311      7545  TIP3      H2              8.8608801312       -4.3842067157       67.9087241237  TIP3      7353            0.0000000000
     44312      7546  TIP3      OH2             7.0703539768       -8.6334889776       68.4378511333  TIP3      7354            0.0000000000
     44313      7546  TIP3      H1              7.6480335228       -8.6170770087       67.6476293379  TIP3      7354            0.0000000000
     44314      7546  TIP3      H2              7.5049959878       -8.0077157254       69.0505243193  TIP3      7354            0.0000000000
     44315      7547  TIP3      OH2            13.5103051177       -3.0966718128       69.1395428502  TIP3      7355            0.0000000000
     44316      7547  TIP3      H1             13.2149819134       -2.4587549192       69.7945016901  TIP3      7355            0.0000000000
     44317      7547  TIP3      H2             13.2548164793       -3.9518145102       69.5620591404  TIP3      7355            0.0000000000
     44318      7548  TIP3      OH2             8.0450827137       -4.2694564164       73.1506697160  TIP3      7356            0.0000000000
     44319      7548  TIP3      H1              7.6394805257       -3.4928579937       73.5988821173  TIP3      7356            0.0000000000
     44320      7548  TIP3      H2              7.3806999760       -4.4199491884       72.4321089513  TIP3      7356            0.0000000000
     44321      7549  TIP3      OH2            14.0279310510       -8.8687393787       60.5179052449  TIP3      7357            0.0000000000
     44322      7549  TIP3      H1             14.5844986666       -8.6975286742       61.3182027632  TIP3      7357            0.0000000000
     44323      7549  TIP3      H2             14.4797987791       -8.3760092248       59.7962548181  TIP3      7357            0.0000000000
     44324      7550  TIP3      OH2             4.9876842954       -8.0898989936       72.2910767630  TIP3      7358            0.0000000000
     44325      7550  TIP3      H1              5.0365861967       -7.4127772745       72.9973601104  TIP3      7358            0.0000000000
     44326      7550  TIP3      H2              4.0518468263       -7.9730175779       72.0635107358  TIP3      7358            0.0000000000
     44327      7551  TIP3      OH2            11.7401680396       -2.1496380102       63.9917775502  TIP3      7359            0.0000000000
     44328      7551  TIP3      H1             12.1707623654       -1.8430417507       64.7973218999  TIP3      7359            0.0000000000
     44329      7551  TIP3      H2             11.1825415278       -1.4007077316       63.7523408726  TIP3      7359            0.0000000000
     44330      7552  TIP3      OH2             6.3293908375       -2.2529335281       73.9440890988  TIP3      7360            0.0000000000
     44331      7552  TIP3      H1              6.2389477390       -2.2535957152       72.9580458348  TIP3      7360            0.0000000000
     44332      7552  TIP3      H2              5.3686401818       -2.3208458690       74.1108678066  TIP3      7360            0.0000000000
     44333      7553  TIP3      OH2            17.7517604585      -17.1416698618       60.4232108586  TIP3      7361            0.0000000000
     44334      7553  TIP3      H1             16.8047492143      -17.0275037182       60.6623937623  TIP3      7361            0.0000000000
     44335      7553  TIP3      H2             17.9536299550      -16.3012352411       59.9784082166  TIP3      7361            0.0000000000
     44336      7554  TIP3      OH2             5.7199900094       -8.3960586126       62.4014646103  TIP3      7362            0.0000000000
     44337      7554  TIP3      H1              5.4440259548       -7.6121030287       61.8815307315  TIP3      7362            0.0000000000
     44338      7554  TIP3      H2              5.0768859083       -9.0622347776       62.1533604961  TIP3      7362            0.0000000000
     44339      7555  TIP3      OH2            18.8654379207       -2.7887308461       58.7716139724  TIP3      7363            0.0000000000
     44340      7555  TIP3      H1             19.0306846484       -1.8452732486       58.9404148477  TIP3      7363            0.0000000000
     44341      7555  TIP3      H2             19.7886346912       -3.1012928825       58.7669338219  TIP3      7363            0.0000000000
     44342      7556  TIP3      OH2             1.7751682482       -5.9685712361       71.2985396398  TIP3      7364            0.0000000000
     44343      7556  TIP3      H1              1.3791356231       -6.0381945522       70.4151987075  TIP3      7364            0.0000000000
     44344      7556  TIP3      H2              1.9121858182       -6.9109031616       71.4969769220  TIP3      7364            0.0000000000
     44345      7557  TIP3      OH2             1.5832902606       -3.2220711645       67.9452759691  TIP3      7365            0.0000000000
     44346      7557  TIP3      H1              2.5324926028       -3.3605661749       68.0514639408  TIP3      7365            0.0000000000
     44347      7557  TIP3      H2              1.4919607126       -2.4725518200       68.5780719343  TIP3      7365            0.0000000000
     44348      7558  TIP3      OH2            19.8079310576       -2.5267887286       73.7166083584  TIP3      7366            0.0000000000
     44349      7558  TIP3      H1             19.6983399956       -3.4873706027       73.7319265216  TIP3      7366            0.0000000000
     44350      7558  TIP3      H2             18.9577293615       -2.2754033629       74.1534853020  TIP3      7366            0.0000000000
     44351      7559  TIP3      OH2            10.7757485863       -2.9883556914       72.6260361766  TIP3      7367            0.0000000000
     44352      7559  TIP3      H1             10.8328534629       -2.1448761483       73.1350680879  TIP3      7367            0.0000000000
     44353      7559  TIP3      H2              9.8882366492       -3.3322168203       72.8501042735  TIP3      7367            0.0000000000
     44354      7560  TIP3      OH2            11.2237924772        0.7591667015       62.4004258440  TIP3      7368            0.0000000000
     44355      7560  TIP3      H1             11.1101830938        0.6801352782       61.4362197575  TIP3      7368            0.0000000000
     44356      7560  TIP3      H2             11.2228607972        1.7202072276       62.5578278904  TIP3      7368            0.0000000000
     44357      7561  TIP3      OH2             4.8558798077       -0.3605109256       64.2265100954  TIP3      7369            0.0000000000
     44358      7561  TIP3      H1              5.0038920158       -0.7774810711       65.1043567019  TIP3      7369            0.0000000000
     44359      7561  TIP3      H2              4.0091751998       -0.7725241778       63.9871634776  TIP3      7369            0.0000000000
     44360      7562  TIP3      OH2            14.2793694912       -0.0261300308       59.3875725168  TIP3      7370            0.0000000000
     44361      7562  TIP3      H1             14.7294156458       -0.7860570558       58.9517660313  TIP3      7370            0.0000000000
     44362      7562  TIP3      H2             14.3146147014       -0.2897396122       60.3295813102  TIP3      7370            0.0000000000
     44363      7563  TIP3      OH2            13.9726003464       -0.0922691300       62.1613209741  TIP3      7371            0.0000000000
     44364      7563  TIP3      H1             13.0099365506       -0.0171952312       62.3305207186  TIP3      7371            0.0000000000
     44365      7563  TIP3      H2             14.2041054849       -0.8357835721       62.7385216326  TIP3      7371            0.0000000000
     44366      7564  TIP3      OH2            16.9732921599      -11.0534174686       74.1850702349  TIP3      7372            0.0000000000
     44367      7564  TIP3      H1             16.4788224463      -10.6065883068       73.4813426854  TIP3      7372            0.0000000000
     44368      7564  TIP3      H2             16.9441621115      -11.9799247211       73.9050128919  TIP3      7372            0.0000000000
     44369      7565  TIP3      OH2             4.1388079743       -4.8738579261       72.2160881332  TIP3      7373            0.0000000000
     44370      7565  TIP3      H1              4.2968164240       -5.0236702712       73.1641503636  TIP3      7373            0.0000000000
     44371      7565  TIP3      H2              3.2004559622       -5.0426515043       72.0358064544  TIP3      7373            0.0000000000
     44372      7566  TIP3      OH2             6.7800021090      -16.1976481799       68.1894459743  TIP3      7374            0.0000000000
     44373      7566  TIP3      H1              5.8834951993      -16.2817695051       67.8032429507  TIP3      7374            0.0000000000
     44374      7566  TIP3      H2              6.6827327890      -15.3379412756       68.6382533945  TIP3      7374            0.0000000000
     44375      7567  TIP3      OH2            11.4313919200      -16.5106306504       71.5294780178  TIP3      7375            0.0000000000
     44376      7567  TIP3      H1             11.8210646178      -16.9287348192       72.3204164930  TIP3      7375            0.0000000000
     44377      7567  TIP3      H2             10.4582108651      -16.6235946114       71.6731461422  TIP3      7375            0.0000000000
     44378      7568  TIP3      OH2            14.7480071212      -12.6452673784       72.4632057076  TIP3      7376            0.0000000000
     44379      7568  TIP3      H1             14.1369336100      -12.8722248260       73.2076325540  TIP3      7376            0.0000000000
     44380      7568  TIP3      H2             14.5345925916      -11.7329523799       72.2072769735  TIP3      7376            0.0000000000
     44381      7569  TIP3      OH2            15.4767268253       -7.8432906691       58.3344715518  TIP3      7377            0.0000000000
     44382      7569  TIP3      H1             15.4542775633       -8.0366274670       57.3652046700  TIP3      7377            0.0000000000
     44383      7569  TIP3      H2             16.3343388556       -7.3979688167       58.3836087345  TIP3      7377            0.0000000000
     44384      7570  TIP3      OH2            11.0886101168      -13.9196039681       58.8443892781  TIP3      7378            0.0000000000
     44385      7570  TIP3      H1             10.7485118326      -13.9849582129       59.7591574310  TIP3      7378            0.0000000000
     44386      7570  TIP3      H2             10.7521785047      -14.7867672439       58.5363172451  TIP3      7378            0.0000000000
     44387      7571  TIP3      OH2             6.7936617748      -11.1796984924       69.5223519769  TIP3      7379            0.0000000000
     44388      7571  TIP3      H1              6.0465176515      -11.1607475889       70.1290376379  TIP3      7379            0.0000000000
     44389      7571  TIP3      H2              6.8201837095      -10.3185402519       69.0552196059  TIP3      7379            0.0000000000
     44390      7572  TIP3      OH2             6.8219294464      -11.0461096913       64.2521701585  TIP3      7380            0.0000000000
     44391      7572  TIP3      H1              5.8988062970      -11.3502611215       64.1629515606  TIP3      7380            0.0000000000
     44392      7572  TIP3      H2              7.2293301681      -11.3879220328       63.4371623319  TIP3      7380            0.0000000000
     44393      7573  TIP3      OH2            12.3712125570      -10.5826293437       63.0432810401  TIP3      7381            0.0000000000
     44394      7573  TIP3      H1             11.9816606581       -9.7544798687       62.6879611690  TIP3      7381            0.0000000000
     44395      7573  TIP3      H2             13.0691172781      -10.7448211977       62.3866745726  TIP3      7381            0.0000000000
     44396      7574  TIP3      OH2            11.4105353395      -10.3574326341       74.5018975142  TIP3      7382            0.0000000000
     44397      7574  TIP3      H1             10.9057543613      -11.1508779579       74.8017441315  TIP3      7382            0.0000000000
     44398      7574  TIP3      H2             12.2627591471      -10.4829167979       74.9528036994  TIP3      7382            0.0000000000
     44399      7575  TIP3      OH2            13.5692037884      -11.0981412547       65.8455382272  TIP3      7383            0.0000000000
     44400      7575  TIP3      H1             13.0999956093      -10.5407391684       65.2021160524  TIP3      7383            0.0000000000
     44401      7575  TIP3      H2             13.4992399900      -11.9614637603       65.4090585915  TIP3      7383            0.0000000000
     44402      7576  TIP3      OH2             4.4739084784      -10.9349845766       71.1256741646  TIP3      7384            0.0000000000
     44403      7576  TIP3      H1              4.5876493140      -10.5401358225       72.0060395502  TIP3      7384            0.0000000000
     44404      7576  TIP3      H2              4.0647376677      -11.7901223542       71.3311354327  TIP3      7384            0.0000000000
     44405      7577  TIP3      OH2             7.8855593793      -13.5103986873       57.9923244753  TIP3      7385            0.0000000000
     44406      7577  TIP3      H1              7.4318545861      -13.9907709848       58.7189421241  TIP3      7385            0.0000000000
     44407      7577  TIP3      H2              7.1564879599      -13.1574575412       57.4695014817  TIP3      7385            0.0000000000
     44408      7578  TIP3      OH2             1.1683468004      -13.8430151623       65.0939512413  TIP3      7386            0.0000000000
     44409      7578  TIP3      H1              1.8533877339      -13.8785088920       65.7958556228  TIP3      7386            0.0000000000
     44410      7578  TIP3      H2              1.6187931134      -14.2139096665       64.3148631514  TIP3      7386            0.0000000000
     44411      7579  TIP3      OH2             2.4151384046      -13.1110476416       60.4566515997  TIP3      7387            0.0000000000
     44412      7579  TIP3      H1              2.9533079074      -12.5379085850       59.8754911772  TIP3      7387            0.0000000000
     44413      7579  TIP3      H2              1.7375355762      -12.4726167492       60.7601194333  TIP3      7387            0.0000000000
     44414      7580  TIP3      OH2            12.6468664146       -9.4942994550       70.4804483107  TIP3      7388            0.0000000000
     44415      7580  TIP3      H1             12.9687093207      -10.1843176725       69.8626432560  TIP3      7388            0.0000000000
     44416      7580  TIP3      H2             12.1337863405      -10.0213911629       71.1205756539  TIP3      7388            0.0000000000
     44417      7581  TIP3      OH2             9.4162351079      -13.7037526948       65.2529289892  TIP3      7389            0.0000000000
     44418      7581  TIP3      H1              8.5219622091      -13.4765050915       65.5915092067  TIP3      7389            0.0000000000
     44419      7581  TIP3      H2              9.8648184558      -13.6266811836       66.1149701026  TIP3      7389            0.0000000000
     44420      7582  TIP3      OH2             4.1937837539      -11.9758460555       64.1585922502  TIP3      7390            0.0000000000
     44421      7582  TIP3      H1              3.3183632225      -11.8379462875       63.7436040718  TIP3      7390            0.0000000000
     44422      7582  TIP3      H2              4.5084385215      -12.8086270071       63.7683165516  TIP3      7390            0.0000000000
     44423      7583  TIP3      OH2             7.8486176916      -11.9174019652       61.7947887995  TIP3      7391            0.0000000000
     44424      7583  TIP3      H1              8.8043210343      -11.8146155093       61.9720496379  TIP3      7391            0.0000000000
     44425      7583  TIP3      H2              7.6213143540      -11.2400157093       61.1310787253  TIP3      7391            0.0000000000
     44426      7584  TIP3      OH2            13.8147191447      -14.3061730775       68.5411561082  TIP3      7392            0.0000000000
     44427      7584  TIP3      H1             13.1214942308      -14.2350216350       69.2360222502  TIP3      7392            0.0000000000
     44428      7584  TIP3      H2             13.2933901576      -14.5308107734       67.7549512644  TIP3      7392            0.0000000000
     44429      7585  TIP3      OH2             6.5630284721      -10.7511379217       59.3829011371  TIP3      7393            0.0000000000
     44430      7585  TIP3      H1              6.0280234822      -11.1412435911       58.6697674618  TIP3      7393            0.0000000000
     44431      7585  TIP3      H2              7.3825689542      -10.5488078386       58.9052442792  TIP3      7393            0.0000000000
     44432      7586  TIP3      OH2            17.0011919354        1.3499084020       74.8995004484  TIP3      7394            0.0000000000
     44433      7586  TIP3      H1             17.2787449616        1.7130366015       74.0377181143  TIP3      7394            0.0000000000
     44434      7586  TIP3      H2             17.7384385044        1.6515510275       75.4552033095  TIP3      7394            0.0000000000
     44435      7587  TIP3      OH2             4.7129879658       -6.2537659502       74.4797459748  TIP3      7395            0.0000000000
     44436      7587  TIP3      H1              5.4066417559       -5.9030040248       75.0541324752  TIP3      7395            0.0000000000
     44437      7587  TIP3      H2              3.9139286490       -6.0796014784       75.0192558658  TIP3      7395            0.0000000000
     44438      7588  TIP3      OH2            11.3519914155      -10.6077461888       67.2073606376  TIP3      7396            0.0000000000
     44439      7588  TIP3      H1             11.2801202824      -11.2864596582       66.5354238489  TIP3      7396            0.0000000000
     44440      7588  TIP3      H2             10.6862740977      -11.0060581096       67.8072593255  TIP3      7396            0.0000000000
     44441      7589  TIP3      OH2             5.6856432138      -14.6425697270       63.6185581342  TIP3      7397            0.0000000000
     44442      7589  TIP3      H1              5.3870862227      -15.5697733997       63.5882911347  TIP3      7397            0.0000000000
     44443      7589  TIP3      H2              6.4799575680      -14.6981231966       63.0687344341  TIP3      7397            0.0000000000
     44444      7590  TIP3      OH2             9.2767591866      -12.5901251936       70.1471702630  TIP3      7398            0.0000000000
     44445      7590  TIP3      H1              8.6501196933      -12.0123688522       69.6488280861  TIP3      7398            0.0000000000
     44446      7590  TIP3      H2              9.9821678521      -11.9854971425       70.4003914478  TIP3      7398            0.0000000000
     44447      7591  TIP3      OH2             9.9140640990       -6.2209820410       61.3012888189  TIP3      7399            0.0000000000
     44448      7591  TIP3      H1              9.1142572779       -6.6862409886       60.9660137895  TIP3      7399            0.0000000000
     44449      7591  TIP3      H2              9.6871066376       -6.0970137207       62.2458414829  TIP3      7399            0.0000000000
     44450      7592  TIP3      OH2            17.1053268588       -7.0143116740       70.1035210752  TIP3      7400            0.0000000000
     44451      7592  TIP3      H1             17.6643915025       -6.5341476723       69.4686867581  TIP3      7400            0.0000000000
     44452      7592  TIP3      H2             16.2423082910       -6.9746739393       69.6418645045  TIP3      7400            0.0000000000
     44453      7593  TIP3      OH2            13.7302004571      -13.4215513658       59.5173558675  TIP3      7401            0.0000000000
     44454      7593  TIP3      H1             12.7921072401      -13.2506490018       59.3241661202  TIP3      7401            0.0000000000
     44455      7593  TIP3      H2             14.0819341634      -12.5554296438       59.8163174507  TIP3      7401            0.0000000000
     44456      7594  TIP3      OH2            11.4248637495       -5.9615565179       72.5497457658  TIP3      7402            0.0000000000
     44457      7594  TIP3      H1             11.0515759587       -6.3845969880       73.3296000485  TIP3      7402            0.0000000000
     44458      7594  TIP3      H2             11.1523107212       -5.0385602694       72.6482322152  TIP3      7402            0.0000000000
     44459      7595  TIP3      OH2            14.4816745517      -11.4813223528       61.1029761723  TIP3      7403            0.0000000000
     44460      7595  TIP3      H1             15.3630068797      -11.6198546402       61.5104431606  TIP3      7403            0.0000000000
     44461      7595  TIP3      H2             14.5862948926      -10.6633571760       60.5900091870  TIP3      7403            0.0000000000
     44462      7596  TIP3      OH2             5.0306090910       -6.8386899893       67.1004347795  TIP3      7404            0.0000000000
     44463      7596  TIP3      H1              5.7169967113       -6.9265062575       66.4081820233  TIP3      7404            0.0000000000
     44464      7596  TIP3      H2              5.1031274632       -7.6908286327       67.5652993338  TIP3      7404            0.0000000000
     44465      7597  TIP3      OH2            12.0078906062       -4.7534960242       60.3326487173  TIP3      7405            0.0000000000
     44466      7597  TIP3      H1             11.6641453541       -3.9083998182       60.6897120975  TIP3      7405            0.0000000000
     44467      7597  TIP3      H2             11.2761481769       -5.3703561929       60.5515457378  TIP3      7405            0.0000000000
     44468      7598  TIP3      OH2             2.0093809892       -8.4255973083       72.3696809571  TIP3      7406            0.0000000000
     44469      7598  TIP3      H1              2.1846523653       -8.8693047502       73.2200729064  TIP3      7406            0.0000000000
     44470      7598  TIP3      H2              1.3940241061       -9.0360057094       71.9251487039  TIP3      7406            0.0000000000
     44471      7599  TIP3      OH2             9.0214555513       -8.8463139501       74.5656577702  TIP3      7407            0.0000000000
     44472      7599  TIP3      H1              8.7027791004       -9.1618968245       73.7000275557  TIP3      7407            0.0000000000
     44473      7599  TIP3      H2              9.9404892526       -9.1772547259       74.5462458789  TIP3      7407            0.0000000000
     44474      7600  TIP3      OH2            13.6985652904       -3.5270180823       72.4847927977  TIP3      7408            0.0000000000
     44475      7600  TIP3      H1             12.7706296967       -3.3444607493       72.2591491214  TIP3      7408            0.0000000000
     44476      7600  TIP3      H2             13.6761545585       -3.2391661375       73.4189844159  TIP3      7408            0.0000000000
     44477      7601  TIP3      OH2            19.3844596305      -11.3563444827       60.8788915399  TIP3      7409            0.0000000000
     44478      7601  TIP3      H1             18.8127721917      -11.6360972027       60.1393465229  TIP3      7409            0.0000000000
     44479      7601  TIP3      H2             19.4564782511      -10.4067504473       60.6304571227  TIP3      7409            0.0000000000
     44480      7602  TIP3      OH2            19.3708582327       -5.4926875966       73.6862968138  TIP3      7410            0.0000000000
     44481      7602  TIP3      H1             18.4719320805       -5.2713738549       73.3367075851  TIP3      7410            0.0000000000
     44482      7602  TIP3      H2             19.9115862233       -5.5363443849       72.8700262131  TIP3      7410            0.0000000000
     44483      7603  TIP3      OH2            17.6334029818       -2.5199963014       61.2738790063  TIP3      7411            0.0000000000
     44484      7603  TIP3      H1             17.3028883959       -3.3569569159       61.6238977369  TIP3      7411            0.0000000000
     44485      7603  TIP3      H2             17.9889263665       -2.7388226315       60.3969129474  TIP3      7411            0.0000000000
     44486      7604  TIP3      OH2            14.8772205131       -7.7035319847       68.3863866415  TIP3      7412            0.0000000000
     44487      7604  TIP3      H1             13.9365619729       -7.9164587328       68.2764591807  TIP3      7412            0.0000000000
     44488      7604  TIP3      H2             15.3075360765       -8.4640831812       67.9498574626  TIP3      7412            0.0000000000
     44489      7605  TIP3      OH2             7.3997286054       -3.3718637378       64.4838928061  TIP3      7413            0.0000000000
     44490      7605  TIP3      H1              7.8961669311       -2.5620908229       64.2808568906  TIP3      7413            0.0000000000
     44491      7605  TIP3      H2              6.5193617816       -3.1402021558       64.1582653752  TIP3      7413            0.0000000000
     44492      7606  TIP3      OH2             3.1637519137       -8.5334272681       59.0570736887  TIP3      7414            0.0000000000
     44493      7606  TIP3      H1              3.7422740287       -7.8676216988       59.4679296617  TIP3      7414            0.0000000000
     44494      7606  TIP3      H2              2.2734055147       -8.2202116405       59.3057197657  TIP3      7414            0.0000000000
     44495      7607  TIP3      OH2             8.8042171926       -5.7032117372       63.9906438493  TIP3      7415            0.0000000000
     44496      7607  TIP3      H1              8.4967553595       -4.7831375232       64.0967972179  TIP3      7415            0.0000000000
     44497      7607  TIP3      H2              8.0859574781       -6.1906077525       64.4389910940  TIP3      7415            0.0000000000
     44498      7608  TIP3      OH2             9.5362797058       -1.5885834861       70.2153347332  TIP3      7416            0.0000000000
     44499      7608  TIP3      H1              9.7477404474       -0.6530049810       70.1528498274  TIP3      7416            0.0000000000
     44500      7608  TIP3      H2              9.8701520284       -1.8384969203       71.0970627455  TIP3      7416            0.0000000000
     44501      7609  TIP3      OH2             7.4893471832       -0.7170283748       63.5271138551  TIP3      7417            0.0000000000
     44502      7609  TIP3      H1              6.5246165304       -0.5750951121       63.6651319747  TIP3      7417            0.0000000000
     44503      7609  TIP3      H2              7.8535878253        0.1179491000       63.8735912080  TIP3      7417            0.0000000000
     44504      7610  TIP3      OH2            12.7862390982       -5.5170258638       70.0386057653  TIP3      7418            0.0000000000
     44505      7610  TIP3      H1             12.4603072824       -5.7212022659       70.9399156083  TIP3      7418            0.0000000000
     44506      7610  TIP3      H2             13.4276105590       -6.2282124833       69.8667106840  TIP3      7418            0.0000000000
     44507      7611  TIP3      OH2            15.1261051399       -4.4464574066       59.1219687407  TIP3      7419            0.0000000000
     44508      7611  TIP3      H1             15.4200640437       -4.9222552901       59.9251115226  TIP3      7419            0.0000000000
     44509      7611  TIP3      H2             14.1725764171       -4.6326336439       59.2021966457  TIP3      7419            0.0000000000
     44510      7612  TIP3      OH2            15.6074509924       -0.9442315714       72.5219203165  TIP3      7420            0.0000000000
     44511      7612  TIP3      H1             14.9121652394       -1.4368481238       72.0430564117  TIP3      7420            0.0000000000
     44512      7612  TIP3      H2             15.7863025401       -0.2429461396       71.8588063014  TIP3      7420            0.0000000000
     44513      7613  TIP3      OH2            19.5862890363       -0.0961864655       59.3770262597  TIP3      7421            0.0000000000
     44514      7613  TIP3      H1             20.2736777838        0.5689196740       59.1717521569  TIP3      7421            0.0000000000
     44515      7613  TIP3      H2             18.8684901356        0.5155190533       59.6578998745  TIP3      7421            0.0000000000
     44516      7614  TIP3      OH2             3.6586668214      -13.6937608050       71.9202494710  TIP3      7422            0.0000000000
     44517      7614  TIP3      H1              2.7517491871      -13.3407917667       71.8931625615  TIP3      7422            0.0000000000
     44518      7614  TIP3      H2              3.5473756314      -14.5413947850       72.3763787840  TIP3      7422            0.0000000000
     44519      7615  TIP3      OH2            15.8994531754       -5.8153462544       61.3638436534  TIP3      7423            0.0000000000
     44520      7615  TIP3      H1             15.6609822952       -6.6018922716       61.9016861266  TIP3      7423            0.0000000000
     44521      7615  TIP3      H2             16.8519346269       -5.7720320812       61.5421748480  TIP3      7423            0.0000000000
     44522      7616  TIP3      OH2             2.3299168919       -1.9281447426       70.0426414267  TIP3      7424            0.0000000000
     44523      7616  TIP3      H1              3.0825424835       -2.5594631372       70.1043560693  TIP3      7424            0.0000000000
     44524      7616  TIP3      H2              2.7504166476       -1.5082875746       70.8361467401  TIP3      7424            0.0000000000
     44525      7617  TIP3      OH2             9.2524482009       -3.3777369076       57.6180530391  TIP3      7425            0.0000000000
     44526      7617  TIP3      H1              9.3512581470       -4.1413408835       57.0268121858  TIP3      7425            0.0000000000
     44527      7617  TIP3      H2              8.8101503219       -3.8086659503       58.3819124251  TIP3      7425            0.0000000000
     44528      7618  TIP3      OH2             8.0234142814       -3.8505290448       60.0703188872  TIP3      7426            0.0000000000
     44529      7618  TIP3      H1              8.2943488282       -4.3655694046       60.8398838766  TIP3      7426            0.0000000000
     44530      7618  TIP3      H2              8.1160451242       -2.9246117575       60.3932595361  TIP3      7426            0.0000000000
     44531      7619  TIP3      OH2             4.5670283555       -6.6051063478       60.5543406855  TIP3      7427            0.0000000000
     44532      7619  TIP3      H1              3.8528409846       -6.2094742098       61.0930864269  TIP3      7427            0.0000000000
     44533      7619  TIP3      H2              5.0724348994       -5.8249920213       60.2614248102  TIP3      7427            0.0000000000
     44534      7620  TIP3      OH2            12.4227961347      -13.9204800694       70.8808311775  TIP3      7428            0.0000000000
     44535      7620  TIP3      H1             13.1205518256      -13.8688049416       71.5387304904  TIP3      7428            0.0000000000
     44536      7620  TIP3      H2             12.0001452479      -14.7804426442       71.0735309558  TIP3      7428            0.0000000000
     44537      7621  TIP3      OH2            13.1348392654      -14.3522012283       61.9660088366  TIP3      7429            0.0000000000
     44538      7621  TIP3      H1             13.3659674854      -13.8890575170       61.1348404003  TIP3      7429            0.0000000000
     44539      7621  TIP3      H2             13.7171912973      -13.9063814808       62.5962892335  TIP3      7429            0.0000000000
     44540      7622  TIP3      OH2            10.8293529084       -2.1883157960       60.7650451158  TIP3      7430            0.0000000000
     44541      7622  TIP3      H1             10.0113168988       -1.6557326968       60.8375939800  TIP3      7430            0.0000000000
     44542      7622  TIP3      H2             11.3681751336       -1.6376181515       60.1788227066  TIP3      7430            0.0000000000
     44543      7623  TIP3      OH2            10.3740990718      -12.5951717126       62.7680383337  TIP3      7431            0.0000000000
     44544      7623  TIP3      H1             11.1499713628      -12.0072198880       62.8413022637  TIP3      7431            0.0000000000
     44545      7623  TIP3      H2             10.0943784266      -12.7272086837       63.6951137392  TIP3      7431            0.0000000000
     44546      7624  TIP3      OH2            10.9659998426      -11.5194299730       71.9778876254  TIP3      7432            0.0000000000
     44547      7624  TIP3      H1             11.0159359626      -11.0048649214       72.7991792480  TIP3      7432            0.0000000000
     44548      7624  TIP3      H2             11.5735922934      -12.2665768479       72.0638235145  TIP3      7432            0.0000000000
     44549      7625  TIP3      OH2            11.2238604143      -15.5301772708       63.6720028256  TIP3      7433            0.0000000000
     44550      7625  TIP3      H1             10.8860041902      -14.8734262941       64.3126533476  TIP3      7433            0.0000000000
     44551      7625  TIP3      H2             11.9158025648      -14.9883197315       63.2207203969  TIP3      7433            0.0000000000
     44552      7626  TIP3      OH2             8.2316177840       -1.1537066417       60.7960859317  TIP3      7434            0.0000000000
     44553      7626  TIP3      H1              8.3228000440       -0.3389823550       60.2448485084  TIP3      7434            0.0000000000
     44554      7626  TIP3      H2              7.9567333501       -0.7893722808       61.6659729707  TIP3      7434            0.0000000000
     44555      7627  TIP3      OH2             6.8832221838      -14.3635690314       60.3913092064  TIP3      7435            0.0000000000
     44556      7627  TIP3      H1              6.8460327047      -13.4835017794       60.7817929328  TIP3      7435            0.0000000000
     44557      7627  TIP3      H2              7.7771568524      -14.6757855852       60.6258184938  TIP3      7435            0.0000000000
     44558      7628  TIP3      OH2            17.1067349554      -13.6990965254       72.8179824865  TIP3      7436            0.0000000000
     44559      7628  TIP3      H1             16.1772189742      -13.3841449866       72.6909279740  TIP3      7436            0.0000000000
     44560      7628  TIP3      H2             17.4003374513      -13.7140973120       71.8925641415  TIP3      7436            0.0000000000
     44561      7629  TIP3      OH2            15.7247441658       -9.9067819259       66.8257110955  TIP3      7437            0.0000000000
     44562      7629  TIP3      H1             14.8967905994      -10.3542905249       66.5475704511  TIP3      7437            0.0000000000
     44563      7629  TIP3      H2             16.1931171638      -10.6009869271       67.3410430676  TIP3      7437            0.0000000000
     44564      7630  TIP3      OH2             5.1087211711       -3.9910116747       59.4147701940  TIP3      7438            0.0000000000
     44565      7630  TIP3      H1              5.7759763840       -3.3639455605       59.7316095146  TIP3      7438            0.0000000000
     44566      7630  TIP3      H2              5.6325578961       -4.4556660253       58.7312878486  TIP3      7438            0.0000000000
     44567      7631  TIP3      OH2             3.4540517380      -11.3172234183       58.5597260121  TIP3      7439            0.0000000000
     44568      7631  TIP3      H1              3.4726487429      -10.3606175833       58.7684194382  TIP3      7439            0.0000000000
     44569      7631  TIP3      H2              2.5629969243      -11.4930040289       58.2522848204  TIP3      7439            0.0000000000
     44570      7632  TIP3      OH2            16.7703030856       -0.6496885016       68.4974325228  TIP3      7440            0.0000000000
     44571      7632  TIP3      H1             16.6892621252        0.0274167679       67.7984468230  TIP3      7440            0.0000000000
     44572      7632  TIP3      H2             17.7287088586       -0.5979342666       68.6845147826  TIP3      7440            0.0000000000
     44573      7633  TIP3      OH2             4.2684252637      -16.5304710219       67.3037645004  TIP3      7441            0.0000000000
     44574      7633  TIP3      H1              4.0768538328      -16.5161139109       66.3395175684  TIP3      7441            0.0000000000
     44575      7633  TIP3      H2              3.8576532165      -17.3846836932       67.5546254053  TIP3      7441            0.0000000000
     44576      7634  TIP3      OH2             3.2255369531       -2.6112781739       63.4493198745  TIP3      7442            0.0000000000
     44577      7634  TIP3      H1              2.3728565823       -2.1609155606       63.4039415493  TIP3      7442            0.0000000000
     44578      7634  TIP3      H2              3.7025381974       -2.1454831581       62.7496535572  TIP3      7442            0.0000000000
     44579      7635  TIP3      OH2             2.4074395534        0.0582917918       74.7486599916  TIP3      7443            0.0000000000
     44580      7635  TIP3      H1              3.0280129712       -0.1572646599       75.4734977154  TIP3      7443            0.0000000000
     44581      7635  TIP3      H2              2.0282266224       -0.8153513184       74.5430506547  TIP3      7443            0.0000000000
     44582      7636  TIP3      OH2             7.1038017998       -1.0862685501       76.3642496199  TIP3      7444            0.0000000000
     44583      7636  TIP3      H1              7.8943045382       -1.5531677070       76.6608264282  TIP3      7444            0.0000000000
     44584      7636  TIP3      H2              7.0600519011       -1.3303348421       75.4101551217  TIP3      7444            0.0000000000
     44585      7637  TIP3      OH2            11.2464299483       -1.5272601016       57.7416673860  TIP3      7445            0.0000000000
     44586      7637  TIP3      H1             10.5535468248       -2.1865052485       57.9689932803  TIP3      7445            0.0000000000
     44587      7637  TIP3      H2             11.9644879852       -2.1258554646       57.4933861880  TIP3      7445            0.0000000000
     44588      7638  TIP3      OH2            13.6057086249       -2.6589134279       75.0616379444  TIP3      7446            0.0000000000
     44589      7638  TIP3      H1             13.2889157214       -3.5375906092       75.3591379347  TIP3      7446            0.0000000000
     44590      7638  TIP3      H2             14.3880599602       -2.5341134633       75.6327631003  TIP3      7446            0.0000000000
     44591      7639  TIP3      OH2            15.8053585196       -1.7840245930       57.9273383878  TIP3      7447            0.0000000000
     44592      7639  TIP3      H1             16.1002900237       -2.5592249259       58.4309333429  TIP3      7447            0.0000000000
     44593      7639  TIP3      H2             16.5666117409       -1.5582027260       57.3756161830  TIP3      7447            0.0000000000
     44594      7640  TIP3      OH2             2.3313715696       -6.2077483509       75.7108157861  TIP3      7448            0.0000000000
     44595      7640  TIP3      H1              2.5183675726       -7.1111077391       75.3923061688  TIP3      7448            0.0000000000
     44596      7640  TIP3      H2              1.6029516666       -5.9388596276       75.1278307851  TIP3      7448            0.0000000000
     44597      7641  TIP3      OH2             6.6920218211       -5.8419959569       57.7458135596  TIP3      7449            0.0000000000
     44598      7641  TIP3      H1              6.8310180739       -6.6034266135       58.3296454459  TIP3      7449            0.0000000000
     44599      7641  TIP3      H2              7.4401791223       -5.9614786582       57.1283275904  TIP3      7449            0.0000000000
     44600      7642  TIP3      OH2             9.0537355667       -6.2110300946       75.1106700630  TIP3      7450            0.0000000000
     44601      7642  TIP3      H1              8.7208642942       -5.8863681198       74.2509559080  TIP3      7450            0.0000000000
     44602      7642  TIP3      H2              9.1255708288       -7.1859099461       74.9942460028  TIP3      7450            0.0000000000
     44603      7643  TIP3      OH2            12.1218625460       -4.7332608150       57.5238650201  TIP3      7451            0.0000000000
     44604      7643  TIP3      H1             11.8518367491       -4.6522693139       58.4521554725  TIP3      7451            0.0000000000
     44605      7643  TIP3      H2             11.9328187258       -5.6910768422       57.3795104496  TIP3      7451            0.0000000000
     44606      7644  TIP3      OH2            14.7515237297       -6.3438274366       72.5046193349  TIP3      7452            0.0000000000
     44607      7644  TIP3      H1             15.5401115162       -5.7600445576       72.4439161422  TIP3      7452            0.0000000000
     44608      7644  TIP3      H2             14.0556324571       -5.6708852168       72.5442251040  TIP3      7452            0.0000000000
     44609      7645  TIP3      OH2             3.2354481210       -8.9643047002       75.1053037431  TIP3      7453            0.0000000000
     44610      7645  TIP3      H1              3.6764649175       -9.8143547992       75.0109404068  TIP3      7453            0.0000000000
     44611      7645  TIP3      H2              3.0387365768       -8.9458722062       76.0598432105  TIP3      7453            0.0000000000
     44612      7646  TIP3      OH2             7.8942591350       -7.8188022705       60.1617574629  TIP3      7454            0.0000000000
     44613      7646  TIP3      H1              7.3955048916       -8.3608993598       60.7946710534  TIP3      7454            0.0000000000
     44614      7646  TIP3      H2              8.1952517152       -8.4983251920       59.5151801457  TIP3      7454            0.0000000000
     44615      7647  TIP3      OH2             7.1659587134      -10.0011969617       72.4912854719  TIP3      7455            0.0000000000
     44616      7647  TIP3      H1              6.5541638672       -9.2824935131       72.7212811798  TIP3      7455            0.0000000000
     44617      7647  TIP3      H2              7.5412526957       -9.6638934683       71.6550585664  TIP3      7455            0.0000000000
     44618      7648  TIP3      OH2             8.9706376659       -9.6009441210       58.3739414982  TIP3      7456            0.0000000000
     44619      7648  TIP3      H1              8.8199306244       -9.6930753991       57.4109033959  TIP3      7456            0.0000000000
     44620      7648  TIP3      H2              9.9470428417       -9.5513904364       58.4389724568  TIP3      7456            0.0000000000
     44621      7649  TIP3      OH2            12.2271531401       -7.4342279572       75.8420997955  TIP3      7457            0.0000000000
     44622      7649  TIP3      H1             13.1771603241       -7.4745448010       75.6551166838  TIP3      7457            0.0000000000
     44623      7649  TIP3      H2             12.0636715631       -8.2187377398       76.3880791960  TIP3      7457            0.0000000000
     44624      7650  TIP3      OH2            18.3000298481       -7.2833930322       57.7835616652  TIP3      7458            0.0000000000
     44625      7650  TIP3      H1             18.1071872319       -7.6635309017       56.9131587917  TIP3      7458            0.0000000000
     44626      7650  TIP3      H2             18.3877409485       -6.3204151055       57.5976968232  TIP3      7458            0.0000000000
     44627      7651  TIP3      OH2             7.5761814726      -12.6241027116       73.4793539673  TIP3      7459            0.0000000000
     44628      7651  TIP3      H1              7.6938068972      -13.3432066424       72.8323051187  TIP3      7459            0.0000000000
     44629      7651  TIP3      H2              7.5408637553      -11.8220776476       72.9207203407  TIP3      7459            0.0000000000
     44630      7652  TIP3      OH2             7.8801510614      -14.4312080775       71.0788560198  TIP3      7460            0.0000000000
     44631      7652  TIP3      H1              8.4337345667      -13.8542591167       70.4728871167  TIP3      7460            0.0000000000
     44632      7652  TIP3      H2              7.0150038451      -14.3435002918       70.6384312634  TIP3      7460            0.0000000000
     44633      7653  TIP3      OH2             9.5306697524       -8.7370771204       71.3484751581  TIP3      7461            0.0000000000
     44634      7653  TIP3      H1             10.2404944397       -8.9517393983       70.7318001678  TIP3      7461            0.0000000000
     44635      7653  TIP3      H2              9.1305734810       -7.9372449337       70.9685411909  TIP3      7461            0.0000000000
     44636      7654  TIP3      OH2            13.8852676131      -11.0301569593       76.2553823958  TIP3      7462            0.0000000000
     44637      7654  TIP3      H1             14.1301222339      -11.9648243882       76.1922184644  TIP3      7462            0.0000000000
     44638      7654  TIP3      H2             14.7504441582      -10.5895287530       76.3052194568  TIP3      7462            0.0000000000
     44639      7655  TIP3      OH2            15.2673490281       -8.1963171978       74.4690167694  TIP3      7463            0.0000000000
     44640      7655  TIP3      H1             15.0000458680       -7.5049078656       73.8229217186  TIP3      7463            0.0000000000
     44641      7655  TIP3      H2             16.2192410489       -8.2577230426       74.2458194682  TIP3      7463            0.0000000000
     44642      7656  TIP3      OH2             6.0547164554      -11.3975618127       75.4615629780  TIP3      7464            0.0000000000
     44643      7656  TIP3      H1              5.2648120057      -11.9468698480       75.2629135636  TIP3      7464            0.0000000000
     44644      7656  TIP3      H2              6.6791768025      -11.7521286794       74.7980501225  TIP3      7464            0.0000000000
     44645      7657  TIP3      OH2             8.7538879052      -16.8328472246       71.4764616574  TIP3      7465            0.0000000000
     44646      7657  TIP3      H1              8.5768508085      -15.8626475183       71.3486829868  TIP3      7465            0.0000000000
     44647      7657  TIP3      H2              8.0079061836      -17.1879026947       70.9643394767  TIP3      7465            0.0000000000
     44648      7658  TIP3      OH2            10.0408001517      -12.4928481583       75.0774539784  TIP3      7466            0.0000000000
     44649      7658  TIP3      H1              9.7121809134      -12.7096026522       75.9716637209  TIP3      7466            0.0000000000
     44650      7658  TIP3      H2              9.2600843214      -12.6872589144       74.5228883359  TIP3      7466            0.0000000000
     44651      7659  TIP3      OH2            12.7469476962      -13.3562354171       74.1621878425  TIP3      7467            0.0000000000
     44652      7659  TIP3      H1             11.7858343714      -13.2925436433       74.2949840225  TIP3      7467            0.0000000000
     44653      7659  TIP3      H2             13.0127389028      -13.9931564869       74.8553367271  TIP3      7467            0.0000000000
     44654      7660  TIP3      OH2            14.2837082179      -14.7216885993       76.0808486149  TIP3      7468            0.0000000000
     44655      7660  TIP3      H1             14.2856263474      -15.7012704211       76.0994094806  TIP3      7468            0.0000000000
     44656      7660  TIP3      H2             14.0634073693      -14.4410843703       76.9975764064  TIP3      7468            0.0000000000
     44657      7661  TIP3      OH2             4.1214156598      -13.4497141027       75.1971650035  TIP3      7469            0.0000000000
     44658      7661  TIP3      H1              4.3576383014      -14.1891055485       74.6110474384  TIP3      7469            0.0000000000
     44659      7661  TIP3      H2              4.0214753561      -13.8982468991       76.0612911531  TIP3      7469            0.0000000000
     44660      7662  TIP3      OH2             8.9758884126      -17.4297138911       74.1637120317  TIP3      7470            0.0000000000
     44661      7662  TIP3      H1              9.6589472438      -18.1303879377       74.1338675852  TIP3      7470            0.0000000000
     44662      7662  TIP3      H2              8.8745060587      -17.2568314938       73.2073493623  TIP3      7470            0.0000000000
     44663      7663  TIP3      OH2             9.3112587160      -15.8356275041       76.2703996530  TIP3      7471            0.0000000000
     44664      7663  TIP3      H1              9.1607511135      -16.3318096855       75.4253963983  TIP3      7471            0.0000000000
     44665      7663  TIP3      H2              8.7510155074      -15.0452799404       76.1550325313  TIP3      7471            0.0000000000
     44666      7664  TIP3      OH2             8.8009874436        1.1007025994       59.4533898927  TIP3      7472            0.0000000000
     44667      7664  TIP3      H1              9.7678886236        1.1844879005       59.5200161092  TIP3      7472            0.0000000000
     44668      7664  TIP3      H2              8.6548477402        1.7013747758       58.7127595666  TIP3      7472            0.0000000000
     44669      7665  TIP3      OH2             2.3538292021       -4.3282611009       58.9209325384  TIP3      7473            0.0000000000
     44670      7665  TIP3      H1              3.3209196441       -4.2335810581       59.1010870141  TIP3      7473            0.0000000000
     44671      7665  TIP3      H2              2.4045005640       -4.9714402218       58.1742592356  TIP3      7473            0.0000000000
     44672      7666  TIP3      OH2             1.1354017571        1.0590758686       63.8824005951  TIP3      7474            0.0000000000
     44673      7666  TIP3      H1              0.4148083072        0.5721753083       63.4240741947  TIP3      7474            0.0000000000
     44674      7666  TIP3      H2              1.4163000220        0.4085375820       64.5505210616  TIP3      7474            0.0000000000
     44675      7667  TIP3      OH2             1.9686187023       -0.8026116827       65.7764481556  TIP3      7475            0.0000000000
     44676      7667  TIP3      H1              1.6076948750       -1.6837614965       65.9602029160  TIP3      7475            0.0000000000
     44677      7667  TIP3      H2              2.2005443435       -0.4898373024       66.6681527522  TIP3      7475            0.0000000000
     44678      7668  TIP3      OH2            19.5361497392       -0.0366179878       68.6858029352  TIP3      7476            0.0000000000
     44679      7668  TIP3      H1             19.5141183546        0.1443726558       69.6447601375  TIP3      7476            0.0000000000
     44680      7668  TIP3      H2             20.1878524301        0.6116806248       68.4055253221  TIP3      7476            0.0000000000
     44681      7669  TIP3      OH2            19.0736928183       -0.4166750607       71.6333121880  TIP3      7477            0.0000000000
     44682      7669  TIP3      H1             18.6006492874       -1.1846389268       71.2557458800  TIP3      7477            0.0000000000
     44683      7669  TIP3      H2             19.5577318726       -0.8605925667       72.3488962653  TIP3      7477            0.0000000000
     44684      7670  TIP3      OH2            17.5258215509       -4.7049485844       76.3201297406  TIP3      7478            0.0000000000
     44685      7670  TIP3      H1             16.6168160723       -4.7200261846       76.6827845744  TIP3      7478            0.0000000000
     44686      7670  TIP3      H2             17.8904914668       -3.9087037670       76.7628085150  TIP3      7478            0.0000000000
     44687      7671  TIP3      OH2            18.8326359762       -6.3622508390       61.7379608982  TIP3      7479            0.0000000000
     44688      7671  TIP3      H1             19.6996365359       -5.9731427208       61.9260461298  TIP3      7479            0.0000000000
     44689      7671  TIP3      H2             18.8148492870       -7.0813801629       62.4075338742  TIP3      7479            0.0000000000
     44690      7672  TIP3      OH2            19.1928743019       -8.2843145003       63.6317759380  TIP3      7480            0.0000000000
     44691      7672  TIP3      H1             18.4412622244       -8.7874149535       64.0192706885  TIP3      7480            0.0000000000
     44692      7672  TIP3      H2             19.7901272743       -8.1559906792       64.3956862609  TIP3      7480            0.0000000000
     44693      7673  TIP3      OH2            18.9518198818       -5.5921047664       68.6066226946  TIP3      7481            0.0000000000
     44694      7673  TIP3      H1             19.7612154413       -5.9847654691       68.2343305780  TIP3      7481            0.0000000000
     44695      7673  TIP3      H2             19.0813588848       -4.6422110978       68.4393085245  TIP3      7481            0.0000000000
     44696      7674  TIP3      OH2            17.5081383997       -2.6866768008       70.8770373336  TIP3      7482            0.0000000000
     44697      7674  TIP3      H1             16.8185659750       -2.3451026723       71.4693086977  TIP3      7482            0.0000000000
     44698      7674  TIP3      H2             16.9547143051       -3.0916456450       70.1758385854  TIP3      7482            0.0000000000
     44699      7675  TIP3      OH2            19.4921462331       -8.4637493355       60.0190432158  TIP3      7483            0.0000000000
     44700      7675  TIP3      H1             18.9256236747       -8.1228344773       59.2949121401  TIP3      7483            0.0000000000
     44701      7675  TIP3      H2             19.3925763594       -7.7507600702       60.6771586887  TIP3      7483            0.0000000000
     44702      7676  TIP3      OH2            17.8861010456      -11.2364491686       58.5447399434  TIP3      7484            0.0000000000
     44703      7676  TIP3      H1             17.9430091744      -10.5709880370       57.8471222188  TIP3      7484            0.0000000000
     44704      7676  TIP3      H2             17.6813761888      -12.0530934830       58.0451739185  TIP3      7484            0.0000000000
     44705      7677  TIP3      OH2            17.0116750453       -9.8145966194       64.2012271739  TIP3      7485            0.0000000000
     44706      7677  TIP3      H1             16.8653671360      -10.7692125698       64.1569714310  TIP3      7485            0.0000000000
     44707      7677  TIP3      H2             16.6635925525       -9.6064957361       65.0895357999  TIP3      7485            0.0000000000
     44708      7678  TIP3      OH2             2.0172626855       -7.7246632535       68.2559411224  TIP3      7486            0.0000000000
     44709      7678  TIP3      H1              2.1963385266       -7.8102218856       67.2929548893  TIP3      7486            0.0000000000
     44710      7678  TIP3      H2              2.9101387408       -7.9062607322       68.6118718604  TIP3      7486            0.0000000000
     44711      7679  TIP3      OH2            17.8752527208       -7.8463716210       73.9053888451  TIP3      7487            0.0000000000
     44712      7679  TIP3      H1             18.4873268566       -8.6058176949       74.0126314634  TIP3      7487            0.0000000000
     44713      7679  TIP3      H2             18.4799609217       -7.0752763344       73.8816456759  TIP3      7487            0.0000000000
     44714      7680  TIP3      OH2            19.3618449065       -9.9628944153       74.5528384972  TIP3      7488            0.0000000000
     44715      7680  TIP3      H1             18.4893675677      -10.3691352291       74.3625804553  TIP3      7488            0.0000000000
     44716      7680  TIP3      H2             19.9423131699      -10.7378998154       74.4664099757  TIP3      7488            0.0000000000
     44717      7681  TIP3      OH2            17.1175721969      -13.7586413569       57.6703374143  TIP3      7489            0.0000000000
     44718      7681  TIP3      H1             17.7039468979      -14.2020339553       58.3112526279  TIP3      7489            0.0000000000
     44719      7681  TIP3      H2             16.2510514811      -14.1774717749       57.8175017337  TIP3      7489            0.0000000000
     44720      7682  TIP3      OH2            16.6641894821      -12.2353652134       62.6256396974  TIP3      7490            0.0000000000
     44721      7682  TIP3      H1             16.9774225394      -13.1576751445       62.7751709864  TIP3      7490            0.0000000000
     44722      7682  TIP3      H2             17.4806350450      -11.8263297634       62.3075449490  TIP3      7490            0.0000000000
     44723      7683  TIP3      OH2            17.3205828423      -11.6901425959       68.0989153764  TIP3      7491            0.0000000000
     44724      7683  TIP3      H1             18.2801309416      -11.4569235621       68.0813970120  TIP3      7491            0.0000000000
     44725      7683  TIP3      H2             17.1313346186      -11.5469272849       69.0382558874  TIP3      7491            0.0000000000
     44726      7684  TIP3      OH2            17.3861443750      -10.9686055873       70.8712701889  TIP3      7492            0.0000000000
     44727      7684  TIP3      H1             16.5039892212      -10.6806754231       71.1935558860  TIP3      7492            0.0000000000
     44728      7684  TIP3      H2             17.8195844858      -10.1086716182       70.6561844839  TIP3      7492            0.0000000000
     44729      7685  TIP3      OH2             1.6419036128      -12.4426828397       74.3879597147  TIP3      7493            0.0000000000
     44730      7685  TIP3      H1              2.5754141678      -12.6407983839       74.6035880061  TIP3      7493            0.0000000000
     44731      7685  TIP3      H2              1.1810582816      -13.2546027195       74.6944198318  TIP3      7493            0.0000000000
     44732      7686  TIP3      OH2            19.6470978863      -16.8953572517       76.2181511339  TIP3      7494            0.0000000000
     44733      7686  TIP3      H1             20.0015651752      -17.5676623407       75.6111066783  TIP3      7494            0.0000000000
     44734      7686  TIP3      H2             19.7650555985      -16.0805065261       75.6989126070  TIP3      7494            0.0000000000
     44735      7687  TIP3      OH2            17.3549459392      -14.9437696059       62.7007240964  TIP3      7495            0.0000000000
     44736      7687  TIP3      H1             17.5660576521      -15.3798497869       63.5541580564  TIP3      7495            0.0000000000
     44737      7687  TIP3      H2             16.7535579529      -15.5830872522       62.2639086110  TIP3      7495            0.0000000000
     44738      7688  TIP3      OH2             2.8381770881      -14.1338131558       67.2653351175  TIP3      7496            0.0000000000
     44739      7688  TIP3      H1              3.2960618862      -14.9636407352       67.5164088928  TIP3      7496            0.0000000000
     44740      7688  TIP3      H2              3.4072679010      -13.4457856643       67.6379219419  TIP3      7496            0.0000000000
     44741      7689  TIP3      OH2             1.1153784180      -11.1365057633       68.2969071902  TIP3      7497            0.0000000000
     44742      7689  TIP3      H1              1.6813636098      -11.3872322167       67.5369153625  TIP3      7497            0.0000000000
     44743      7689  TIP3      H2              1.5848683353      -10.3338419693       68.5659682086  TIP3      7497            0.0000000000
     44744      7690  TIP3      OH2            19.1768793162      -14.8014464741       74.5720885640  TIP3      7498            0.0000000000
     44745      7690  TIP3      H1             18.2383831935      -14.5325521655       74.5207030544  TIP3      7498            0.0000000000
     44746      7690  TIP3      H2             19.2093689713      -15.3543072876       73.7765284284  TIP3      7498            0.0000000000
     44747      7691  TIP3      OH2            19.1676012388      -14.9094785768       59.2549167790  TIP3      7499            0.0000000000
     44748      7691  TIP3      H1             19.5800115077      -15.6223448976       58.7172553632  TIP3      7499            0.0000000000
     44749      7691  TIP3      H2             19.8734111215      -14.2479970719       59.3055560687  TIP3      7499            0.0000000000
     44750      7692  TIP3      OH2             1.4932510275      -14.8669047383       62.3756106153  TIP3      7500            0.0000000000
     44751      7692  TIP3      H1              0.5490973718      -14.6949870822       62.2215771767  TIP3      7500            0.0000000000
     44752      7692  TIP3      H2              1.9157221819      -14.3970940936       61.6351014690  TIP3      7500            0.0000000000
     44753      7693  TIP3      OH2            16.2221787718        0.0770799730       64.3221921521  TIP3      7501            0.0000000000
     44754      7693  TIP3      H1             16.9060111466       -0.2303792626       63.7014625375  TIP3      7501            0.0000000000
     44755      7693  TIP3      H2             16.7389144171        0.5752574326       64.9729218157  TIP3      7501            0.0000000000
     44756      7694  TIP3      OH2             1.4308693281      -16.2289311459       70.6617492982  TIP3      7502            0.0000000000
     44757      7694  TIP3      H1              0.7647695129      -16.4166888041       71.3456132195  TIP3      7502            0.0000000000
     44758      7694  TIP3      H2              0.9753837063      -15.5499652687       70.1241526205  TIP3      7502            0.0000000000
     44759      7695  TIP3      OH2             3.6563241143       -3.0591774304       74.8751855045  TIP3      7503            0.0000000000
     44760      7695  TIP3      H1              2.8666516176       -2.7934495653       74.3790056679  TIP3      7503            0.0000000000
     44761      7695  TIP3      H2              3.3571820422       -3.0756652303       75.7809007356  TIP3      7503            0.0000000000
     44762      7696  TIP3      OH2             7.3110581138       -1.8551940290       71.3414064063  TIP3      7504            0.0000000000
     44763      7696  TIP3      H1              6.4619062702       -1.4530782959       71.0245238995  TIP3      7504            0.0000000000
     44764      7696  TIP3      H2              7.8500537810       -1.8630871884       70.5480805193  TIP3      7504            0.0000000000
     44765      7697  TIP3      OH2            10.8807218234       -0.6008150877       74.0113180312  TIP3      7505            0.0000000000
     44766      7697  TIP3      H1             11.0170519401       -0.9468879284       74.9235298948  TIP3      7505            0.0000000000
     44767      7697  TIP3      H2             11.7798583129       -0.3006477626       73.7726827325  TIP3      7505            0.0000000000
     44768      7698  TIP3      OH2            13.1762794646        0.6736689409       73.3219542826  TIP3      7506            0.0000000000
     44769      7698  TIP3      H1             13.9128670336        0.0950471153       73.0815560327  TIP3      7506            0.0000000000
     44770      7698  TIP3      H2             13.5524267824        1.1106327894       74.1155453167  TIP3      7506            0.0000000000
     44771      7699  TIP3      OH2            18.1969172772      -16.7157274902       72.4309919172  TIP3      7507            0.0000000000
     44772      7699  TIP3      H1             17.3700540663      -16.4148463172       72.0169230016  TIP3      7507            0.0000000000
     44773      7699  TIP3      H2             18.3665546959      -17.5358998341       71.9101508843  TIP3      7507            0.0000000000
     44774      7700  TIP3      OH2             4.0126583117        1.2693048478       71.1013496813  TIP3      7508            0.0000000000
     44775      7700  TIP3      H1              3.2469321927        1.7044146874       70.7098484190  TIP3      7508            0.0000000000
     44776      7700  TIP3      H2              3.7075311599        0.9731958143       71.9792886512  TIP3      7508            0.0000000000
     44777      7701  TIP3      OH2             6.5018837591        0.8570138027       70.1728846903  TIP3      7509            0.0000000000
     44778      7701  TIP3      H1              5.5980185824        0.9028747701       70.5728350900  TIP3      7509            0.0000000000
     44779      7701  TIP3      H2              6.3822187717        1.3986520737       69.3835150178  TIP3      7509            0.0000000000
     44780      7702  TIP3      OH2            11.1779486416        0.7162560094       69.3359152047  TIP3      7510            0.0000000000
     44781      7702  TIP3      H1             10.7082023683        1.2683597486       68.6944554603  TIP3      7510            0.0000000000
     44782      7702  TIP3      H2             11.3029768703        1.3412997764       70.0798052270  TIP3      7510            0.0000000000
     44783      7703  TIP3      OH2            13.4416795994       -0.4878944162       70.3791609948  TIP3      7511            0.0000000000
     44784      7703  TIP3      H1             12.5865182811       -0.2129127477       70.0072812866  TIP3      7511            0.0000000000
     44785      7703  TIP3      H2             13.9349238359        0.3439337294       70.2781515755  TIP3      7511            0.0000000000
     44786      7704  TIP3      OH2            16.0376298157        1.0855454119       70.5939804308  TIP3      7512            0.0000000000
     44787      7704  TIP3      H1             15.9870347864        2.0461679099       70.3668045116  TIP3      7512            0.0000000000
     44788      7704  TIP3      H2             16.2492949134        0.7178089411       69.7166752501  TIP3      7512            0.0000000000
     44789      7705  TIP3      OH2             3.4564057578       -0.1139763562       68.0265136232  TIP3      7513            0.0000000000
     44790      7705  TIP3      H1              3.3461768342       -0.5801248217       68.8812924096  TIP3      7513            0.0000000000
     44791      7705  TIP3      H2              4.2774594530       -0.5138837725       67.6721767919  TIP3      7513            0.0000000000
     44792      7706  TIP3      OH2             5.5442472279       -1.4348638412       66.6619970469  TIP3      7514            0.0000000000
     44793      7706  TIP3      H1              5.3587287144       -2.3522760360       66.9452670260  TIP3      7514            0.0000000000
     44794      7706  TIP3      H2              6.3779842885       -1.2690367413       67.1534898700  TIP3      7514            0.0000000000
     44795      7707  TIP3      OH2             8.1375221721       -0.9353000699       67.5696041293  TIP3      7515            0.0000000000
     44796      7707  TIP3      H1              8.2968762413       -1.8612879040       67.3159267196  TIP3      7515            0.0000000000
     44797      7707  TIP3      H2              8.1768918197       -1.0025501784       68.5355535545  TIP3      7515            0.0000000000
     44798      7708  TIP3      OH2            11.6184126552      -15.3018497644       66.7290389887  TIP3      7516            0.0000000000
     44799      7708  TIP3      H1             10.9024073012      -15.9048541923       66.9881851234  TIP3      7516            0.0000000000
     44800      7708  TIP3      H2             12.1332136327      -15.8284779329       66.1171597178  TIP3      7516            0.0000000000
     44801      7709  TIP3      OH2            16.7253245696      -17.2389627963       66.7724487993  TIP3      7517            0.0000000000
     44802      7709  TIP3      H1             17.3363649094      -16.6455090693       66.2671395102  TIP3      7517            0.0000000000
     44803      7709  TIP3      H2             15.8425172196      -16.8780902257       66.5448020104  TIP3      7517            0.0000000000
     44804      7710  TIP3      OH2            18.3960322454      -15.9929565879       65.0479992256  TIP3      7518            0.0000000000
     44805      7710  TIP3      H1             19.0835436402      -16.5654194677       64.6350596439  TIP3      7518            0.0000000000
     44806      7710  TIP3      H2             18.9002376466      -15.1537311777       65.1582667919  TIP3      7518            0.0000000000
     44807      7711  TIP3      OH2             3.9533526572      -16.6653053092       64.5734488260  TIP3      7519            0.0000000000
     44808      7711  TIP3      H1              3.1752616123      -16.8530382548       64.0146060802  TIP3      7519            0.0000000000
     44809      7711  TIP3      H2              4.4240300002      -17.5181914540       64.4851931867  TIP3      7519            0.0000000000
     44810      7712  TIP3      OH2             2.6801270562      -16.9140113597       60.2682444756  TIP3      7520            0.0000000000
     44811      7712  TIP3      H1              3.2452078951      -16.3114300267       59.7447448681  TIP3      7520            0.0000000000
     44812      7712  TIP3      H2              2.1641256926      -16.3120065437       60.8240985292  TIP3      7520            0.0000000000
     44813      7713  TIP3      OH2             8.4488457702      -16.7783414344       64.3550285476  TIP3      7521            0.0000000000
     44814      7713  TIP3      H1              9.3222252144      -16.3520959685       64.2870297761  TIP3      7521            0.0000000000
     44815      7713  TIP3      H2              8.3940199305      -16.9246802850       65.2968717141  TIP3      7521            0.0000000000
     44816      7714  TIP3      OH2            14.1480363308      -16.7163256454       65.9675572581  TIP3      7522            0.0000000000
     44817      7714  TIP3      H1             14.0928731740      -16.6025416025       65.0102931890  TIP3      7522            0.0000000000
     44818      7714  TIP3      H2             13.7448101231      -17.6090906345       66.0986445250  TIP3      7522            0.0000000000
     44819      7715  TIP3      OH2            15.4115731393      -16.6874467090       61.6538376244  TIP3      7523            0.0000000000
     44820      7715  TIP3      H1             14.6625197652      -16.0933411713       61.4956986682  TIP3      7523            0.0000000000
     44821      7715  TIP3      H2             14.9715900960      -17.5396205617       61.8877898747  TIP3      7523            0.0000000000
     44822      7716  TIP3      OH2             2.6406501893       -0.9599927142       61.3109274501  TIP3      7524            0.0000000000
     44823      7716  TIP3      H1              1.9840030710       -0.9740695663       60.5905104797  TIP3      7524            0.0000000000
     44824      7716  TIP3      H2              2.6381898062       -0.0048162900       61.4819026571  TIP3      7524            0.0000000000
     44825      7717  TIP3      OH2             4.4837410135      -14.6850695297       58.7290346659  TIP3      7525            0.0000000000
     44826      7717  TIP3      H1              4.9203853804      -15.4863568071       58.3598991362  TIP3      7525            0.0000000000
     44827      7717  TIP3      H2              5.1590377262      -14.6166885261       59.4354656350  TIP3      7525            0.0000000000
     44828      7718  TIP3      OH2             9.6210011635      -14.7134437423       61.1867990858  TIP3      7526            0.0000000000
     44829      7718  TIP3      H1              9.8141889075      -15.3090576709       61.9267312846  TIP3      7526            0.0000000000
     44830      7718  TIP3      H2              9.6427149653      -13.8553435433       61.6566940277  TIP3      7526            0.0000000000
     44831      7719  TIP3      OH2            11.5156984099        0.3533867685       59.6427381405  TIP3      7527            0.0000000000
     44832      7719  TIP3      H1             12.4332559926        0.5787118321       59.4212961593  TIP3      7527            0.0000000000
     44833      7719  TIP3      H2             11.2949460122       -0.1678521748       58.8423569309  TIP3      7527            0.0000000000
     44834      7720  TIP3      OH2            18.2443664156       -0.1618755656       62.3697440591  TIP3      7528            0.0000000000
     44835      7720  TIP3      H1             18.0250261697       -0.9340694450       61.7972907514  TIP3      7528            0.0000000000
     44836      7720  TIP3      H2             18.1492893891        0.5796727158       61.7333257191  TIP3      7528            0.0000000000
     44837      7721  TIP3      OH2             3.8327407853      -16.1293727668       73.9921290821  TIP3      7529            0.0000000000
     44838      7721  TIP3      H1              3.4478421584      -16.9199003552       74.4179952109  TIP3      7529            0.0000000000
     44839      7721  TIP3      H2              4.7435812245      -16.1647338202       74.3726604756  TIP3      7529            0.0000000000
     44840      7722  TIP3      OH2             5.8526665262      -16.7326371654       75.6317639171  TIP3      7530            0.0000000000
     44841      7722  TIP3      H1              6.7344236453      -17.0889997727       75.4061952623  TIP3      7530            0.0000000000
     44842      7722  TIP3      H2              5.4653809206      -17.5269964923       76.0556193273  TIP3      7530            0.0000000000
     44843      7723  TIP3      OH2             4.4344895499        0.0276256270       58.2510577519  TIP3      7531            0.0000000000
     44844      7723  TIP3      H1              4.1757370478        0.2859329902       59.1474668410  TIP3      7531            0.0000000000
     44845      7723  TIP3      H2              5.2180184044       -0.5357152053       58.4059999631  TIP3      7531            0.0000000000
     44846      7724  TIP3      OH2            14.2494463813      -17.4589287456       75.8071353468  TIP3      7532            0.0000000000
     44847      7724  TIP3      H1             14.3514010121      -17.9201593720       76.6605839578  TIP3      7532            0.0000000000
     44848      7724  TIP3      H2             15.1666739254      -17.4806333648       75.4618060217  TIP3      7532            0.0000000000
     44849      7725  TIP3      OH2            17.4533424398       -1.4015474632       74.4620508154  TIP3      7533            0.0000000000
     44850      7725  TIP3      H1             16.6617051423       -1.5361778434       73.8961072341  TIP3      7533            0.0000000000
     44851      7725  TIP3      H2             17.3438057075       -0.4516785923       74.6678969601  TIP3      7533            0.0000000000
     44852      7726  TIP3      OH2            31.9006097937       -7.5365447696       64.4162709604  TIP3      7534            0.0000000000
     44853      7726  TIP3      H1             31.9047488755       -6.5521799136       64.3907618370  TIP3      7534            0.0000000000
     44854      7726  TIP3      H2             31.1722584760       -7.7575970309       63.8135242879  TIP3      7534            0.0000000000
     44855      7727  TIP3      OH2            30.7610654523       -8.2679753078       67.9154110724  TIP3      7535            0.0000000000
     44856      7727  TIP3      H1             30.7408455985       -8.9140217617       68.6356740148  TIP3      7535            0.0000000000
     44857      7727  TIP3      H2             30.4279861463       -8.7798419573       67.1574865374  TIP3      7535            0.0000000000
     44858      7728  TIP3      OH2            23.1095791069       -8.5884698095       69.4692465088  TIP3      7536            0.0000000000
     44859      7728  TIP3      H1             23.1933905525       -9.2755084212       70.1636614615  TIP3      7536            0.0000000000
     44860      7728  TIP3      H2             23.8603112465       -8.0199116818       69.6928935341  TIP3      7536            0.0000000000
     44861      7729  TIP3      OH2            34.4643725519       -5.3409185054       66.2139108664  TIP3      7537            0.0000000000
     44862      7729  TIP3      H1             34.0388469094       -6.0501064638       66.7037296860  TIP3      7537            0.0000000000
     44863      7729  TIP3      H2             34.4673224825       -4.6208272246       66.8656608347  TIP3      7537            0.0000000000
     44864      7730  TIP3      OH2            24.0289715461       -4.1156708504       67.8886110012  TIP3      7538            0.0000000000
     44865      7730  TIP3      H1             23.7325127238       -5.0258809909       67.6719885584  TIP3      7538            0.0000000000
     44866      7730  TIP3      H2             24.9768518547       -4.3299919348       68.0380522435  TIP3      7538            0.0000000000
     44867      7731  TIP3      OH2            20.6733999415      -10.5864384863       63.4616975554  TIP3      7539            0.0000000000
     44868      7731  TIP3      H1             20.2377141428       -9.7160632984       63.3956644483  TIP3      7539            0.0000000000
     44869      7731  TIP3      H2             20.1126439039      -11.1276412282       62.8903204919  TIP3      7539            0.0000000000
     44870      7732  TIP3      OH2            21.3931432824       -8.3581188520       65.6109683522  TIP3      7540            0.0000000000
     44871      7732  TIP3      H1             21.6618432872       -9.1831735260       66.0572017765  TIP3      7540            0.0000000000
     44872      7732  TIP3      H2             22.0812975173       -8.2531452776       64.9399626622  TIP3      7540            0.0000000000
     44873      7733  TIP3      OH2            31.5672098599       -0.1596888569       66.4285331373  TIP3      7541            0.0000000000
     44874      7733  TIP3      H1             32.2107900795       -0.8582663470       66.1531582405  TIP3      7541            0.0000000000
     44875      7733  TIP3      H2             31.3345854712       -0.4961075518       67.2989428601  TIP3      7541            0.0000000000
     44876      7734  TIP3      OH2            29.1404784048       -5.8703690119       68.3928003868  TIP3      7542            0.0000000000
     44877      7734  TIP3      H1             29.4711099418       -6.4952644384       67.7301516001  TIP3      7542            0.0000000000
     44878      7734  TIP3      H2             29.9518376131       -5.7106598985       68.9054899014  TIP3      7542            0.0000000000
     44879      7735  TIP3      OH2            32.3124220977      -11.3920845205       68.6983074187  TIP3      7543            0.0000000000
     44880      7735  TIP3      H1             32.4753690854      -12.3525070849       68.6908166595  TIP3      7543            0.0000000000
     44881      7735  TIP3      H2             32.2101519615      -11.2478558239       67.7378414149  TIP3      7543            0.0000000000
     44882      7736  TIP3      OH2            25.4123795293      -13.3082811823       65.9173184677  TIP3      7544            0.0000000000
     44883      7736  TIP3      H1             25.5212692153      -12.4744243481       65.4237335189  TIP3      7544            0.0000000000
     44884      7736  TIP3      H2             25.0153763208      -13.8825704967       65.2273485915  TIP3      7544            0.0000000000
     44885      7737  TIP3      OH2            33.1794663564      -13.1887125127       64.3024789800  TIP3      7545            0.0000000000
     44886      7737  TIP3      H1             33.8193594420      -13.5495888658       64.9643222778  TIP3      7545            0.0000000000
     44887      7737  TIP3      H2             33.7743949167      -12.6628642205       63.7611868582  TIP3      7545            0.0000000000
     44888      7738  TIP3      OH2            22.0382558466      -10.8981324318       66.6515929850  TIP3      7546            0.0000000000
     44889      7738  TIP3      H1             22.7072976310      -11.4424470993       67.1067582416  TIP3      7546            0.0000000000
     44890      7738  TIP3      H2             22.1435627646      -11.2130384579       65.7405049472  TIP3      7546            0.0000000000
     44891      7739  TIP3      OH2            27.1934732342       -9.3427687249       65.9744456750  TIP3      7547            0.0000000000
     44892      7739  TIP3      H1             27.8684757967       -9.9237340088       66.3664402028  TIP3      7547            0.0000000000
     44893      7739  TIP3      H2             26.6785917758      -10.0008646336       65.4667051819  TIP3      7547            0.0000000000
     44894      7740  TIP3      OH2            24.3236441739      -14.4091127705       69.9573190928  TIP3      7548            0.0000000000
     44895      7740  TIP3      H1             24.0412269528      -13.8379421730       69.2116428538  TIP3      7548            0.0000000000
     44896      7740  TIP3      H2             23.6459357281      -14.1815095982       70.6394967696  TIP3      7548            0.0000000000
     44897      7741  TIP3      OH2            31.5938697945       -4.9458303505       63.4965770495  TIP3      7549            0.0000000000
     44898      7741  TIP3      H1             31.3423814218       -5.2087022542       62.6049459271  TIP3      7549            0.0000000000
     44899      7741  TIP3      H2             31.3007348249       -4.0087000176       63.5568204301  TIP3      7549            0.0000000000
     44900      7742  TIP3      OH2            26.8337863331       -6.7653291987       70.1899881086  TIP3      7550            0.0000000000
     44901      7742  TIP3      H1             26.1320152953       -6.1221635072       70.4168987596  TIP3      7550            0.0000000000
     44902      7742  TIP3      H2             27.5446161729       -6.1683513479       69.9072995325  TIP3      7550            0.0000000000
     44903      7743  TIP3      OH2            34.6605017474      -13.9078297508       66.3975541447  TIP3      7551            0.0000000000
     44904      7743  TIP3      H1             34.6902708135      -14.7296971436       66.8951303296  TIP3      7551            0.0000000000
     44905      7743  TIP3      H2             35.4283290227      -13.4446771602       66.7978809191  TIP3      7551            0.0000000000
     44906      7744  TIP3      OH2            23.8914576104      -12.5532827776       67.9936132185  TIP3      7552            0.0000000000
     44907      7744  TIP3      H1             24.5194065667      -11.8641546751       68.3041489435  TIP3      7552            0.0000000000
     44908      7744  TIP3      H2             24.4083416787      -12.9630714817       67.2550742739  TIP3      7552            0.0000000000
     44909      7745  TIP3      OH2            25.2860458543       -4.7679194969       71.0221889131  TIP3      7553            0.0000000000
     44910      7745  TIP3      H1             25.2456475362       -3.8487870222       70.6961165823  TIP3      7553            0.0000000000
     44911      7745  TIP3      H2             24.4017258111       -4.8435994632       71.4615837259  TIP3      7553            0.0000000000
     44912      7746  TIP3      OH2            21.3701135445       -5.1465188296       61.8175952906  TIP3      7554            0.0000000000
     44913      7746  TIP3      H1             21.1136673469       -4.8270088483       60.9320902382  TIP3      7554            0.0000000000
     44914      7746  TIP3      H2             21.4288882368       -4.3182006447       62.3111939483  TIP3      7554            0.0000000000
     44915      7747  TIP3      OH2            34.7725520352       -3.5547334118       68.6629097531  TIP3      7555            0.0000000000
     44916      7747  TIP3      H1             33.8147802121       -3.3409599833       68.7056514808  TIP3      7555            0.0000000000
     44917      7747  TIP3      H2             35.1565022912       -2.7101877069       68.3597622988  TIP3      7555            0.0000000000
     44918      7748  TIP3      OH2            35.0993705871      -15.0654896957       69.7129498093  TIP3      7556            0.0000000000
     44919      7748  TIP3      H1             34.4027651775      -14.3888874946       69.8169910006  TIP3      7556            0.0000000000
     44920      7748  TIP3      H2             35.8597824797      -14.5713752031       69.3860139698  TIP3      7556            0.0000000000
     44921      7749  TIP3      OH2            28.2601427913      -17.0766983015       67.4224983705  TIP3      7557            0.0000000000
     44922      7749  TIP3      H1             28.1244077671      -18.0411798605       67.3511935347  TIP3      7557            0.0000000000
     44923      7749  TIP3      H2             27.3816554517      -16.7708198243       67.7294031308  TIP3      7557            0.0000000000
     44924      7750  TIP3      OH2            33.1483450384       -1.7679310677       65.1753658647  TIP3      7558            0.0000000000
     44925      7750  TIP3      H1             33.6375202579       -2.4467841255       64.6676123324  TIP3      7558            0.0000000000
     44926      7750  TIP3      H2             33.5989500571       -0.9663569056       64.8241572038  TIP3      7558            0.0000000000
     44927      7751  TIP3      OH2            34.4296618811       -3.7809455852       63.6784016000  TIP3      7559            0.0000000000
     44928      7751  TIP3      H1             34.1828347930       -4.4919171500       63.0671491004  TIP3      7559            0.0000000000
     44929      7751  TIP3      H2             34.4925217998       -4.2874534796       64.5140415352  TIP3      7559            0.0000000000
     44930      7752  TIP3      OH2            35.8020396862       -5.0358037461       72.2794792101  TIP3      7560            0.0000000000
     44931      7752  TIP3      H1             36.0805816808       -5.7368316000       71.6581516343  TIP3      7560            0.0000000000
     44932      7752  TIP3      H2             36.2119670845       -4.2757146838       71.8297540661  TIP3      7560            0.0000000000
     44933      7753  TIP3      OH2            30.5498161901       -8.2904168485       61.9258364099  TIP3      7561            0.0000000000
     44934      7753  TIP3      H1             29.8629083473       -7.7037750941       61.5632871438  TIP3      7561            0.0000000000
     44935      7753  TIP3      H2             31.2667359108       -8.1944527500       61.2724915940  TIP3      7561            0.0000000000
     44936      7754  TIP3      OH2            30.6386903112       -9.7146075086       58.9400480337  TIP3      7562            0.0000000000
     44937      7754  TIP3      H1             31.3530754948       -9.7371915821       59.5956370065  TIP3      7562            0.0000000000
     44938      7754  TIP3      H2             30.9408579738      -10.4339557328       58.3704217203  TIP3      7562            0.0000000000
     44939      7755  TIP3      OH2            33.9765857559       -8.0679510500       62.8204223579  TIP3      7563            0.0000000000
     44940      7755  TIP3      H1             33.2519848276       -7.8158391149       63.4399291363  TIP3      7563            0.0000000000
     44941      7755  TIP3      H2             34.4570635067       -8.7090007813       63.3881113900  TIP3      7563            0.0000000000
     44942      7756  TIP3      OH2            33.9516028948       -9.8942018522       71.9492195867  TIP3      7564            0.0000000000
     44943      7756  TIP3      H1             33.9036185159       -9.0951714137       72.4983023531  TIP3      7564            0.0000000000
     44944      7756  TIP3      H2             33.3109100935       -9.6265819764       71.2642293267  TIP3      7564            0.0000000000
     44945      7757  TIP3      OH2            25.6166969771       -7.4188588853       64.7716970441  TIP3      7565            0.0000000000
     44946      7757  TIP3      H1             25.2973750992       -7.8060094535       63.9210952291  TIP3      7565            0.0000000000
     44947      7757  TIP3      H2             26.2333467129       -8.1079244435       65.1042319089  TIP3      7565            0.0000000000
     44948      7758  TIP3      OH2            26.9172942167       -4.0356750498       67.4388800884  TIP3      7566            0.0000000000
     44949      7758  TIP3      H1             26.9479257902       -4.5687524422       66.6369809035  TIP3      7566            0.0000000000
     44950      7758  TIP3      H2             27.7039980264       -4.3733179396       67.9090527810  TIP3      7566            0.0000000000
     44951      7759  TIP3      OH2            25.9442313112       -8.6683463081       68.4325286547  TIP3      7567            0.0000000000
     44952      7759  TIP3      H1             26.4954697250       -8.5708402269       67.6310910993  TIP3      7567            0.0000000000
     44953      7759  TIP3      H2             26.3360785300       -8.0040738653       69.0419852063  TIP3      7567            0.0000000000
     44954      7760  TIP3      OH2            32.2848526913       -3.0789019186       69.1216054410  TIP3      7568            0.0000000000
     44955      7760  TIP3      H1             32.0891987611       -2.4557800423       69.8243724025  TIP3      7568            0.0000000000
     44956      7760  TIP3      H2             32.1086993773       -3.9481882376       69.5558229324  TIP3      7568            0.0000000000
     44957      7761  TIP3      OH2            26.9026287786       -4.2357391165       73.1284185458  TIP3      7569            0.0000000000
     44958      7761  TIP3      H1             26.4932648701       -3.5001428169       73.6309368256  TIP3      7569            0.0000000000
     44959      7761  TIP3      H2             26.2272201944       -4.4362530289       72.4337637810  TIP3      7569            0.0000000000
     44960      7762  TIP3      OH2            32.8729851234       -8.8937974890       60.5288991907  TIP3      7570            0.0000000000
     44961      7762  TIP3      H1             33.4276556709       -8.6744900340       61.3182766895  TIP3      7570            0.0000000000
     44962      7762  TIP3      H2             33.2743771651       -8.3656232383       59.8091210466  TIP3      7570            0.0000000000
     44963      7763  TIP3      OH2            23.8454194048       -8.0728092084       72.2769240891  TIP3      7571            0.0000000000
     44964      7763  TIP3      H1             23.8956925037       -7.4220541068       73.0034081058  TIP3      7571            0.0000000000
     44965      7763  TIP3      H2             22.9013910815       -7.9876757332       72.0744976544  TIP3      7571            0.0000000000
     44966      7764  TIP3      OH2            30.5864529340       -2.1506968942       63.9813668599  TIP3      7572            0.0000000000
     44967      7764  TIP3      H1             31.0191220944       -1.8525210329       64.7928969298  TIP3      7572            0.0000000000
     44968      7764  TIP3      H2             30.0287912384       -1.4012224825       63.7502237540  TIP3      7572            0.0000000000
     44969      7765  TIP3      OH2            25.1477373588       -2.2004467784       73.8720875534  TIP3      7573            0.0000000000
     44970      7765  TIP3      H1             25.0830449345       -2.3058869847       72.9105275741  TIP3      7573            0.0000000000
     44971      7765  TIP3      H2             24.2189980762       -2.3370395242       74.1439799742  TIP3      7573            0.0000000000
     44972      7766  TIP3      OH2            24.5773419920       -8.3970862168       62.4007227127  TIP3      7574            0.0000000000
     44973      7766  TIP3      H1             24.3006145328       -7.6123888121       61.8817167049  TIP3      7574            0.0000000000
     44974      7766  TIP3      H2             23.9322738241       -9.0614633533       62.1529796037  TIP3      7574            0.0000000000
     44975      7767  TIP3      OH2            20.6706029610       -5.9647828924       71.2869625185  TIP3      7575            0.0000000000
     44976      7767  TIP3      H1             20.2327277318       -6.0442397669       70.4213158941  TIP3      7575            0.0000000000
     44977      7767  TIP3      H2             20.7567952582       -6.9127679101       71.4998870872  TIP3      7575            0.0000000000
     44978      7768  TIP3      OH2            20.4951700168       -3.1463611545       67.9425088912  TIP3      7576            0.0000000000
     44979      7768  TIP3      H1             21.4018201864       -3.3986501361       68.1328875965  TIP3      7576            0.0000000000
     44980      7768  TIP3      H2             20.3347220198       -2.4411994224       68.5934329479  TIP3      7576            0.0000000000
     44981      7769  TIP3      OH2            29.6317029801       -2.9802973406       72.6155465534  TIP3      7577            0.0000000000
     44982      7769  TIP3      H1             29.6908471011       -2.1456972343       73.1392400534  TIP3      7577            0.0000000000
     44983      7769  TIP3      H2             28.7624550488       -3.3433641143       72.8732313285  TIP3      7577            0.0000000000
     44984      7770  TIP3      OH2            30.1132666777        0.7613999001       62.4082597929  TIP3      7578            0.0000000000
     44985      7770  TIP3      H1             29.9803164657        0.6797381050       61.4446650862  TIP3      7578            0.0000000000
     44986      7770  TIP3      H2             30.0955311747        1.7267874826       62.5551381995  TIP3      7578            0.0000000000
     44987      7771  TIP3      OH2            23.7059643052       -0.3308881046       64.2307406539  TIP3      7579            0.0000000000
     44988      7771  TIP3      H1             23.9721475267       -0.7216564968       65.0786769631  TIP3      7579            0.0000000000
     44989      7771  TIP3      H2             22.8825840735       -0.7582984940       63.9262686182  TIP3      7579            0.0000000000
     44990      7772  TIP3      OH2            33.1482253391       -0.0169353157       59.3715398025  TIP3      7580            0.0000000000
     44991      7772  TIP3      H1             33.5784803420       -0.7873996345       58.9344312372  TIP3      7580            0.0000000000
     44992      7772  TIP3      H2             33.1658297827       -0.2886704705       60.3113603941  TIP3      7580            0.0000000000
     44993      7773  TIP3      OH2            32.8064142129       -0.1104241510       62.1725029375  TIP3      7581            0.0000000000
     44994      7773  TIP3      H1             31.8437277180       -0.0219079421       62.3417778441  TIP3      7581            0.0000000000
     44995      7773  TIP3      H2             33.0374442736       -0.8514010493       62.7508369802  TIP3      7581            0.0000000000
     44996      7774  TIP3      OH2            35.3404102596      -10.8860982297       74.2347017895  TIP3      7582            0.0000000000
     44997      7774  TIP3      H1             35.2910438941      -10.5355272696       73.3426872531  TIP3      7582            0.0000000000
     44998      7774  TIP3      H2             35.8693374025      -11.7154619273       74.0878220449  TIP3      7582            0.0000000000
     44999      7775  TIP3      OH2            22.9631604552       -4.6521268589       72.2260771537  TIP3      7583            0.0000000000
     45000      7775  TIP3      H1             23.1846335372       -5.0155867941       73.1106083904  TIP3      7583            0.0000000000
     45001      7775  TIP3      H2             22.0929622982       -5.0471868321       72.0143791537  TIP3      7583            0.0000000000
     45002      7776  TIP3      OH2            25.6444155476      -16.1724712108       68.1735295495  TIP3      7584            0.0000000000
     45003      7776  TIP3      H1             24.7408139974      -16.2995315857       67.8065255052  TIP3      7584            0.0000000000
     45004      7776  TIP3      H2             25.5096867676      -15.3423557617       68.6597000766  TIP3      7584            0.0000000000
     45005      7777  TIP3      OH2            30.2876269361      -16.5105543104       71.5320723404  TIP3      7585            0.0000000000
     45006      7777  TIP3      H1             30.6818857627      -16.9271606026       72.3212365220  TIP3      7585            0.0000000000
     45007      7777  TIP3      H2             29.3153728649      -16.6272657511       71.6740178244  TIP3      7585            0.0000000000
     45008      7778  TIP3      OH2            33.5044836233      -12.7001549345       72.3754248556  TIP3      7586            0.0000000000
     45009      7778  TIP3      H1             33.0178652252      -12.8727202982       73.2162918715  TIP3      7586            0.0000000000
     45010      7778  TIP3      H2             33.4257577210      -11.7441402610       72.2411247125  TIP3      7586            0.0000000000
     45011      7779  TIP3      OH2            34.3775141651       -7.9354301794       58.3356102584  TIP3      7587            0.0000000000
     45012      7779  TIP3      H1             34.3049709209       -8.0855154053       57.3654495374  TIP3      7587            0.0000000000
     45013      7779  TIP3      H2             35.1471022510       -7.3667969780       58.3647102567  TIP3      7587            0.0000000000
     45014      7780  TIP3      OH2            29.9341753698      -13.9185022261       58.8458363646  TIP3      7588            0.0000000000
     45015      7780  TIP3      H1             29.6129213579      -13.9817556693       59.7638973835  TIP3      7588            0.0000000000
     45016      7780  TIP3      H2             29.6192075927      -14.7914828870       58.5357294860  TIP3      7588            0.0000000000
     45017      7781  TIP3      OH2            25.7520925834      -11.1935885210       69.4371809446  TIP3      7589            0.0000000000
     45018      7781  TIP3      H1             25.0072696426      -11.2082303665       70.0658169083  TIP3      7589            0.0000000000
     45019      7781  TIP3      H2             25.6981221071      -10.2896764248       69.0550725565  TIP3      7589            0.0000000000
     45020      7782  TIP3      OH2            25.7054964772      -11.0863467743       64.2919691509  TIP3      7590            0.0000000000
     45021      7782  TIP3      H1             24.7669113038      -11.3346432922       64.1603945017  TIP3      7590            0.0000000000
     45022      7782  TIP3      H2             26.0821203317      -11.3740887386       63.4360580901  TIP3      7590            0.0000000000
     45023      7783  TIP3      OH2            31.2431172006      -10.5719411095       63.0739787105  TIP3      7591            0.0000000000
     45024      7783  TIP3      H1             30.8339777095       -9.7594852113       62.6967366197  TIP3      7591            0.0000000000
     45025      7783  TIP3      H2             31.9254655135      -10.7452249378       62.4061730210  TIP3      7591            0.0000000000
     45026      7784  TIP3      OH2            30.2786443609      -10.3596635153       74.5028098719  TIP3      7592            0.0000000000
     45027      7784  TIP3      H1             29.7803771537      -11.1559629185       74.8013190789  TIP3      7592            0.0000000000
     45028      7784  TIP3      H2             31.1331995001      -10.4833096643       74.9518980788  TIP3      7592            0.0000000000
     45029      7785  TIP3      OH2            32.2289582776      -11.0723661934       65.9252356376  TIP3      7593            0.0000000000
     45030      7785  TIP3      H1             31.9956417817      -10.5255606316       65.1559808612  TIP3      7593            0.0000000000
     45031      7785  TIP3      H2             32.3571737625      -11.9297713299       65.4696502178  TIP3      7593            0.0000000000
     45032      7786  TIP3      OH2            23.3661630054      -10.9499645449       71.1064219891  TIP3      7594            0.0000000000
     45033      7786  TIP3      H1             23.4503937328      -10.5418371501       71.9853159355  TIP3      7594            0.0000000000
     45034      7786  TIP3      H2             22.9258519068      -11.7882667223       71.3196571192  TIP3      7594            0.0000000000
     45035      7787  TIP3      OH2            26.7387087593      -13.5528703198       57.9618222146  TIP3      7595            0.0000000000
     45036      7787  TIP3      H1             26.2844607660      -13.9736357087       58.7199318481  TIP3      7595            0.0000000000
     45037      7787  TIP3      H2             26.0292284168      -13.1210957006       57.4703790159  TIP3      7595            0.0000000000
     45038      7788  TIP3      OH2            20.0259366068      -13.8401164246       65.0963224650  TIP3      7596            0.0000000000
     45039      7788  TIP3      H1             20.7101989034      -13.8798082524       65.7967667323  TIP3      7596            0.0000000000
     45040      7788  TIP3      H2             20.4731844418      -14.2142040334       64.3152595106  TIP3      7596            0.0000000000
     45041      7789  TIP3      OH2            21.2891300778      -13.1219202107       60.4413608800  TIP3      7597            0.0000000000
     45042      7789  TIP3      H1             21.8031524810      -12.5094400726       59.8842281037  TIP3      7597            0.0000000000
     45043      7789  TIP3      H2             20.6027793104      -12.4983876771       60.7621769479  TIP3      7597            0.0000000000
     45044      7790  TIP3      OH2            31.4431545036       -9.5151506684       70.4555316109  TIP3      7598            0.0000000000
     45045      7790  TIP3      H1             31.8380575906      -10.2075176465       69.8823940318  TIP3      7598            0.0000000000
     45046      7790  TIP3      H2             30.9782904336      -10.0374566083       71.1327192318  TIP3      7598            0.0000000000
     45047      7791  TIP3      OH2            28.2534250740      -13.5222167427       65.3015901889  TIP3      7599            0.0000000000
     45048      7791  TIP3      H1             27.3164091144      -13.5241104201       65.6009378303  TIP3      7599            0.0000000000
     45049      7791  TIP3      H2             28.7523124415      -13.6990024931       66.1164291964  TIP3      7599            0.0000000000
     45050      7792  TIP3      OH2            23.0688947256      -11.9768530316       64.1670479636  TIP3      7600            0.0000000000
     45051      7792  TIP3      H1             22.1852720805      -11.8215226661       63.7745270012  TIP3      7600            0.0000000000
     45052      7792  TIP3      H2             23.3530483923      -12.8115734718       63.7567092758  TIP3      7600            0.0000000000
     45053      7793  TIP3      OH2            26.7131059385      -11.9309857170       61.7915227144  TIP3      7601            0.0000000000
     45054      7793  TIP3      H1             27.6687338480      -11.8193161073       61.9525040399  TIP3      7601            0.0000000000
     45055      7793  TIP3      H2             26.4757603197      -11.2477373738       61.1365288004  TIP3      7601            0.0000000000
     45056      7794  TIP3      OH2            32.5959394439      -14.3224100439       68.5509227040  TIP3      7602            0.0000000000
     45057      7794  TIP3      H1             31.9269374342      -14.2514588170       69.2554030329  TIP3      7602            0.0000000000
     45058      7794  TIP3      H2             32.0998274001      -14.5357268428       67.7460929210  TIP3      7602            0.0000000000
     45059      7795  TIP3      OH2            25.4187782114      -10.7540524550       59.3804802600  TIP3      7603            0.0000000000
     45060      7795  TIP3      H1             24.8865410928      -11.1329177164       58.6611356715  TIP3      7603            0.0000000000
     45061      7795  TIP3      H2             26.2392649995      -10.5464141925       58.9066396392  TIP3      7603            0.0000000000
     45062      7796  TIP3      OH2            35.7672675725        1.3937106411       74.9054492904  TIP3      7604            0.0000000000
     45063      7796  TIP3      H1             36.1013043464        1.7192819918       74.0519913345  TIP3      7604            0.0000000000
     45064      7796  TIP3      H2             36.5206345889        1.6575129634       75.4563704834  TIP3      7604            0.0000000000
     45065      7797  TIP3      OH2            23.5548956767       -6.1928638353       74.4484180340  TIP3      7605            0.0000000000
     45066      7797  TIP3      H1             24.2584981926       -5.9365929070       75.0658765772  TIP3      7605            0.0000000000
     45067      7797  TIP3      H2             22.7711321360       -6.1053349659       75.0328454048  TIP3      7605            0.0000000000
     45068      7798  TIP3      OH2            29.5393966979      -10.7737894272       67.1894091974  TIP3      7606            0.0000000000
     45069      7798  TIP3      H1             30.1458393552      -11.3040099107       66.6573069979  TIP3      7606            0.0000000000
     45070      7798  TIP3      H2             29.3965721351      -11.3212372105       67.9729280702  TIP3      7606            0.0000000000
     45071      7799  TIP3      OH2            24.5524254979      -14.6267203639       63.6267173463  TIP3      7607            0.0000000000
     45072      7799  TIP3      H1             24.2427929583      -15.5507334507       63.6190985341  TIP3      7607            0.0000000000
     45073      7799  TIP3      H2             25.3432076879      -14.6946018608       63.0778861349  TIP3      7607            0.0000000000
     45074      7800  TIP3      OH2            28.1811340669      -12.4478499374       69.6044919730  TIP3      7608            0.0000000000
     45075      7800  TIP3      H1             27.3570208786      -11.9265124345       69.6920398009  TIP3      7608            0.0000000000
     45076      7800  TIP3      H2             28.7370276464      -12.0937613146       70.3253623985  TIP3      7608            0.0000000000
     45077      7801  TIP3      OH2            28.7698893921       -6.2205843755       61.3008990925  TIP3      7609            0.0000000000
     45078      7801  TIP3      H1             27.9704956555       -6.6876362869       60.9659059197  TIP3      7609            0.0000000000
     45079      7801  TIP3      H2             28.5457156422       -6.1005630712       62.2461880300  TIP3      7609            0.0000000000
     45080      7802  TIP3      OH2            35.6408804885       -6.9996917063       70.0987213583  TIP3      7610            0.0000000000
     45081      7802  TIP3      H1             36.3664317848       -6.8704795901       69.4484959874  TIP3      7610            0.0000000000
     45082      7802  TIP3      H2             34.8775046386       -6.9956097807       69.4904579041  TIP3      7610            0.0000000000
     45083      7803  TIP3      OH2            32.6324128563      -13.3978781719       59.4731027924  TIP3      7611            0.0000000000
     45084      7803  TIP3      H1             31.6740863823      -13.2770702411       59.3277815203  TIP3      7611            0.0000000000
     45085      7803  TIP3      H2             32.9124823514      -12.5347089262       59.8407227564  TIP3      7611            0.0000000000
     45086      7804  TIP3      OH2            30.2664895148       -5.9640842012       72.5331596799  TIP3      7612            0.0000000000
     45087      7804  TIP3      H1             29.9104825128       -6.3817313996       73.3229089640  TIP3      7612            0.0000000000
     45088      7804  TIP3      H2             30.0367388899       -5.0360114030       72.6467384255  TIP3      7612            0.0000000000
     45089      7805  TIP3      OH2            33.3322520731      -11.4701523738       61.0741026082  TIP3      7613            0.0000000000
     45090      7805  TIP3      H1             34.2014225317      -11.6114271011       61.5055176432  TIP3      7613            0.0000000000
     45091      7805  TIP3      H2             33.4356060202      -10.6321050154       60.5928132167  TIP3      7613            0.0000000000
     45092      7806  TIP3      OH2            23.8854474907       -6.8009489693       67.0971474794  TIP3      7614            0.0000000000
     45093      7806  TIP3      H1             24.5646460588       -6.9210779655       66.4029368373  TIP3      7614            0.0000000000
     45094      7806  TIP3      H2             23.9247265973       -7.6628749527       67.5538699301  TIP3      7614            0.0000000000
     45095      7807  TIP3      OH2            30.8473347575       -4.7561659491       60.3303620067  TIP3      7615            0.0000000000
     45096      7807  TIP3      H1             30.5276522866       -3.9049647975       60.6924692058  TIP3      7615            0.0000000000
     45097      7807  TIP3      H2             30.1199654531       -5.3711656721       60.5611673100  TIP3      7615            0.0000000000
     45098      7808  TIP3      OH2            20.8665940626       -8.4225951397       72.3668453045  TIP3      7616            0.0000000000
     45099      7808  TIP3      H1             21.0393201816       -8.8684840787       73.2179499215  TIP3      7616            0.0000000000
     45100      7808  TIP3      H2             20.2495088035       -9.0338426894       71.9235744794  TIP3      7616            0.0000000000
     45101      7809  TIP3      OH2            27.8751599598       -8.8681809221       74.5507580322  TIP3      7617            0.0000000000
     45102      7809  TIP3      H1             27.5600529606       -9.1718606064       73.6873305328  TIP3      7617            0.0000000000
     45103      7809  TIP3      H2             28.8030036364       -9.1825028685       74.5397326136  TIP3      7617            0.0000000000
     45104      7810  TIP3      OH2            32.5681371280       -3.5407544955       72.4944590957  TIP3      7618            0.0000000000
     45105      7810  TIP3      H1             31.6483623501       -3.3592410010       72.2554797285  TIP3      7618            0.0000000000
     45106      7810  TIP3      H2             32.5406668258       -3.2407157727       73.4239699721  TIP3      7618            0.0000000000
     45107      7811  TIP3      OH2            33.6767553993       -7.7295933333       68.3925983684  TIP3      7619            0.0000000000
     45108      7811  TIP3      H1             32.7397267179       -7.9470793212       68.2482803338  TIP3      7619            0.0000000000
     45109      7811  TIP3      H2             34.1548795388       -8.4637411677       67.9686206738  TIP3      7619            0.0000000000
     45110      7812  TIP3      OH2            26.2283222136       -3.3468562807       64.5297893876  TIP3      7620            0.0000000000
     45111      7812  TIP3      H1             26.7714354682       -2.5813775518       64.2725638964  TIP3      7620            0.0000000000
     45112      7812  TIP3      H2             25.3906378946       -3.1469039372       64.1036083726  TIP3      7620            0.0000000000
     45113      7813  TIP3      OH2            22.0192243294       -8.5339507367       59.0572742922  TIP3      7621            0.0000000000
     45114      7813  TIP3      H1             22.5986545153       -7.8682858641       59.4665210018  TIP3      7621            0.0000000000
     45115      7813  TIP3      H2             21.1291148736       -8.2203156358       59.3056749906  TIP3      7621            0.0000000000
     45116      7814  TIP3      OH2            27.6711598580       -5.7105146468       63.9934158958  TIP3      7622            0.0000000000
     45117      7814  TIP3      H1             27.3663810017       -4.7914102513       64.0947100398  TIP3      7622            0.0000000000
     45118      7814  TIP3      H2             26.9530649234       -6.1989578503       64.4463248355  TIP3      7622            0.0000000000
     45119      7815  TIP3      OH2            28.1210661525       -1.5205311173       70.4170812336  TIP3      7623            0.0000000000
     45120      7815  TIP3      H1             28.5830014261       -0.7173330782       70.1300618890  TIP3      7623            0.0000000000
     45121      7815  TIP3      H2             28.7383745698       -1.8670861446       71.0861480384  TIP3      7623            0.0000000000
     45122      7816  TIP3      OH2            26.3274169117       -0.7197760884       63.5562175374  TIP3      7624            0.0000000000
     45123      7816  TIP3      H1             25.3717932189       -0.5383376915       63.6411690394  TIP3      7624            0.0000000000
     45124      7816  TIP3      H2             26.7226892983        0.1207940241       63.8604057454  TIP3      7624            0.0000000000
     45125      7817  TIP3      OH2            31.6598978681       -5.5264597502       70.0375324385  TIP3      7625            0.0000000000
     45126      7817  TIP3      H1             31.3178870519       -5.7227560719       70.9366625346  TIP3      7625            0.0000000000
     45127      7817  TIP3      H2             32.2863624103       -6.2463724767       69.8648931184  TIP3      7625            0.0000000000
     45128      7818  TIP3      OH2            33.9586805159       -4.4724095810       59.1137361310  TIP3      7626            0.0000000000
     45129      7818  TIP3      H1             34.2818847710       -4.9030454174       59.9300296016  TIP3      7626            0.0000000000
     45130      7818  TIP3      H2             33.0085440617       -4.6425726194       59.2046609184  TIP3      7626            0.0000000000
     45131      7819  TIP3      OH2            34.4700056075       -0.9672411753       72.5029592614  TIP3      7627            0.0000000000
     45132      7819  TIP3      H1             33.7359067632       -1.4312832927       72.0503356838  TIP3      7627            0.0000000000
     45133      7819  TIP3      H2             34.6685725107       -0.2499645157       71.8615774843  TIP3      7627            0.0000000000
     45134      7820  TIP3      OH2            22.5195146170      -13.6868925992       71.9140141716  TIP3      7628            0.0000000000
     45135      7820  TIP3      H1             21.6120622288      -13.3375671921       71.8917683566  TIP3      7628            0.0000000000
     45136      7820  TIP3      H2             22.4078069521      -14.5343263081       72.3734950586  TIP3      7628            0.0000000000
     45137      7821  TIP3      OH2            34.7579229006       -5.8630164278       61.3406315555  TIP3      7629            0.0000000000
     45138      7821  TIP3      H1             34.5331275205       -6.6292974746       61.9139451638  TIP3      7629            0.0000000000
     45139      7821  TIP3      H2             35.6957847533       -5.7422542990       61.5686205983  TIP3      7629            0.0000000000
     45140      7822  TIP3      OH2            22.1430350183       -1.9112999056       70.3175836015  TIP3      7630            0.0000000000
     45141      7822  TIP3      H1             22.4304542369       -2.8348240817       70.3735702522  TIP3      7630            0.0000000000
     45142      7822  TIP3      H2             22.3788598718       -1.6086112181       71.2079065452  TIP3      7630            0.0000000000
     45143      7823  TIP3      OH2            28.1084558204       -3.3752637574       57.6180871782  TIP3      7631            0.0000000000
     45144      7823  TIP3      H1             28.2070378789       -4.1405447486       57.0266437005  TIP3      7631            0.0000000000
     45145      7823  TIP3      H2             27.6663663493       -3.8083469549       58.3815054484  TIP3      7631            0.0000000000
     45146      7824  TIP3      OH2            26.8679848894       -3.8499689275       60.0761054878  TIP3      7632            0.0000000000
     45147      7824  TIP3      H1             27.1577079684       -4.3678562197       60.8368156644  TIP3      7632            0.0000000000
     45148      7824  TIP3      H2             26.9747751083       -2.9238552416       60.3913482883  TIP3      7632            0.0000000000
     45149      7825  TIP3      OH2            23.4233090797       -6.6048425356       60.5554139236  TIP3      7633            0.0000000000
     45150      7825  TIP3      H1             22.7092946606       -6.2100624320       61.0942344069  TIP3      7633            0.0000000000
     45151      7825  TIP3      H2             23.9288348126       -5.8252375675       60.2614408669  TIP3      7633            0.0000000000
     45152      7826  TIP3      OH2            31.2208822949      -13.9215911324       70.8844029388  TIP3      7634            0.0000000000
     45153      7826  TIP3      H1             31.9716236165      -13.8560027499       71.4897502737  TIP3      7634            0.0000000000
     45154      7826  TIP3      H2             30.8572497413      -14.8039507234       71.0894121348  TIP3      7634            0.0000000000
     45155      7827  TIP3      OH2            32.0551624018      -14.3654579761       61.9656395993  TIP3      7635            0.0000000000
     45156      7827  TIP3      H1             32.2329991699      -13.8802242440       61.1370011253  TIP3      7635            0.0000000000
     45157      7827  TIP3      H2             32.6052900021      -13.8949004298       62.6038057689  TIP3      7635            0.0000000000
     45158      7828  TIP3      OH2            29.6845510458       -2.1872540558       60.7655278475  TIP3      7636            0.0000000000
     45159      7828  TIP3      H1             28.8672861001       -1.6551380772       60.8364280142  TIP3      7636            0.0000000000
     45160      7828  TIP3      H2             30.2242843916       -1.6375832550       60.1790757218  TIP3      7636            0.0000000000
     45161      7829  TIP3      OH2            29.2301880762      -12.5957786449       62.7806442329  TIP3      7637            0.0000000000
     45162      7829  TIP3      H1             30.0099668377      -12.0091491428       62.8281747233  TIP3      7637            0.0000000000
     45163      7829  TIP3      H2             28.9618869660      -12.7141051084       63.7112116995  TIP3      7637            0.0000000000
     45164      7830  TIP3      OH2            29.8099894080      -11.5625752157       71.9711507171  TIP3      7638            0.0000000000
     45165      7830  TIP3      H1             29.8887965335      -11.0067428442       72.7707069257  TIP3      7638            0.0000000000
     45166      7830  TIP3      H2             30.4568361795      -12.2765039591       72.0630962126  TIP3      7638            0.0000000000
     45167      7831  TIP3      OH2            30.0358320351      -15.5318988952       63.6436417556  TIP3      7639            0.0000000000
     45168      7831  TIP3      H1             29.7584638566      -14.8853420571       64.3112733537  TIP3      7639            0.0000000000
     45169      7831  TIP3      H2             30.7537123646      -15.0023618902       63.2168272605  TIP3      7639            0.0000000000
     45170      7832  TIP3      OH2            27.0805435893       -1.1562427088       60.7938656699  TIP3      7640            0.0000000000
     45171      7832  TIP3      H1             27.1829834473       -0.3431667261       60.2403228174  TIP3      7640            0.0000000000
     45172      7832  TIP3      H2             26.8113224233       -0.7876133848       61.6638268682  TIP3      7640            0.0000000000
     45173      7833  TIP3      OH2            25.7326394218      -14.4326798500       60.3733385890  TIP3      7641            0.0000000000
     45174      7833  TIP3      H1             25.6825119377      -13.5342575758       60.7578059865  TIP3      7641            0.0000000000
     45175      7833  TIP3      H2             26.6422178166      -14.6776558557       60.6358774414  TIP3      7641            0.0000000000
     45176      7834  TIP3      OH2            35.8395679850      -13.9246513937       72.6243142445  TIP3      7642            0.0000000000
     45177      7834  TIP3      H1             35.0023899414      -13.4019819656       72.6557132012  TIP3      7642            0.0000000000
     45178      7834  TIP3      H2             36.2313294088      -13.6454338220       71.7964033337  TIP3      7642            0.0000000000
     45179      7835  TIP3      OH2            34.5669918168       -9.9132859262       66.8697314390  TIP3      7643            0.0000000000
     45180      7835  TIP3      H1             33.7469208111      -10.3478666271       66.5574560964  TIP3      7643            0.0000000000
     45181      7835  TIP3      H2             34.9972536019      -10.6263296704       67.3517678416  TIP3      7643            0.0000000000
     45182      7836  TIP3      OH2            23.9635607828       -3.9895041837       59.4161166118  TIP3      7644            0.0000000000
     45183      7836  TIP3      H1             24.6350029985       -3.3651437954       59.7287590143  TIP3      7644            0.0000000000
     45184      7836  TIP3      H2             24.4830732667       -4.4553088879       58.7300980892  TIP3      7644            0.0000000000
     45185      7837  TIP3      OH2            22.3100715220      -11.3180054453       58.5605629268  TIP3      7645            0.0000000000
     45186      7837  TIP3      H1             22.3275550330      -10.3601008199       58.7670539750  TIP3      7645            0.0000000000
     45187      7837  TIP3      H2             21.4179642415      -11.4921561447       58.2516904902  TIP3      7645            0.0000000000
     45188      7838  TIP3      OH2            35.6985535981       -0.6242240211       68.4830234663  TIP3      7646            0.0000000000
     45189      7838  TIP3      H1             35.5432656407        0.0450100065       67.7904736779  TIP3      7646            0.0000000000
     45190      7838  TIP3      H2             36.6424030169       -0.5389612779       68.6521092654  TIP3      7646            0.0000000000
     45191      7839  TIP3      OH2            23.1261891999      -16.5322440884       67.3049249392  TIP3      7647            0.0000000000
     45192      7839  TIP3      H1             22.9329649667      -16.5148246911       66.3413498697  TIP3      7647            0.0000000000
     45193      7839  TIP3      H2             22.7126138389      -17.3852982287       67.5550227592  TIP3      7647            0.0000000000
     45194      7840  TIP3      OH2            22.1082831548       -2.4730050697       63.5705746579  TIP3      7648            0.0000000000
     45195      7840  TIP3      H1             21.2078043721       -2.1871674805       63.3243370934  TIP3      7648            0.0000000000
     45196      7840  TIP3      H2             22.5428107534       -2.1876871507       62.7399265442  TIP3      7648            0.0000000000
     45197      7841  TIP3      OH2            21.2772114888        0.0489091349       74.7370545367  TIP3      7649            0.0000000000
     45198      7841  TIP3      H1             21.8826392726       -0.1526444463       75.4789504175  TIP3      7649            0.0000000000
     45199      7841  TIP3      H2             20.8733650878       -0.8185559702       74.5618827334  TIP3      7649            0.0000000000
     45200      7842  TIP3      OH2            25.9334952323       -1.0875784246       76.3527959619  TIP3      7650            0.0000000000
     45201      7842  TIP3      H1             26.7276342058       -1.5396979178       76.6656360199  TIP3      7650            0.0000000000
     45202      7842  TIP3      H2             25.9351931324       -1.3257031944       75.4052020679  TIP3      7650            0.0000000000
     45203      7843  TIP3      OH2            30.1089373399       -1.5277534310       57.7390558492  TIP3      7651            0.0000000000
     45204      7843  TIP3      H1             29.4134537073       -2.1837418722       57.9679110846  TIP3      7651            0.0000000000
     45205      7843  TIP3      H2             30.8283131315       -2.1300712303       57.4962519626  TIP3      7651            0.0000000000
     45206      7844  TIP3      OH2            32.5255325004       -2.6793382505       75.0508390557  TIP3      7652            0.0000000000
     45207      7844  TIP3      H1             32.1748708911       -3.5328931678       75.3739244947  TIP3      7652            0.0000000000
     45208      7844  TIP3      H2             33.2842484901       -2.5434489356       75.6607110813  TIP3      7652            0.0000000000
     45209      7845  TIP3      OH2            34.6333717340       -1.7649437606       57.9778262481  TIP3      7653            0.0000000000
     45210      7845  TIP3      H1             34.9400527135       -2.5663259836       58.4286010926  TIP3      7653            0.0000000000
     45211      7845  TIP3      H2             35.3811064615       -1.5843184674       57.3777150292  TIP3      7653            0.0000000000
     45212      7846  TIP3      OH2            21.1878629620       -6.2107830035       75.7133070473  TIP3      7654            0.0000000000
     45213      7846  TIP3      H1             21.3700555284       -7.1125568377       75.3915376521  TIP3      7654            0.0000000000
     45214      7846  TIP3      H2             20.4629077535       -5.9340912595       75.1284276806  TIP3      7654            0.0000000000
     45215      7847  TIP3      OH2            25.5441989868       -5.8448205352       57.7435807377  TIP3      7655            0.0000000000
     45216      7847  TIP3      H1             25.6870363885       -6.6030158803       58.3302264673  TIP3      7655            0.0000000000
     45217      7847  TIP3      H2             26.2948036387       -5.9608095515       57.1284303866  TIP3      7655            0.0000000000
     45218      7848  TIP3      OH2            27.9122973889       -6.2094112809       75.1167684069  TIP3      7656            0.0000000000
     45219      7848  TIP3      H1             27.5852794644       -5.8799955736       74.2578854551  TIP3      7656            0.0000000000
     45220      7848  TIP3      H2             27.9823869720       -7.1854283782       74.9943734233  TIP3      7656            0.0000000000
     45221      7849  TIP3      OH2            30.9710047724       -4.7342281590       57.5238233762  TIP3      7657            0.0000000000
     45222      7849  TIP3      H1             30.6992511520       -4.6522572006       58.4516183623  TIP3      7657            0.0000000000
     45223      7849  TIP3      H2             30.7792415160       -5.6915162067       57.3797052020  TIP3      7657            0.0000000000
     45224      7850  TIP3      OH2            33.5761544061       -6.3742614097       72.5028445328  TIP3      7658            0.0000000000
     45225      7850  TIP3      H1             34.3723097390       -5.7839631904       72.4513597204  TIP3      7658            0.0000000000
     45226      7850  TIP3      H2             32.9119133732       -5.6765321638       72.5592080490  TIP3      7658            0.0000000000
     45227      7851  TIP3      OH2            22.0954447943       -8.9621912928       75.1041749197  TIP3      7659            0.0000000000
     45228      7851  TIP3      H1             22.5314402028       -9.8156308991       75.0111743983  TIP3      7659            0.0000000000
     45229      7851  TIP3      H2             21.8950485975       -8.9459720507       76.0589484506  TIP3      7659            0.0000000000
     45230      7852  TIP3      OH2            26.7599472604       -7.8282970178       60.1829805466  TIP3      7660            0.0000000000
     45231      7852  TIP3      H1             26.2461727691       -8.3651373245       60.8037085901  TIP3      7660            0.0000000000
     45232      7852  TIP3      H2             27.0496404508       -8.4987888788       59.5216240710  TIP3      7660            0.0000000000
     45233      7853  TIP3      OH2            26.0146736942      -10.0171862706       72.4608820736  TIP3      7661            0.0000000000
     45234      7853  TIP3      H1             25.4197016099       -9.2951252242       72.7177403569  TIP3      7661            0.0000000000
     45235      7853  TIP3      H2             26.4141417792       -9.6495826327       71.6539624874  TIP3      7661            0.0000000000
     45236      7854  TIP3      OH2            27.8200420930       -9.6000927229       58.3741291826  TIP3      7662            0.0000000000
     45237      7854  TIP3      H1             27.6727597694       -9.6922930019       57.4107434604  TIP3      7662            0.0000000000
     45238      7854  TIP3      H2             28.7975917626       -9.5495949823       58.4405478174  TIP3      7662            0.0000000000
     45239      7855  TIP3      OH2            31.0777939098       -7.4361758513       75.8257390087  TIP3      7663            0.0000000000
     45240      7855  TIP3      H1             32.0271545318       -7.4639793264       75.6563622325  TIP3      7663            0.0000000000
     45241      7855  TIP3      H2             30.9336542300       -8.2153275753       76.3828454520  TIP3      7663            0.0000000000
     45242      7856  TIP3      OH2            26.4331333214      -12.6274305401       73.5006770918  TIP3      7664            0.0000000000
     45243      7856  TIP3      H1             26.5401701492      -13.3467051434       72.8514490587  TIP3      7664            0.0000000000
     45244      7856  TIP3      H2             26.3797835538      -11.8195437664       72.9537483322  TIP3      7664            0.0000000000
     45245      7857  TIP3      OH2            26.8275440334      -14.2587208789       71.0725113992  TIP3      7665            0.0000000000
     45246      7857  TIP3      H1             27.3354574534      -13.7924643123       70.3661773408  TIP3      7665            0.0000000000
     45247      7857  TIP3      H2             25.9334567231      -14.3355210384       70.6673772084  TIP3      7665            0.0000000000
     45248      7858  TIP3      OH2            28.3649114351       -8.7661210690       71.3206710715  TIP3      7666            0.0000000000
     45249      7858  TIP3      H1             29.1173802219       -8.9337889008       70.7462062216  TIP3      7666            0.0000000000
     45250      7858  TIP3      H2             28.0050542454       -7.9324041028       70.9817261406  TIP3      7666            0.0000000000
     45251      7859  TIP3      OH2            32.8039274604      -11.0045383205       76.3088684620  TIP3      7667            0.0000000000
     45252      7859  TIP3      H1             33.0328695563      -11.9384102404       76.1828042856  TIP3      7667            0.0000000000
     45253      7859  TIP3      H2             33.6691727040      -10.5798484237       76.2524119484  TIP3      7667            0.0000000000
     45254      7860  TIP3      OH2            34.1257208981       -8.1678861966       74.4493945730  TIP3      7668            0.0000000000
     45255      7860  TIP3      H1             33.8298615710       -7.4933537719       73.7969747126  TIP3      7668            0.0000000000
     45256      7860  TIP3      H2             35.0521772254       -8.2939452675       74.2324220801  TIP3      7668            0.0000000000
     45257      7861  TIP3      OH2            24.9066097345      -11.3965515787       75.4619153949  TIP3      7669            0.0000000000
     45258      7861  TIP3      H1             24.1194884100      -11.9474709387       75.2648939987  TIP3      7669            0.0000000000
     45259      7861  TIP3      H2             25.5350710798      -11.7522308137       74.8012739465  TIP3      7669            0.0000000000
     45260      7862  TIP3      OH2            27.6060448927      -16.8257925422       71.4801250362  TIP3      7670            0.0000000000
     45261      7862  TIP3      H1             27.4344873217      -15.8619342741       71.3691948639  TIP3      7670            0.0000000000
     45262      7862  TIP3      H2             26.8670018245      -17.1897220053       70.9614592341  TIP3      7670            0.0000000000
     45263      7863  TIP3      OH2            28.8963340969      -12.4935396149       75.0847425506  TIP3      7671            0.0000000000
     45264      7863  TIP3      H1             28.5703430078      -12.7076237308       75.9825444536  TIP3      7671            0.0000000000
     45265      7863  TIP3      H2             28.1152738898      -12.6864117880       74.5292854699  TIP3      7671            0.0000000000
     45266      7864  TIP3      OH2            31.5605655304      -13.3376188927       74.1727900414  TIP3      7672            0.0000000000
     45267      7864  TIP3      H1             30.6022929793      -13.3023652792       74.3151348973  TIP3      7672            0.0000000000
     45268      7864  TIP3      H2             31.8795500526      -13.9788513950       74.8389869508  TIP3      7672            0.0000000000
     45269      7865  TIP3      OH2            33.2084708823      -14.7427376884       76.0952022015  TIP3      7673            0.0000000000
     45270      7865  TIP3      H1             33.1297740409      -15.7212651376       76.1023917541  TIP3      7673            0.0000000000
     45271      7865  TIP3      H2             32.9178441356      -14.4417494644       76.9881284091  TIP3      7673            0.0000000000
     45272      7866  TIP3      OH2            22.9795106195      -13.4508657160       75.1966914188  TIP3      7674            0.0000000000
     45273      7866  TIP3      H1             23.2154092395      -14.1903823625       74.6087980894  TIP3      7674            0.0000000000
     45274      7866  TIP3      H2             22.8777446378      -13.8986589066       76.0610463426  TIP3      7674            0.0000000000
     45275      7867  TIP3      OH2            27.8321039544      -17.4348702873       74.1709513644  TIP3      7675            0.0000000000
     45276      7867  TIP3      H1             28.5172367790      -18.1323970641       74.1403105892  TIP3      7675            0.0000000000
     45277      7867  TIP3      H2             27.7252144882      -17.2781820967       73.2147061096  TIP3      7675            0.0000000000
     45278      7868  TIP3      OH2            28.1684946326      -15.8348852494       76.2697543596  TIP3      7676            0.0000000000
     45279      7868  TIP3      H1             28.0169124354      -16.3317409902       75.4256516552  TIP3      7676            0.0000000000
     45280      7868  TIP3      H2             27.6073728759      -15.0448437279       76.1548217603  TIP3      7676            0.0000000000
     45281      7869  TIP3      OH2            27.6604281726        1.0988147731       59.4494161926  TIP3      7677            0.0000000000
     45282      7869  TIP3      H1             28.6276438881        1.1854454947       59.5185975586  TIP3      7677            0.0000000000
     45283      7869  TIP3      H2             27.5098485852        1.7029466600       58.7125503004  TIP3      7677            0.0000000000
     45284      7870  TIP3      OH2            21.2104191326       -4.3294574237       58.9221201698  TIP3      7678            0.0000000000
     45285      7870  TIP3      H1             22.1783261463       -4.2367779711       59.0966326476  TIP3      7678            0.0000000000
     45286      7870  TIP3      H2             21.2588076753       -4.9717615645       58.1729799755  TIP3      7678            0.0000000000
     45287      7871  TIP3      OH2            20.0154623179        1.0602039641       63.8709242869  TIP3      7679            0.0000000000
     45288      7871  TIP3      H1             19.2697840776        0.6009508322       63.4158327861  TIP3      7679            0.0000000000
     45289      7871  TIP3      H2             20.2431514122        0.4171131750       64.5572016261  TIP3      7679            0.0000000000
     45290      7872  TIP3      OH2            20.7330560243       -0.7926140815       65.7710763918  TIP3      7680            0.0000000000
     45291      7872  TIP3      H1             20.2624395112       -1.6238390210       65.9769878868  TIP3      7680            0.0000000000
     45292      7872  TIP3      H2             20.8735868045       -0.3989309329       66.6633338867  TIP3      7680            0.0000000000
     45293      7873  TIP3      OH2            36.2811779738       -2.7493823726       70.9406655202  TIP3      7681            0.0000000000
     45294      7873  TIP3      H1             35.6200080716       -2.3169164835       71.4998368597  TIP3      7681            0.0000000000
     45295      7873  TIP3      H2             35.7537594275       -3.1153302600       70.2070659348  TIP3      7681            0.0000000000
     45296      7874  TIP3      OH2            35.3658762139       -9.7450972721       64.2926105318  TIP3      7682            0.0000000000
     45297      7874  TIP3      H1             35.6211138063      -10.6724318327       64.3253601160  TIP3      7682            0.0000000000
     45298      7874  TIP3      H2             35.4829644122       -9.4952976673       65.2324012347  TIP3      7682            0.0000000000
     45299      7875  TIP3      OH2            20.8743149821       -7.7269102942       68.2572648621  TIP3      7683            0.0000000000
     45300      7875  TIP3      H1             21.0513399821       -7.8102955049       67.2935035270  TIP3      7683            0.0000000000
     45301      7875  TIP3      H2             21.7673150998       -7.9074421568       68.6096666359  TIP3      7683            0.0000000000
     45302      7876  TIP3      OH2            35.9357953578      -13.7658830847       57.6971084383  TIP3      7684            0.0000000000
     45303      7876  TIP3      H1             36.5371650222      -14.2442319427       58.2726841311  TIP3      7684            0.0000000000
     45304      7876  TIP3      H2             35.0978414363      -14.2332257137       57.8441543529  TIP3      7684            0.0000000000
     45305      7877  TIP3      OH2            35.5023367885      -12.2953761638       62.4918791339  TIP3      7685            0.0000000000
     45306      7877  TIP3      H1             35.7885758819      -13.1360170044       62.8958501246  TIP3      7685            0.0000000000
     45307      7877  TIP3      H2             36.3528687111      -11.9481071119       62.1984621075  TIP3      7685            0.0000000000
     45308      7878  TIP3      OH2           -37.0498780395      -12.5240389806       68.0994073182  TIP3      7686            0.0000000000
     45309      7878  TIP3      H1            -36.1639148615      -12.1722997613       67.9563254057  TIP3      7686            0.0000000000
     45310      7878  TIP3      H2            -37.2708490949      -11.8805748286       68.7940027981  TIP3      7686            0.0000000000
     45311      7879  TIP3      OH2            36.2694969645      -10.9105961901       71.1483809580  TIP3      7687            0.0000000000
     45312      7879  TIP3      H1             35.3290347708      -10.6473138409       71.2242368941  TIP3      7687            0.0000000000
     45313      7879  TIP3      H2             36.6217959345      -10.2266157109       70.5447934393  TIP3      7687            0.0000000000
     45314      7880  TIP3      OH2            20.4980701328      -12.4426737427       74.3878203413  TIP3      7688            0.0000000000
     45315      7880  TIP3      H1             21.4314799571      -12.6407802897       74.6035882691  TIP3      7688            0.0000000000
     45316      7880  TIP3      H2             20.0367762460      -13.2544662682       74.6941685684  TIP3      7688            0.0000000000
     45317      7881  TIP3      OH2            35.3046180489      -15.2526015090       63.3494798680  TIP3      7689            0.0000000000
     45318      7881  TIP3      H1             36.2343350499      -15.4256213529       63.5823465800  TIP3      7689            0.0000000000
     45319      7881  TIP3      H2             35.3275495815      -15.6835444048       62.4649240487  TIP3      7689            0.0000000000
     45320      7882  TIP3      OH2            21.6915135792      -14.1371338978       67.2609754235  TIP3      7690            0.0000000000
     45321      7882  TIP3      H1             22.1521409341      -14.9641028782       67.5158732574  TIP3      7690            0.0000000000
     45322      7882  TIP3      H2             22.2438600995      -13.4440471544       67.6475769414  TIP3      7690            0.0000000000
     45323      7883  TIP3      OH2            19.9742281149      -11.1351038673       68.2957654833  TIP3      7691            0.0000000000
     45324      7883  TIP3      H1             20.5377574102      -11.3869349295       67.5359027348  TIP3      7691            0.0000000000
     45325      7883  TIP3      H2             20.4426133612      -10.3321179407       68.5653572891  TIP3      7691            0.0000000000
     45326      7884  TIP3      OH2            20.3428258365      -14.8585081664       62.3808313732  TIP3      7692            0.0000000000
     45327      7884  TIP3      H1             19.3995171266      -14.7022996396       62.2152461865  TIP3      7692            0.0000000000
     45328      7884  TIP3      H2             20.7601120146      -14.3846388156       61.6430103788  TIP3      7692            0.0000000000
     45329      7885  TIP3      OH2            34.8891084229       -0.1095311101       64.4150482592  TIP3      7693            0.0000000000
     45330      7885  TIP3      H1             35.5628071506       -0.4361947574       63.8017548936  TIP3      7693            0.0000000000
     45331      7885  TIP3      H2             35.4125597401        0.4733346366       64.9911269600  TIP3      7693            0.0000000000
     45332      7886  TIP3      OH2            20.2869799570      -16.2269262174       70.6625207454  TIP3      7694            0.0000000000
     45333      7886  TIP3      H1             19.6206270544      -16.4165762781       71.3459362516  TIP3      7694            0.0000000000
     45334      7886  TIP3      H2             19.8311964275      -15.5504349112       70.1238964713  TIP3      7694            0.0000000000
     45335      7887  TIP3      OH2            22.5286412848       -3.0010812251       74.8305125286  TIP3      7695            0.0000000000
     45336      7887  TIP3      H1             21.6836628132       -2.7996490129       74.3997389951  TIP3      7695            0.0000000000
     45337      7887  TIP3      H2             22.2540639966       -3.0834696893       75.7496384632  TIP3      7695            0.0000000000
     45338      7888  TIP3      OH2            25.4059060936       -2.0276166023       71.0639449049  TIP3      7696            0.0000000000
     45339      7888  TIP3      H1             25.1066701153       -1.1324559913       70.8515403900  TIP3      7696            0.0000000000
     45340      7888  TIP3      H2             26.3456269843       -1.9339739038       70.7970447053  TIP3      7696            0.0000000000
     45341      7889  TIP3      OH2            29.7534728253       -0.6040029262       74.0262172765  TIP3      7697            0.0000000000
     45342      7889  TIP3      H1             29.8987808461       -0.9351320163       74.9492601498  TIP3      7697            0.0000000000
     45343      7889  TIP3      H2             30.6529820931       -0.2972666148       73.7828943517  TIP3      7697            0.0000000000
     45344      7890  TIP3      OH2            32.0520830359        0.6611792012       73.3332139855  TIP3      7698            0.0000000000
     45345      7890  TIP3      H1             32.7986924340        0.1006831192       73.0802850828  TIP3      7698            0.0000000000
     45346      7890  TIP3      H2             32.4404415059        1.1254809369       74.1104358075  TIP3      7698            0.0000000000
     45347      7891  TIP3      OH2            22.8405447591        1.2122011150       71.0863567968  TIP3      7699            0.0000000000
     45348      7891  TIP3      H1             22.1139565636        1.7314593323       70.7104839740  TIP3      7699            0.0000000000
     45349      7891  TIP3      H2             22.5463844236        1.0285185456       71.9907856524  TIP3      7699            0.0000000000
     45350      7892  TIP3      OH2            25.3002242625        0.7668149770       70.1404074625  TIP3      7700            0.0000000000
     45351      7892  TIP3      H1             24.4359979030        0.9663597758       70.5770072052  TIP3      7700            0.0000000000
     45352      7892  TIP3      H2             25.2755175172        1.4117466100       69.4096051617  TIP3      7700            0.0000000000
     45353      7893  TIP3      OH2            29.9880994212        0.6924261712       69.3499977122  TIP3      7701            0.0000000000
     45354      7893  TIP3      H1             29.5606366224        1.2661295023       68.6929719500  TIP3      7701            0.0000000000
     45355      7893  TIP3      H2             30.1567538610        1.3322308966       70.0748862586  TIP3      7701            0.0000000000
     45356      7894  TIP3      OH2            32.3110330063       -0.4883500667       70.3726221989  TIP3      7702            0.0000000000
     45357      7894  TIP3      H1             31.4568925479       -0.2149309375       70.0048518766  TIP3      7702            0.0000000000
     45358      7894  TIP3      H2             32.7732275578        0.3685183359       70.3027792317  TIP3      7702            0.0000000000
     45359      7895  TIP3      OH2            34.7587828084        1.0849072534       70.5835561816  TIP3      7703            0.0000000000
     45360      7895  TIP3      H1             34.7566057715        2.0371423644       70.3683408939  TIP3      7703            0.0000000000
     45361      7895  TIP3      H2             35.1039142282        0.7154004335       69.7475163134  TIP3      7703            0.0000000000
     45362      7896  TIP3      OH2            22.2890826735       -0.2530713590       67.9693328858  TIP3      7704            0.0000000000
     45363      7896  TIP3      H1             22.2130000432       -0.5456188613       68.9101385249  TIP3      7704            0.0000000000
     45364      7896  TIP3      H2             23.2225254724       -0.4314467890       67.7621072493  TIP3      7704            0.0000000000
     45365      7897  TIP3      OH2            24.4718837970       -1.4456685938       66.7397717071  TIP3      7705            0.0000000000
     45366      7897  TIP3      H1             24.4042924011       -2.3818732396       67.0231616251  TIP3      7705            0.0000000000
     45367      7897  TIP3      H2             25.3387820439       -1.2382470286       67.1825242299  TIP3      7705            0.0000000000
     45368      7898  TIP3      OH2            26.9543647120       -0.9507577468       67.5755455127  TIP3      7706            0.0000000000
     45369      7898  TIP3      H1             27.1706824440       -1.8630366875       67.3200973182  TIP3      7706            0.0000000000
     45370      7898  TIP3      H2             27.0579039206       -0.9831541818       68.5394606588  TIP3      7706            0.0000000000
     45371      7899  TIP3      OH2            30.4246480666      -15.2864271200       66.7141339990  TIP3      7707            0.0000000000
     45372      7899  TIP3      H1             29.7606990751      -15.9362006336       66.9943000297  TIP3      7707            0.0000000000
     45373      7899  TIP3      H2             30.9912451118      -15.8117656821       66.1335222475  TIP3      7707            0.0000000000
     45374      7900  TIP3      OH2            35.5899828947      -17.2481022200       66.7906985865  TIP3      7708            0.0000000000
     45375      7900  TIP3      H1             36.1681208389      -16.6253988857       66.3410931662  TIP3      7708            0.0000000000
     45376      7900  TIP3      H2             34.6986765693      -16.8903233108       66.5725429077  TIP3      7708            0.0000000000
     45377      7901  TIP3      OH2            22.8179035200      -16.6619845621       64.5594329795  TIP3      7709            0.0000000000
     45378      7901  TIP3      H1             22.0201369142      -16.8555265091       64.0306594357  TIP3      7709            0.0000000000
     45379      7901  TIP3      H2             23.2755216436      -17.5230927074       64.4989127175  TIP3      7709            0.0000000000
     45380      7902  TIP3      OH2            21.5824519224      -16.9088898756       60.2803161677  TIP3      7710            0.0000000000
     45381      7902  TIP3      H1             22.0751510841      -16.2584226003       59.7460223309  TIP3      7710            0.0000000000
     45382      7902  TIP3      H2             21.0153125973      -16.3333351333       60.8189562125  TIP3      7710            0.0000000000
     45383      7903  TIP3      OH2            27.2841011746      -16.7369351267       64.3443634070  TIP3      7711            0.0000000000
     45384      7903  TIP3      H1             28.1843818047      -16.3771914358       64.2714135960  TIP3      7711            0.0000000000
     45385      7903  TIP3      H2             27.2480329703      -16.9562911505       65.2742269155  TIP3      7711            0.0000000000
     45386      7904  TIP3      OH2            33.0200607784      -16.7609041837       65.9726159656  TIP3      7712            0.0000000000
     45387      7904  TIP3      H1             32.9642470687      -16.5785785144       65.0261617348  TIP3      7712            0.0000000000
     45388      7904  TIP3      H2             32.5882455376      -17.6423057086       66.0822708478  TIP3      7712            0.0000000000
     45389      7905  TIP3      OH2            34.2260886657      -16.7565781328       61.5537365549  TIP3      7713            0.0000000000
     45390      7905  TIP3      H1             33.5205850025      -16.1031279275       61.4813519982  TIP3      7713            0.0000000000
     45391      7905  TIP3      H2             33.7735172949      -17.5774805044       61.8370450529  TIP3      7713            0.0000000000
     45392      7906  TIP3      OH2            21.4812905116       -0.9653621320       61.3483982193  TIP3      7714            0.0000000000
     45393      7906  TIP3      H1             20.8554681675       -0.9827509053       60.5939304322  TIP3      7714            0.0000000000
     45394      7906  TIP3      H2             21.4925916280        0.0014251710       61.4619944397  TIP3      7714            0.0000000000
     45395      7907  TIP3      OH2            23.4108914694      -14.9645848469       58.7924949535  TIP3      7715            0.0000000000
     45396      7907  TIP3      H1             23.9428760808      -15.5821711653       58.2641550454  TIP3      7715            0.0000000000
     45397      7907  TIP3      H2             24.0768839096      -14.6423947130       59.4273757945  TIP3      7715            0.0000000000
     45398      7908  TIP3      OH2            28.4388019034      -14.7213396732       61.1948237737  TIP3      7716            0.0000000000
     45399      7908  TIP3      H1             28.6893952088      -15.2979646776       61.9363499364  TIP3      7716            0.0000000000
     45400      7908  TIP3      H2             28.5073819202      -13.8553450871       61.6537170405  TIP3      7716            0.0000000000
     45401      7909  TIP3      OH2            30.3621329723        0.3482084273       59.6419843631  TIP3      7717            0.0000000000
     45402      7909  TIP3      H1             31.2817264702        0.5805714054       59.4243149469  TIP3      7717            0.0000000000
     45403      7909  TIP3      H2             30.1495826679       -0.1695940516       58.8388273683  TIP3      7717            0.0000000000
     45404      7910  TIP3      OH2            22.6895786564      -16.1297905820       73.9908784693  TIP3      7718            0.0000000000
     45405      7910  TIP3      H1             22.3039578542      -16.9195603592       74.4176591941  TIP3      7718            0.0000000000
     45406      7910  TIP3      H2             23.5995450748      -16.1644852158       74.3735428539  TIP3      7718            0.0000000000
     45407      7911  TIP3      OH2            24.7087062625      -16.7327841377       75.6303965997  TIP3      7719            0.0000000000
     45408      7911  TIP3      H1             25.5909647650      -17.0890708730       75.4068004400  TIP3      7719            0.0000000000
     45409      7911  TIP3      H2             24.3207381216      -17.5264473487       76.0550318852  TIP3      7719            0.0000000000
     45410      7912  TIP3      OH2            23.2905459794        0.0289419462       58.2545960878  TIP3      7720            0.0000000000
     45411      7912  TIP3      H1             23.0323303754        0.2860732351       59.1501527609  TIP3      7720            0.0000000000
     45412      7912  TIP3      H2             24.0741147477       -0.5352285382       58.4069249418  TIP3      7720            0.0000000000
     45413      7913  TIP3      OH2            33.1176696900      -17.4349527054       75.7991466006  TIP3      7721            0.0000000000
     45414      7913  TIP3      H1             33.2027750547      -17.9107839385       76.6476758685  TIP3      7721            0.0000000000
     45415      7913  TIP3      H2             34.0360877255      -17.4548948925       75.4427293969  TIP3      7721            0.0000000000
     45416      7914  TIP3      OH2            36.1285659567       -1.5106320110       74.5455932581  TIP3      7722            0.0000000000
     45417      7914  TIP3      H1             35.4482543089       -1.5756020156       73.8430890506  TIP3      7722            0.0000000000
     45418      7914  TIP3      H2             36.1178089513       -0.5332098028       74.6602373174  TIP3      7722            0.0000000000
     45419      7915  TIP3      OH2           -24.6606866627       11.3357336704       64.4048411906  TIP3      7723            0.0000000000
     45420      7915  TIP3      H1            -24.6822428194       12.3162273036       64.3881851046  TIP3      7723            0.0000000000
     45421      7915  TIP3      H2            -25.3952609572       11.1013129167       63.8135169798  TIP3      7723            0.0000000000
     45422      7916  TIP3      OH2           -25.8133300900       10.5850019861       67.9191403451  TIP3      7724            0.0000000000
     45423      7916  TIP3      H1            -25.8219424761        9.9359555017       68.6366751456  TIP3      7724            0.0000000000
     45424      7916  TIP3      H2            -26.1619340168       10.0833352680       67.1629255989  TIP3      7724            0.0000000000
     45425      7917  TIP3      OH2           -33.4032861523       10.2522177279       69.4326788325  TIP3      7725            0.0000000000
     45426      7917  TIP3      H1            -33.3467323033        9.5816292663       70.1470602784  TIP3      7725            0.0000000000
     45427      7917  TIP3      H2            -32.7038842627       10.8597327990       69.7108956922  TIP3      7725            0.0000000000
     45428      7918  TIP3      OH2           -22.1217222619       13.5471354991       66.1970652692  TIP3      7726            0.0000000000
     45429      7918  TIP3      H1            -22.5432905653       12.8353759909       66.6831623838  TIP3      7726            0.0000000000
     45430      7918  TIP3      H2            -22.0986195714       14.2505098667       66.8713310680  TIP3      7726            0.0000000000
     45431      7919  TIP3      OH2           -32.5359946100       14.6960844148       67.9861827557  TIP3      7727            0.0000000000
     45432      7919  TIP3      H1            -32.8500556496       13.8396708152       67.6406845760  TIP3      7727            0.0000000000
     45433      7919  TIP3      H2            -31.5766378520       14.5295788460       68.0093837928  TIP3      7727            0.0000000000
     45434      7920  TIP3      OH2           -35.6217322402        8.2653388543       63.0428054709  TIP3      7728            0.0000000000
     45435      7920  TIP3      H1            -36.0665891184        9.0612443927       63.4195882431  TIP3      7728            0.0000000000
     45436      7920  TIP3      H2            -36.4133168919        7.7319872929       63.0421657247  TIP3      7728            0.0000000000
     45437      7921  TIP3      OH2           -35.2190984359       10.4242738174       65.5587017468  TIP3      7729            0.0000000000
     45438      7921  TIP3      H1            -34.9170255831        9.6683731717       66.0839815622  TIP3      7729            0.0000000000
     45439      7921  TIP3      H2            -34.4803125795       10.6009873048       64.9594319328  TIP3      7729            0.0000000000
     45440      7922  TIP3      OH2           -25.0070172518       18.6967806670       66.4388714114  TIP3      7730            0.0000000000
     45441      7922  TIP3      H1            -24.3570795070       18.0083557536       66.1516064204  TIP3      7730            0.0000000000
     45442      7922  TIP3      H2            -25.2215635408       18.3596482635       67.3085954085  TIP3      7730            0.0000000000
     45443      7923  TIP3      OH2           -27.4366828340       12.9880879164       68.3911350641  TIP3      7731            0.0000000000
     45444      7923  TIP3      H1            -27.0979874309       12.3621019600       67.7306354946  TIP3      7731            0.0000000000
     45445      7923  TIP3      H2            -26.6248380578       13.1465968172       68.9044790103  TIP3      7731            0.0000000000
     45446      7924  TIP3      OH2           -18.8698658078        4.6589391148       69.1216779683  TIP3      7732            0.0000000000
     45447      7924  TIP3      H1            -18.6559609113        5.2369358605       69.8852812349  TIP3      7732            0.0000000000
     45448      7924  TIP3      H2            -18.2682893344        5.0604263031       68.4715988971  TIP3      7732            0.0000000000
     45449      7925  TIP3      OH2           -24.2692996782        7.4376165067       68.7150083981  TIP3      7733            0.0000000000
     45450      7925  TIP3      H1            -24.1105386304        6.4915450268       68.6527283001  TIP3      7733            0.0000000000
     45451      7925  TIP3      H2            -24.3768560293        7.6298281672       67.7589237511  TIP3      7733            0.0000000000
     45452      7926  TIP3      OH2           -31.1516679948        5.5485495374       65.9253313300  TIP3      7734            0.0000000000
     45453      7926  TIP3      H1            -31.0375475041        6.3766586687       65.4241131476  TIP3      7734            0.0000000000
     45454      7926  TIP3      H2            -31.5347170188        4.9714736226       65.2300848614  TIP3      7734            0.0000000000
     45455      7927  TIP3      OH2           -23.4170270313        5.6236995934       64.2856922685  TIP3      7735            0.0000000000
     45456      7927  TIP3      H1            -22.7648495396        5.3110841225       64.9539382543  TIP3      7735            0.0000000000
     45457      7927  TIP3      H2            -22.8550413327        6.2061939232       63.7541530298  TIP3      7735            0.0000000000
     45458      7928  TIP3      OH2           -34.5633875431        7.8721343340       66.5943744470  TIP3      7736            0.0000000000
     45459      7928  TIP3      H1            -33.8355857835        7.4058367544       67.0575633766  TIP3      7736            0.0000000000
     45460      7928  TIP3      H2            -34.3819222150        7.5958954487       65.6863795615  TIP3      7736            0.0000000000
     45461      7929  TIP3      OH2           -29.3786194453        9.5113340936       65.9722532760  TIP3      7737            0.0000000000
     45462      7929  TIP3      H1            -28.7014667081        8.9332230404       66.3662022964  TIP3      7737            0.0000000000
     45463      7929  TIP3      H2            -29.8899357116        8.8519348421       65.4640839375  TIP3      7737            0.0000000000
     45464      7930  TIP3      OH2           -18.4354682943        6.0312126434       71.3811045488  TIP3      7738            0.0000000000
     45465      7930  TIP3      H1            -18.9997760364        6.8297829993       71.2511338706  TIP3      7738            0.0000000000
     45466      7930  TIP3      H2            -18.3504559884        6.0053823479       72.3429836652  TIP3      7738            0.0000000000
     45467      7931  TIP3      OH2           -32.2035891505        4.4482702206       69.9526069113  TIP3      7739            0.0000000000
     45468      7931  TIP3      H1            -32.5142779631        5.0160316622       69.2163645013  TIP3      7739            0.0000000000
     45469      7931  TIP3      H2            -32.8886532434        4.6688701720       70.6333925572  TIP3      7739            0.0000000000
     45470      7932  TIP3      OH2           -24.9577174621       13.9238502186       63.5040907527  TIP3      7740            0.0000000000
     45471      7932  TIP3      H1            -25.2206751709       13.6530765446       62.6151447321  TIP3      7740            0.0000000000
     45472      7932  TIP3      H2            -25.2636955263       14.8588191530       63.5550396379  TIP3      7740            0.0000000000
     45473      7933  TIP3      OH2           -29.7072521358       12.0895458254       70.1966203788  TIP3      7741            0.0000000000
     45474      7933  TIP3      H1            -30.4259094953       12.7238203156       70.4155666519  TIP3      7741            0.0000000000
     45475      7933  TIP3      H2            -29.0137334172       12.6958893316       69.9016339277  TIP3      7741            0.0000000000
     45476      7934  TIP3      OH2           -21.6337108667        4.9953421626       66.3192334316  TIP3      7742            0.0000000000
     45477      7934  TIP3      H1            -21.8014429774        4.1858720533       66.8018192855  TIP3      7742            0.0000000000
     45478      7934  TIP3      H2            -20.9276182027        5.4102419745       66.8420319380  TIP3      7742            0.0000000000
     45479      7935  TIP3      OH2           -32.6996026319        6.2836746292       67.9919215316  TIP3      7743            0.0000000000
     45480      7935  TIP3      H1            -32.0813214631        6.9810189709       68.3158599414  TIP3      7743            0.0000000000
     45481      7935  TIP3      H2            -32.1530121930        5.8967025335       67.2575955661  TIP3      7743            0.0000000000
     45482      7936  TIP3      OH2           -31.2939616627       14.0763202866       71.0047504660  TIP3      7744            0.0000000000
     45483      7936  TIP3      H1            -31.3382371373       14.9975683595       70.6792509262  TIP3      7744            0.0000000000
     45484      7936  TIP3      H2            -32.1746520781       14.0005556552       71.4464548036  TIP3      7744            0.0000000000
     45485      7937  TIP3      OH2           -35.2385132200       13.7387706102       61.7613357218  TIP3      7745            0.0000000000
     45486      7937  TIP3      H1            -35.4403593837       14.0757444499       60.8745916119  TIP3      7745            0.0000000000
     45487      7937  TIP3      H2            -35.1276386051       14.5472572498       62.2979430576  TIP3      7745            0.0000000000
     45488      7938  TIP3      OH2           -21.5959759453       15.3765527023       68.5694040090  TIP3      7746            0.0000000000
     45489      7938  TIP3      H1            -22.5640187019       15.4856735207       68.6886630888  TIP3      7746            0.0000000000
     45490      7938  TIP3      H2            -21.3276030662       16.2921571205       68.3649609258  TIP3      7746            0.0000000000
     45491      7939  TIP3      OH2           -21.2847539111        3.7078172957       69.9389088427  TIP3      7747            0.0000000000
     45492      7939  TIP3      H1            -21.8750215343        4.4059743737       69.6563303824  TIP3      7747            0.0000000000
     45493      7939  TIP3      H2            -20.4860277609        4.0094531892       69.4350769548  TIP3      7747            0.0000000000
     45494      7940  TIP3      OH2           -28.3054610101        1.7856619521       67.4166143943  TIP3      7748            0.0000000000
     45495      7940  TIP3      H1            -28.4379380422        0.8206585525       67.3458638639  TIP3      7748            0.0000000000
     45496      7940  TIP3      H2            -29.1850451107        2.0848000230       67.7291871974  TIP3      7748            0.0000000000
     45497      7941  TIP3      OH2           -23.3348190865       17.1611625795       65.1551010225  TIP3      7749            0.0000000000
     45498      7941  TIP3      H1            -22.9080943955       16.4405268706       64.6474632892  TIP3      7749            0.0000000000
     45499      7941  TIP3      H2            -22.9006342663       17.9492487360       64.7648302153  TIP3      7749            0.0000000000
     45500      7942  TIP3      OH2           -22.1210531516       15.0865383527       63.6762639096  TIP3      7750            0.0000000000
     45501      7942  TIP3      H1            -22.4242278679       14.3899545189       63.0724766228  TIP3      7750            0.0000000000
     45502      7942  TIP3      H2            -22.0887963157       14.5958422544       64.5172756125  TIP3      7750            0.0000000000
     45503      7943  TIP3      OH2           -20.5077921931       13.6825099504       72.1695624431  TIP3      7751            0.0000000000
     45504      7943  TIP3      H1            -20.3616422168       13.0296010183       71.4498693491  TIP3      7751            0.0000000000
     45505      7943  TIP3      H2            -20.3000989437       14.5237793331       71.7245291334  TIP3      7751            0.0000000000
     45506      7944  TIP3      OH2           -26.0093058292       10.5657759953       61.9295205799  TIP3      7752            0.0000000000
     45507      7944  TIP3      H1            -26.7037767109       11.1459129157       61.5698203457  TIP3      7752            0.0000000000
     45508      7944  TIP3      H2            -25.2992289693       10.6659239347       61.2690868678  TIP3      7752            0.0000000000
     45509      7945  TIP3      OH2           -25.9284273357        9.1398313756       58.9402924707  TIP3      7753            0.0000000000
     45510      7945  TIP3      H1            -25.2238488561        9.1210293236       59.6055284298  TIP3      7753            0.0000000000
     45511      7945  TIP3      H2            -25.6227438854        8.4215456624       58.3716065177  TIP3      7753            0.0000000000
     45512      7946  TIP3      OH2           -18.6079721071        9.9897360928       70.2268803157  TIP3      7754            0.0000000000
     45513      7946  TIP3      H1            -19.2771830091       10.7068517909       70.2527302136  TIP3      7754            0.0000000000
     45514      7946  TIP3      H2            -18.1264277972       10.2239830700       69.4115192398  TIP3      7754            0.0000000000
     45515      7947  TIP3      OH2           -22.5521461388       10.7778203544       62.8497946300  TIP3      7755            0.0000000000
     45516      7947  TIP3      H1            -23.2985519302       11.0230173623       63.4494103735  TIP3      7755            0.0000000000
     45517      7947  TIP3      H2            -22.0858596202       10.1040354286       63.3748449904  TIP3      7755            0.0000000000
     45518      7948  TIP3      OH2           -22.6468574793        8.9267767717       71.9835254324  TIP3      7756            0.0000000000
     45519      7948  TIP3      H1            -22.6195289869        9.7599541204       72.4915641108  TIP3      7756            0.0000000000
     45520      7948  TIP3      H2            -23.2642536659        9.2475151282       71.2862692437  TIP3      7756            0.0000000000
     45521      7949  TIP3      OH2           -30.9298636501       11.4497991890       64.7734763224  TIP3      7757            0.0000000000
     45522      7949  TIP3      H1            -31.2828163183       11.0479025062       63.9425799550  TIP3      7757            0.0000000000
     45523      7949  TIP3      H2            -30.3277280368       10.7476898995       65.1044445054  TIP3      7757            0.0000000000
     45524      7950  TIP3      OH2           -29.6285274484       14.8203278457       67.4471565513  TIP3      7758            0.0000000000
     45525      7950  TIP3      H1            -29.6325725006       14.2982139422       66.6372002465  TIP3      7758            0.0000000000
     45526      7950  TIP3      H2            -28.8460845355       14.4674319311       67.9085309962  TIP3      7758            0.0000000000
     45527      7951  TIP3      OH2           -30.5902476887       10.1807838736       68.4319187939  TIP3      7759            0.0000000000
     45528      7951  TIP3      H1            -30.0591686604       10.2946451063       67.6224152027  TIP3      7759            0.0000000000
     45529      7951  TIP3      H2            -30.2315975556       10.8637254769       69.0422697134  TIP3      7759            0.0000000000
     45530      7952  TIP3      OH2           -24.2098320981       15.7609892179       69.1348463423  TIP3      7760            0.0000000000
     45531      7952  TIP3      H1            -24.4955406312       16.4009372879       69.7947068528  TIP3      7760            0.0000000000
     45532      7952  TIP3      H2            -24.4638892801       14.9079844958       69.5609612382  TIP3      7760            0.0000000000
     45533      7953  TIP3      OH2           -29.6671712168       14.6163268116       73.1268115247  TIP3      7761            0.0000000000
     45534      7953  TIP3      H1            -30.0825552185       15.3569881505       73.6163724454  TIP3      7761            0.0000000000
     45535      7953  TIP3      H2            -30.3378824233       14.4203229120       72.4290558118  TIP3      7761            0.0000000000
     45536      7954  TIP3      OH2           -23.6833313070        9.9862442463       60.5173842158  TIP3      7762            0.0000000000
     45537      7954  TIP3      H1            -23.1273465850       10.1584822980       61.3177799943  TIP3      7762            0.0000000000
     45538      7954  TIP3      H2            -23.2320280176       10.4798602793       59.7962028532  TIP3      7762            0.0000000000
     45539      7955  TIP3      OH2           -32.7286829229       10.7912760903       72.3067263475  TIP3      7763            0.0000000000
     45540      7955  TIP3      H1            -32.6824877034       11.4710579211       73.0014074041  TIP3      7763            0.0000000000
     45541      7955  TIP3      H2            -33.6688262953       10.8767142598       72.0761708314  TIP3      7763            0.0000000000
     45542      7956  TIP3      OH2           -25.9721859226       16.7062605753       63.9917482769  TIP3      7764            0.0000000000
     45543      7956  TIP3      H1            -25.5406828637       17.0129834333       64.7969176942  TIP3      7764            0.0000000000
     45544      7956  TIP3      H2            -26.5293954440       17.4553597812       63.7522602872  TIP3      7764            0.0000000000
     45545      7957  TIP3      OH2           -31.4206343581       16.6413090772       73.8725257757  TIP3      7765            0.0000000000
     45546      7957  TIP3      H1            -31.4964361728       16.5584952883       72.9048795393  TIP3      7765            0.0000000000
     45547      7957  TIP3      H2            -32.3534512721       16.5148491175       74.1380638537  TIP3      7765            0.0000000000
     45548      7958  TIP3      OH2           -19.9601514533        1.7141621957       60.4228474848  TIP3      7766            0.0000000000
     45549      7958  TIP3      H1            -20.9069498232        1.8287765913       60.6623442839  TIP3      7766            0.0000000000
     45550      7958  TIP3      H2            -19.7581564161        2.5547486601       59.9783825975  TIP3      7766            0.0000000000
     45551      7959  TIP3      OH2           -31.9676474461       10.4549136307       62.3992758878  TIP3      7767            0.0000000000
     45552      7959  TIP3      H1            -32.2535704752       11.2363886442       61.8831409934  TIP3      7767            0.0000000000
     45553      7959  TIP3      H2            -32.6219168405        9.7938341244       62.1620233113  TIP3      7767            0.0000000000
     45554      7960  TIP3      OH2           -18.8468227933       16.0674589695       58.7707968202  TIP3      7768            0.0000000000
     45555      7960  TIP3      H1            -18.6807830122       17.0104622896       58.9404508559  TIP3      7768            0.0000000000
     45556      7960  TIP3      H2            -17.9233988796       15.7544949740       58.7677070022  TIP3      7768            0.0000000000
     45557      7961  TIP3      OH2           -35.2931490048       12.7607485492       71.0268336066  TIP3      7769            0.0000000000
     45558      7961  TIP3      H1            -36.0669998751       12.8879333365       70.4366125755  TIP3      7769            0.0000000000
     45559      7961  TIP3      H2            -35.6673720241       11.9758269844       71.4897531446  TIP3      7769            0.0000000000
     45560      7962  TIP3      OH2           -35.8264619149       15.8694884415       67.7789915610  TIP3      7770            0.0000000000
     45561      7962  TIP3      H1            -35.0068022525       15.4602288998       68.0687805039  TIP3      7770            0.0000000000
     45562      7962  TIP3      H2            -36.1157387450       16.3288679027       68.5796515877  TIP3      7770            0.0000000000
     45563      7963  TIP3      OH2           -17.9031596478       16.3288444459       73.7190924927  TIP3      7771            0.0000000000
     45564      7963  TIP3      H1            -18.0140705927       15.3690621838       73.7316679610  TIP3      7771            0.0000000000
     45565      7963  TIP3      H2            -18.7545354870       16.5811772195       74.1533185502  TIP3      7771            0.0000000000
     45566      7964  TIP3      OH2           -26.9350152611       15.8732070397       72.6160107479  TIP3      7772            0.0000000000
     45567      7964  TIP3      H1            -26.8779159363       16.7101255026       73.1367236053  TIP3      7772            0.0000000000
     45568      7964  TIP3      H2            -27.8086517751       15.5129848880       72.8624036565  TIP3      7772            0.0000000000
     45569      7965  TIP3      OH2           -26.4897418401       19.6139044800       62.4012774529  TIP3      7773            0.0000000000
     45570      7965  TIP3      H1            -26.6018592737       19.5368845856       61.4364316877  TIP3      7773            0.0000000000
     45571      7965  TIP3      H2            -26.4891006491       20.5762607890       62.5578692356  TIP3      7773            0.0000000000
     45572      7966  TIP3      OH2           -32.8655837938       18.4993750189       64.2242211739  TIP3      7774            0.0000000000
     45573      7966  TIP3      H1            -32.7207845716       18.0886904210       65.1034352080  TIP3      7774            0.0000000000
     45574      7966  TIP3      H2            -33.6940608065       18.0622840011       63.9782339481  TIP3      7774            0.0000000000
     45575      7967  TIP3      OH2           -23.4370438053       18.8280428861       59.3858480916  TIP3      7775            0.0000000000
     45576      7967  TIP3      H1            -22.9822712681       18.0695241410       58.9516115408  TIP3      7775            0.0000000000
     45577      7967  TIP3      H2            -23.3972739835       18.5664892569       60.3292525527  TIP3      7775            0.0000000000
     45578      7968  TIP3      OH2           -23.7403077020       18.7633305054       62.1607555392  TIP3      7776            0.0000000000
     45579      7968  TIP3      H1            -24.7028173706       18.8386813653       62.3307919458  TIP3      7776            0.0000000000
     45580      7968  TIP3      H2            -23.5079367277       18.0204103723       62.7384355350  TIP3      7776            0.0000000000
     45581      7969  TIP3      OH2           -20.6869947818        7.7998134545       74.1690780592  TIP3      7777            0.0000000000
     45582      7969  TIP3      H1            -21.2187566310        8.2724512437       73.5049137862  TIP3      7777            0.0000000000
     45583      7969  TIP3      H2            -20.7783712192        6.8796053022       73.8965526780  TIP3      7777            0.0000000000
     45584      7970  TIP3      OH2           -33.5901595752       14.2923115115       72.2921410614  TIP3      7778            0.0000000000
     45585      7970  TIP3      H1            -33.4053115601       13.8443137836       73.1389733646  TIP3      7778            0.0000000000
     45586      7970  TIP3      H2            -34.4171619306       13.8431597255       72.0049513734  TIP3      7778            0.0000000000
     45587      7971  TIP3      OH2           -30.9172890743        2.6933231845       68.1729382343  TIP3      7779            0.0000000000
     45588      7971  TIP3      H1            -31.8192966053        2.5699834656       67.8021593560  TIP3      7779            0.0000000000
     45589      7971  TIP3      H2            -31.0572668488        3.5188704907       68.6648595336  TIP3      7779            0.0000000000
     45590      7972  TIP3      OH2           -26.2565644047        2.3815825372       71.5478893432  TIP3      7780            0.0000000000
     45591      7972  TIP3      H1            -25.9045353888        1.9100026865       72.3297805281  TIP3      7780            0.0000000000
     45592      7972  TIP3      H2            -27.2349668646        2.2402245591       71.6628048687  TIP3      7780            0.0000000000
     45593      7973  TIP3      OH2           -23.0692457702        6.1483408067       72.3471367633  TIP3      7781            0.0000000000
     45594      7973  TIP3      H1            -23.5380395709        5.9972463580       73.2147649126  TIP3      7781            0.0000000000
     45595      7973  TIP3      H2            -23.1508442347        7.1204832928       72.2160599822  TIP3      7781            0.0000000000
     45596      7974  TIP3      OH2           -22.2361543580       11.0168023258       58.3319129237  TIP3      7782            0.0000000000
     45597      7974  TIP3      H1            -22.2567138002       10.8231427569       57.3659319822  TIP3      7782            0.0000000000
     45598      7974  TIP3      H2            -21.3765814399       11.4583983417       58.3846180257  TIP3      7782            0.0000000000
     45599      7975  TIP3      OH2           -26.6402470159        4.9373715704       58.8431914403  TIP3      7783            0.0000000000
     45600      7975  TIP3      H1            -26.9588373654        4.8755887968       59.7619231195  TIP3      7783            0.0000000000
     45601      7975  TIP3      H2            -26.9482385267        4.0598983115       58.5374268640  TIP3      7783            0.0000000000
     45602      7976  TIP3      OH2           -30.8359830793        7.6571796247       69.4234283570  TIP3      7784            0.0000000000
     45603      7976  TIP3      H1            -31.5631530531        7.6560523355       70.0761159704  TIP3      7784            0.0000000000
     45604      7976  TIP3      H2            -30.8565208638        8.5690217245       69.0574574113  TIP3      7784            0.0000000000
     45605      7977  TIP3      OH2           -30.8417812846        7.7801006822       64.2903453464  TIP3      7785            0.0000000000
     45606      7977  TIP3      H1            -31.7815105680        7.5331038634       64.1498018975  TIP3      7785            0.0000000000
     45607      7977  TIP3      H2            -30.4679262420        7.4806999642       63.4400172029  TIP3      7785            0.0000000000
     45608      7978  TIP3      OH2           -25.3424247365        8.2756309112       63.0809408139  TIP3      7786            0.0000000000
     45609      7978  TIP3      H1            -25.7382690475        9.0961660418       62.7039269629  TIP3      7786            0.0000000000
     45610      7978  TIP3      H2            -24.6588170491        8.1048593904       62.4107270455  TIP3      7786            0.0000000000
     45611      7979  TIP3      OH2           -26.3011510013        8.4938644966       74.4957995322  TIP3      7787            0.0000000000
     45612      7979  TIP3      H1            -26.8080506258        7.7049938481       74.8028675278  TIP3      7787            0.0000000000
     45613      7979  TIP3      H2            -25.4513973675        8.3742198427       74.9524000279  TIP3      7787            0.0000000000
     45614      7980  TIP3      OH2           -24.3065048419        7.7696634313       65.9076026269  TIP3      7788            0.0000000000
     45615      7980  TIP3      H1            -24.5927823379        8.3314052083       65.1673179808  TIP3      7788            0.0000000000
     45616      7980  TIP3      H2            -24.2129733387        6.9194726864       65.4372831021  TIP3      7788            0.0000000000
     45617      7981  TIP3      OH2           -33.1842854658        7.8905882054       71.1102184376  TIP3      7789            0.0000000000
     45618      7981  TIP3      H1            -33.1674393729        8.3154241546       71.9827124796  TIP3      7789            0.0000000000
     45619      7981  TIP3      H2            -33.6746269606        7.0785927994       71.3052217307  TIP3      7789            0.0000000000
     45620      7982  TIP3      OH2           -29.8281376230        5.3053766751       57.9585362482  TIP3      7790            0.0000000000
     45621      7982  TIP3      H1            -30.2769699521        4.8828454125       58.7181980477  TIP3      7790            0.0000000000
     45622      7982  TIP3      H2            -30.5414727136        5.7335345568       57.4695981741  TIP3      7790            0.0000000000
     45623      7983  TIP3      OH2           -36.1625694223        5.3406365631       64.9036000838  TIP3      7791            0.0000000000
     45624      7983  TIP3      H1            -35.8334335185        4.9914494008       65.7596918086  TIP3      7791            0.0000000000
     45625      7983  TIP3      H2            -36.0312000910        4.5831240080       64.3344943049  TIP3      7791            0.0000000000
     45626      7984  TIP3      OH2           -35.2888417975        5.8820135216       60.4160768611  TIP3      7792            0.0000000000
     45627      7984  TIP3      H1            -34.7313340277        6.4384144785       59.8328722830  TIP3      7792            0.0000000000
     45628      7984  TIP3      H2            -36.0158851802        6.4422191707       60.6607579645  TIP3      7792            0.0000000000
     45629      7985  TIP3      OH2           -25.0945576076        9.3434923859       70.4685625641  TIP3      7793            0.0000000000
     45630      7985  TIP3      H1            -24.7339045789        8.6646867733       69.8652807269  TIP3      7793            0.0000000000
     45631      7985  TIP3      H2            -25.5908730023        8.8321079778       71.1325555020  TIP3      7793            0.0000000000
     45632      7986  TIP3      OH2           -28.3076834858        5.3298874259       65.2978500328  TIP3      7794            0.0000000000
     45633      7986  TIP3      H1            -29.2419471906        5.3322599056       65.5910428738  TIP3      7794            0.0000000000
     45634      7986  TIP3      H2            -27.8270412460        5.1590087638       66.1214539819  TIP3      7794            0.0000000000
     45635      7987  TIP3      OH2           -33.4851641051        6.8705312898       64.1603338255  TIP3      7795            0.0000000000
     45636      7987  TIP3      H1            -34.3562267116        7.0474161750       63.7622497228  TIP3      7795            0.0000000000
     45637      7987  TIP3      H2            -33.2481160020        6.0226218579       63.7449019544  TIP3      7795            0.0000000000
     45638      7988  TIP3      OH2           -29.8575191498        6.9232498225       61.7925963676  TIP3      7796            0.0000000000
     45639      7988  TIP3      H1            -28.9011089366        7.0391357769       61.9495983156  TIP3      7796            0.0000000000
     45640      7988  TIP3      H2            -30.1090635627        7.6098412700       61.1453523845  TIP3      7796            0.0000000000
     45641      7989  TIP3      OH2           -23.9053544306        4.5064366811       68.5932469383  TIP3      7797            0.0000000000
     45642      7989  TIP3      H1            -24.6910850567        4.6430006224       69.1581952900  TIP3      7797            0.0000000000
     45643      7989  TIP3      H2            -24.3534182280        4.3178979933       67.7403659161  TIP3      7797            0.0000000000
     45644      7990  TIP3      OH2           -31.1363274619        8.0937769958       59.3690358016  TIP3      7798            0.0000000000
     45645      7990  TIP3      H1            -31.6759344076        7.7316124149       58.6481030926  TIP3      7798            0.0000000000
     45646      7990  TIP3      H2            -30.3151179227        8.3124552353       58.9024580129  TIP3      7798            0.0000000000
     45647      7991  TIP3      OH2           -20.7108484336       20.2057831063       74.8994676377  TIP3      7799            0.0000000000
     45648      7991  TIP3      H1            -20.4332914077       20.5688148618       74.0375676436  TIP3      7799            0.0000000000
     45649      7991  TIP3      H2            -19.9740079288       20.5076701285       75.4552941566  TIP3      7799            0.0000000000
     45650      7992  TIP3      OH2           -33.0443163775       12.6481093059       74.4564605562  TIP3      7800            0.0000000000
     45651      7992  TIP3      H1            -32.3141955824       12.9046818769       75.0530268098  TIP3      7800            0.0000000000
     45652      7992  TIP3      H2            -33.7976298012       12.7721129342       75.0565675245  TIP3      7800            0.0000000000
     45653      7993  TIP3      OH2           -27.0342529404        8.0869022996       67.1839055106  TIP3      7801            0.0000000000
     45654      7993  TIP3      H1            -26.4275301606        7.5516796451       66.6581870567  TIP3      7801            0.0000000000
     45655      7993  TIP3      H2            -27.1908544311        7.5429724508       67.9672878994  TIP3      7801            0.0000000000
     45656      7994  TIP3      OH2           -32.0263476235        4.2390653934       63.6207079008  TIP3      7802            0.0000000000
     45657      7994  TIP3      H1            -32.3359571710        3.3172685741       63.6206160675  TIP3      7802            0.0000000000
     45658      7994  TIP3      H2            -31.2280633517        4.1576019175       63.0842461182  TIP3      7802            0.0000000000
     45659      7995  TIP3      OH2           -28.3808252382        6.4132587193       69.6044281478  TIP3      7803            0.0000000000
     45660      7995  TIP3      H1            -29.2104742941        6.9228451686       69.6848893730  TIP3      7803            0.0000000000
     45661      7995  TIP3      H2            -27.8461764551        6.7812878197       70.3324075648  TIP3      7803            0.0000000000
     45662      7996  TIP3      OH2           -27.7986967879       12.6354370901       61.3007846786  TIP3      7804            0.0000000000
     45663      7996  TIP3      H1            -28.5980124776       12.1686954457       60.9657549276  TIP3      7804            0.0000000000
     45664      7996  TIP3      H2            -28.0246028102       12.7578303284       62.2455138175  TIP3      7804            0.0000000000
     45665      7997  TIP3      OH2           -20.6071901727       11.8321474891       70.1044561588  TIP3      7805            0.0000000000
     45666      7997  TIP3      H1            -20.0485086184       12.3207346668       69.4723840348  TIP3      7805            0.0000000000
     45667      7997  TIP3      H2            -21.4698904726       11.8816041429       69.6422251275  TIP3      7805            0.0000000000
     45668      7998  TIP3      OH2           -23.9695619534        5.4473503029       59.4759584829  TIP3      7806            0.0000000000
     45669      7998  TIP3      H1            -24.9211965345        5.6019298904       59.3413689200  TIP3      7806            0.0000000000
     45670      7998  TIP3      H2            -23.6290368745        6.2986860496       59.8267139148  TIP3      7806            0.0000000000
     45671      7999  TIP3      OH2           -26.3065448075       12.9005669603       72.5411263896  TIP3      7807            0.0000000000
     45672      7999  TIP3      H1            -26.6606070139       12.4751042325       73.3293038065  TIP3      7807            0.0000000000
     45673      7999  TIP3      H2            -26.5614747474       13.8244677487       72.6512697896  TIP3      7807            0.0000000000
     45674      8000  TIP3      OH2           -23.2327959635        7.3703511604       61.1002074491  TIP3      7808            0.0000000000
     45675      8000  TIP3      H1            -22.3509737770        7.2360793128       61.5084604741  TIP3      7808            0.0000000000
     45676      8000  TIP3      H2            -23.1271874867        8.1907258437       60.5902803080  TIP3      7808            0.0000000000
     45677      8001  TIP3      OH2           -32.6942462910       12.0307500970       67.0891756728  TIP3      7809            0.0000000000
     45678      8001  TIP3      H1            -32.0169500886       11.9479317152       66.3975032147  TIP3      7809            0.0000000000
     45679      8001  TIP3      H2            -32.5988141052       11.1903080052       67.5694870474  TIP3      7809            0.0000000000
     45680      8002  TIP3      OH2           -25.7064215474       14.1018924688       60.3316797531  TIP3      7810            0.0000000000
     45681      8002  TIP3      H1            -26.0486120843       14.9475827603       60.6891727088  TIP3      7810            0.0000000000
     45682      8002  TIP3      H2            -26.4397494036       13.4864430873       60.5502473111  TIP3      7810            0.0000000000
     45683      8003  TIP3      OH2           -35.7302110111       10.4122740068       72.3639401561  TIP3      7811            0.0000000000
     45684      8003  TIP3      H1            -35.4713251082        9.9725273194       73.1970229897  TIP3      7811            0.0000000000
     45685      8003  TIP3      H2            -36.3180657890        9.7709439995       71.9402547898  TIP3      7811            0.0000000000
     45686      8004  TIP3      OH2           -28.6925699167        9.9925607599       74.5486910027  TIP3      7812            0.0000000000
     45687      8004  TIP3      H1            -29.0087231072        9.6845739786       73.6870200903  TIP3      7812            0.0000000000
     45688      8004  TIP3      H2            -27.7660233527        9.6742232039       74.5393492797  TIP3      7812            0.0000000000
     45689      8005  TIP3      OH2           -24.0001292043       15.3263942382       72.4910945643  TIP3      7813            0.0000000000
     45690      8005  TIP3      H1            -24.9256248076       15.5069448131       72.2600106553  TIP3      7813            0.0000000000
     45691      8005  TIP3      H2            -24.0326904086       15.6180745234       73.4231578827  TIP3      7813            0.0000000000
     45692      8006  TIP3      OH2           -18.3279654826        7.5008613330       60.8771615778  TIP3      7814            0.0000000000
     45693      8006  TIP3      H1            -18.9001325545        7.2196056334       60.1392946004  TIP3      7814            0.0000000000
     45694      8006  TIP3      H2            -18.2533425246        8.4507467473       60.6283774787  TIP3      7814            0.0000000000
     45695      8007  TIP3      OH2           -18.3441243026       13.3420172597       73.6802490430  TIP3      7815            0.0000000000
     45696      8007  TIP3      H1            -19.2326701845       13.6007077632       73.3235567001  TIP3      7815            0.0000000000
     45697      8007  TIP3      H2            -17.8017644720       13.3443990602       72.8648293255  TIP3      7815            0.0000000000
     45698      8008  TIP3      OH2           -20.0774785205       16.3364205310       61.2735228645  TIP3      7816            0.0000000000
     45699      8008  TIP3      H1            -20.4083812614       15.4994084874       61.6236769281  TIP3      7816            0.0000000000
     45700      8008  TIP3      H2            -19.7221452046       16.1167474791       60.3965162272  TIP3      7816            0.0000000000
     45701      8009  TIP3      OH2           -22.8340493259       11.1514348248       68.3864801898  TIP3      7817            0.0000000000
     45702      8009  TIP3      H1            -23.7753320656       10.9422649864       68.2773443504  TIP3      7817            0.0000000000
     45703      8009  TIP3      H2            -22.4031048351       10.3932893560       67.9488848689  TIP3      7817            0.0000000000
     45704      8010  TIP3      OH2           -30.3269139803       15.4895711242       64.5003598091  TIP3      7818            0.0000000000
     45705      8010  TIP3      H1            -29.8203617102       16.2883072935       64.2815076953  TIP3      7818            0.0000000000
     45706      8010  TIP3      H2            -31.2057635254       15.7174960699       64.1653886452  TIP3      7818            0.0000000000
     45707      8011  TIP3      OH2           -34.6009000099       10.3238909515       59.0947488300  TIP3      7819            0.0000000000
     45708      8011  TIP3      H1            -33.9581466223       10.9834521932       59.4483220715  TIP3      7819            0.0000000000
     45709      8011  TIP3      H2            -35.4537723840       10.6823197013       59.3574274386  TIP3      7819            0.0000000000
     45710      8012  TIP3      OH2           -28.9050674495       13.1518439065       63.9918427339  TIP3      7820            0.0000000000
     45711      8012  TIP3      H1            -29.2171536903       14.0702542385       64.0971666541  TIP3      7820            0.0000000000
     45712      8012  TIP3      H2            -29.6153291002       12.6546361004       64.4456786357  TIP3      7820            0.0000000000
     45713      8013  TIP3      OH2           -28.4391733693       17.3291059525       70.4093329787  TIP3      7821            0.0000000000
     45714      8013  TIP3      H1            -27.9926103461       18.1411194555       70.1274014874  TIP3      7821            0.0000000000
     45715      8013  TIP3      H2            -27.8214239298       16.9886686898       71.0798767039  TIP3      7821            0.0000000000
     45716      8014  TIP3      OH2           -30.2258929901       18.1394928852       63.5282639049  TIP3      7822            0.0000000000
     45717      8014  TIP3      H1            -31.1897799393       18.2835692607       63.6638827639  TIP3      7822            0.0000000000
     45718      8014  TIP3      H2            -29.8591004589       18.9745617256       63.8735387274  TIP3      7822            0.0000000000
     45719      8015  TIP3      OH2           -24.9328174942       13.3257513116       70.0316745303  TIP3      7823            0.0000000000
     45720      8015  TIP3      H1            -25.2517104936       13.1347652982       70.9389710801  TIP3      7823            0.0000000000
     45721      8015  TIP3      H2            -24.2871764523       12.6203592093       69.8653337888  TIP3      7823            0.0000000000
     45722      8016  TIP3      OH2           -22.5858922498       14.4092428729       59.1217379982  TIP3      7824            0.0000000000
     45723      8016  TIP3      H1            -22.2920373251       13.9338715984       59.9251791160  TIP3      7824            0.0000000000
     45724      8016  TIP3      H2            -23.5395985380       14.2234743078       59.2020992857  TIP3      7824            0.0000000000
     45725      8017  TIP3      OH2           -22.1039249457       17.9116454320       72.5202203895  TIP3      7825            0.0000000000
     45726      8017  TIP3      H1            -22.8003163703       17.4209423055       72.0417406423  TIP3      7825            0.0000000000
     45727      8017  TIP3      H2            -21.9253968939       18.6129965002       71.8588690560  TIP3      7825            0.0000000000
     45728      8018  TIP3      OH2           -18.1249368581       18.7587873935       59.3771343454  TIP3      7826            0.0000000000
     45729      8018  TIP3      H1            -17.4370618115       19.4236377547       59.1714901507  TIP3      7826            0.0000000000
     45730      8018  TIP3      H2            -18.8398090064       19.3701162782       59.6626279256  TIP3      7826            0.0000000000
     45731      8019  TIP3      OH2           -34.0493258816        5.1699769683       71.8649579920  TIP3      7827            0.0000000000
     45732      8019  TIP3      H1            -34.9353229083        5.5430942957       71.9603273580  TIP3      7827            0.0000000000
     45733      8019  TIP3      H2            -34.1610332872        4.3348630432       72.3545300169  TIP3      7827            0.0000000000
     45734      8020  TIP3      OH2           -21.8125511652       13.0413651876       61.3636528867  TIP3      7828            0.0000000000
     45735      8020  TIP3      H1            -22.0502647757       12.2541325663       61.9008052883  TIP3      7828            0.0000000000
     45736      8020  TIP3      H2            -20.8598613864       13.0845270532       61.5411864750  TIP3      7828            0.0000000000
     45737      8021  TIP3      OH2           -34.2663398003       17.0032918427       70.2918401968  TIP3      7829            0.0000000000
     45738      8021  TIP3      H1            -34.1476326934       16.0449315184       70.3477248813  TIP3      7829            0.0000000000
     45739      8021  TIP3      H2            -34.1821652800       17.2346704550       71.2226704113  TIP3      7829            0.0000000000
     45740      8022  TIP3      OH2           -28.4574161408       15.4776685067       57.6187220983  TIP3      7830            0.0000000000
     45741      8022  TIP3      H1            -28.3617564473       14.7143755866       57.0260120547  TIP3      7830            0.0000000000
     45742      8022  TIP3      H2            -28.9024102495       15.0475240331       58.3816201165  TIP3      7830            0.0000000000
     45743      8023  TIP3      OH2           -29.6883506530       15.0047174946       60.0702161377  TIP3      7831            0.0000000000
     45744      8023  TIP3      H1            -29.4171567192       14.4905327097       60.8400864875  TIP3      7831            0.0000000000
     45745      8023  TIP3      H2            -29.5967115363       15.9311287092       60.3927780351  TIP3      7831            0.0000000000
     45746      8024  TIP3      OH2           -33.1947423047       12.2483832109       60.5455263779  TIP3      7832            0.0000000000
     45747      8024  TIP3      H1            -33.9043745759       12.6411355900       61.0979437442  TIP3      7832            0.0000000000
     45748      8024  TIP3      H2            -32.6719483754       13.0286771031       60.2747634756  TIP3      7832            0.0000000000
     45749      8025  TIP3      OH2           -25.2915028903        4.9000551798       70.8456787943  TIP3      7833            0.0000000000
     45750      8025  TIP3      H1            -24.8081091721        5.1160328999       71.6511809283  TIP3      7833            0.0000000000
     45751      8025  TIP3      H2            -25.7998974316        4.0902898547       71.0897071455  TIP3      7833            0.0000000000
     45752      8026  TIP3      OH2           -24.5760185751        4.5066157081       61.9567651122  TIP3      7834            0.0000000000
     45753      8026  TIP3      H1            -24.3442374318        4.9692251252       61.1273926063  TIP3      7834            0.0000000000
     45754      8026  TIP3      H2            -23.9921902027        4.9526016137       62.5807418992  TIP3      7834            0.0000000000
     45755      8027  TIP3      OH2           -26.8825209304       16.6677328203       60.7650352038  TIP3      7835            0.0000000000
     45756      8027  TIP3      H1            -27.7006633046       17.2000480825       60.8377727507  TIP3      7835            0.0000000000
     45757      8027  TIP3      H2            -26.3437813930       17.2184863003       60.1788027129  TIP3      7835            0.0000000000
     45758      8028  TIP3      OH2           -27.3405322178        6.2589246498       62.7806068535  TIP3      7836            0.0000000000
     45759      8028  TIP3      H1            -26.5602972653        6.8447510265       62.8289476907  TIP3      7836            0.0000000000
     45760      8028  TIP3      H2            -27.6098638614        6.1342209569       63.7103710610  TIP3      7836            0.0000000000
     45761      8029  TIP3      OH2           -26.7589549889        7.2955637701       71.9632107907  TIP3      7837            0.0000000000
     45762      8029  TIP3      H1            -26.7314798723        7.8447659131       72.7730652473  TIP3      7837            0.0000000000
     45763      8029  TIP3      H2            -26.1275105572        6.5935407393       72.1030497459  TIP3      7837            0.0000000000
     45764      8030  TIP3      OH2           -26.4919855642        3.3185231607       63.6721228627  TIP3      7838            0.0000000000
     45765      8030  TIP3      H1            -26.8188350701        3.9703489810       64.3124363446  TIP3      7838            0.0000000000
     45766      8030  TIP3      H2            -25.8004995430        3.8630946329       63.2217042965  TIP3      7838            0.0000000000
     45767      8031  TIP3      OH2           -29.4822151689       17.6931846485       60.8007282096  TIP3      7839            0.0000000000
     45768      8031  TIP3      H1            -29.3852839601       18.5074709963       60.2439258977  TIP3      7839            0.0000000000
     45769      8031  TIP3      H2            -29.7536007363       18.0674942286       61.6678192749  TIP3      7839            0.0000000000
     45770      8032  TIP3      OH2           -30.8235787232        4.4230435235       60.3699573137  TIP3      7840            0.0000000000
     45771      8032  TIP3      H1            -30.8837428316        5.3191136526       60.7587986269  TIP3      7840            0.0000000000
     45772      8032  TIP3      H2            -29.9183057926        4.1802611843       60.6370060304  TIP3      7840            0.0000000000
     45773      8033  TIP3      OH2           -20.6301429251        5.1352265238       72.8134394206  TIP3      7841            0.0000000000
     45774      8033  TIP3      H1            -21.5274910022        5.5120644009       72.7090595027  TIP3      7841            0.0000000000
     45775      8033  TIP3      H2            -20.2849471234        5.1712430189       71.9030819313  TIP3      7841            0.0000000000
     45776      8034  TIP3      OH2           -21.9933873939        8.9470881195       66.8164129922  TIP3      7842            0.0000000000
     45777      8034  TIP3      H1            -22.8161501970        8.4965038804       66.5488064385  TIP3      7842            0.0000000000
     45778      8034  TIP3      H2            -21.5045373018        8.2670487909       67.3280342191  TIP3      7842            0.0000000000
     45779      8035  TIP3      OH2           -32.6203762995       14.8764318655       59.4121175032  TIP3      7843            0.0000000000
     45780      8035  TIP3      H1            -31.9506412994       15.5060061481       59.7231216270  TIP3      7843            0.0000000000
     45781      8035  TIP3      H2            -32.0883078854       14.3972389623       58.7431280788  TIP3      7843            0.0000000000
     45782      8036  TIP3      OH2           -34.3032357541        7.5266224158       58.5467454571  TIP3      7844            0.0000000000
     45783      8036  TIP3      H1            -34.2329578806        8.4810614297       58.7482118232  TIP3      7844            0.0000000000
     45784      8036  TIP3      H2            -35.1871560559        7.3566019150       58.2049806904  TIP3      7844            0.0000000000
     45785      8037  TIP3      OH2           -20.9336756470       18.2043146645       68.4969786644  TIP3      7845            0.0000000000
     45786      8037  TIP3      H1            -21.0212432240       18.8843382864       67.8000406509  TIP3      7845            0.0000000000
     45787      8037  TIP3      H2            -19.9702408233       18.2558428769       68.6746926381  TIP3      7845            0.0000000000
     45788      8038  TIP3      OH2           -33.4122409839        2.3088342707       67.2818789136  TIP3      7846            0.0000000000
     45789      8038  TIP3      H1            -33.6333362226        2.3427064257       66.3244331918  TIP3      7846            0.0000000000
     45790      8038  TIP3      H2            -33.8613245090        1.4797354424       67.5489191406  TIP3      7846            0.0000000000
     45791      8039  TIP3      OH2           -34.4678617656       16.2522803784       63.4691852610  TIP3      7847            0.0000000000
     45792      8039  TIP3      H1            -35.3274528041       16.6758519032       63.4082177649  TIP3      7847            0.0000000000
     45793      8039  TIP3      H2            -33.9966696341       16.7091092642       62.7564869657  TIP3      7847            0.0000000000
     45794      8040  TIP3      OH2           -34.9837994793       18.9376125740       74.7320990505  TIP3      7848            0.0000000000
     45795      8040  TIP3      H1            -34.5551451121       18.6972557650       75.5671470637  TIP3      7848            0.0000000000
     45796      8040  TIP3      H2            -35.4977320929       18.1218744212       74.5611899105  TIP3      7848            0.0000000000
     45797      8041  TIP3      OH2           -30.6309696703       17.7705406515       76.3664704690  TIP3      7849            0.0000000000
     45798      8041  TIP3      H1            -29.8368064878       17.3136113994       76.6671133407  TIP3      7849            0.0000000000
     45799      8041  TIP3      H2            -30.6375244176       17.5340662203       75.4163291491  TIP3      7849            0.0000000000
     45800      8042  TIP3      OH2           -26.4655257613       17.3287999938       57.7416342638  TIP3      7850            0.0000000000
     45801      8042  TIP3      H1            -27.1583259652       16.6694341298       57.9688447667  TIP3      7850            0.0000000000
     45802      8042  TIP3      H2            -25.7473933437       16.7303518912       57.4932607361  TIP3      7850            0.0000000000
     45803      8043  TIP3      OH2           -24.1066738394       16.1972068553       75.0629260335  TIP3      7851            0.0000000000
     45804      8043  TIP3      H1            -24.4229955388       15.3185832757       75.3591549740  TIP3      7851            0.0000000000
     45805      8043  TIP3      H2            -23.3238202286       16.3221304506       75.6325761129  TIP3      7851            0.0000000000
     45806      8044  TIP3      OH2           -21.9076265059       17.0726725053       57.9278409523  TIP3      7852            0.0000000000
     45807      8044  TIP3      H1            -21.6116639866       16.2966483525       58.4310330773  TIP3      7852            0.0000000000
     45808      8044  TIP3      H2            -21.1451418347       17.2978998160       57.3755359661  TIP3      7852            0.0000000000
     45809      8045  TIP3      OH2           -35.4447123069       12.6351357087       75.7237904284  TIP3      7853            0.0000000000
     45810      8045  TIP3      H1            -35.1748411853       11.7739133587       75.3498398371  TIP3      7853            0.0000000000
     45811      8045  TIP3      H2            -36.1046235977       12.9444478913       75.0940401610  TIP3      7853            0.0000000000
     45812      8046  TIP3      OH2           -31.0207678291       13.0161485513       57.7440976176  TIP3      7854            0.0000000000
     45813      8046  TIP3      H1            -30.8847524429       12.2526971588       58.3245623417  TIP3      7854            0.0000000000
     45814      8046  TIP3      H2            -30.2713899603       12.8979122901       57.1282385846  TIP3      7854            0.0000000000
     45815      8047  TIP3      OH2           -28.6574227260       12.6446745603       75.1111972698  TIP3      7855            0.0000000000
     45816      8047  TIP3      H1            -28.9842510366       12.9702360150       74.2511206690  TIP3      7855            0.0000000000
     45817      8047  TIP3      H2            -28.5855372857       11.6688644223       74.9948481590  TIP3      7855            0.0000000000
     45818      8048  TIP3      OH2           -25.5905562487       14.1240771209       57.5238202785  TIP3      7856            0.0000000000
     45819      8048  TIP3      H1            -25.8749668963       14.2138816325       58.4473820159  TIP3      7856            0.0000000000
     45820      8048  TIP3      H2            -25.7793697679       13.1658259070       57.3812411420  TIP3      7856            0.0000000000
     45821      8049  TIP3      OH2           -22.9574173321       12.5159167098       72.5055941997  TIP3      7857            0.0000000000
     45822      8049  TIP3      H1            -22.1697073619       13.0988003252       72.4432536419  TIP3      7857            0.0000000000
     45823      8049  TIP3      H2            -23.6543586547       13.1873801678       72.5456469873  TIP3      7857            0.0000000000
     45824      8050  TIP3      OH2           -34.5085227962        9.8935740286       75.0902253681  TIP3      7858            0.0000000000
     45825      8050  TIP3      H1            -34.0310701045        9.0501178332       75.0052887152  TIP3      7858            0.0000000000
     45826      8050  TIP3      H2            -34.6670810746        9.9028139760       76.0484810522  TIP3      7858            0.0000000000
     45827      8051  TIP3      OH2           -29.8142893290       11.0300086662       60.1788522779  TIP3      7859            0.0000000000
     45828      8051  TIP3      H1            -30.3215250079       10.4912063494       60.8039659435  TIP3      7859            0.0000000000
     45829      8051  TIP3      H2            -29.5178551938       10.3578166091       59.5221059545  TIP3      7859            0.0000000000
     45830      8052  TIP3      OH2           -30.5533334035        8.8365962207       72.4626340413  TIP3      7860            0.0000000000
     45831      8052  TIP3      H1            -31.1576495453        9.5499935601       72.7242672073  TIP3      7860            0.0000000000
     45832      8052  TIP3      H2            -30.1554245137        9.2073208911       71.6556474964  TIP3      7860            0.0000000000
     45833      8053  TIP3      OH2           -28.7438950795        9.2549550000       58.3750461359  TIP3      7861            0.0000000000
     45834      8053  TIP3      H1            -28.8948915270        9.1654330603       57.4133044340  TIP3      7861            0.0000000000
     45835      8053  TIP3      H2            -27.7655568700        9.3064894793       58.4399331522  TIP3      7861            0.0000000000
     45836      8054  TIP3      OH2           -25.4855971871       11.4223036242       75.8434064397  TIP3      7862            0.0000000000
     45837      8054  TIP3      H1            -24.5359353785       11.3825256262       75.6575418589  TIP3      7862            0.0000000000
     45838      8054  TIP3      H2            -25.6489474426       10.6377461588       76.3881464920  TIP3      7862            0.0000000000
     45839      8055  TIP3      OH2           -19.4124913227       11.5730551901       57.7841790598  TIP3      7863            0.0000000000
     45840      8055  TIP3      H1            -19.6034470887       11.1932145475       56.9134251144  TIP3      7863            0.0000000000
     45841      8055  TIP3      H2            -19.3238367612       12.5360109123       57.5982449719  TIP3      7863            0.0000000000
     45842      8056  TIP3      OH2           -30.0930221544        6.2308390160       73.4989998390  TIP3      7864            0.0000000000
     45843      8056  TIP3      H1            -30.0271801159        5.5088794311       72.8483038171  TIP3      7864            0.0000000000
     45844      8056  TIP3      H2            -30.2177514318        7.0354899047       72.9578464777  TIP3      7864            0.0000000000
     45845      8057  TIP3      OH2           -29.7387462336        4.5982764468       71.0742784484  TIP3      7865            0.0000000000
     45846      8057  TIP3      H1            -29.2274591677        5.0627847147       70.3690010858  TIP3      7865            0.0000000000
     45847      8057  TIP3      H2            -30.6348003686        4.5200890895       70.6668533635  TIP3      7865            0.0000000000
     45848      8058  TIP3      OH2           -28.2043165899       10.0876128363       71.3219974895  TIP3      7866            0.0000000000
     45849      8058  TIP3      H1            -27.4512934943        9.9230141571       70.7452087563  TIP3      7866            0.0000000000
     45850      8058  TIP3      H2            -28.5687100574       10.9207706525       70.9797908633  TIP3      7866            0.0000000000
     45851      8059  TIP3      OH2           -23.8277077221        7.8272662966       76.2518216847  TIP3      7867            0.0000000000
     45852      8059  TIP3      H1            -23.5693107997        6.8975864386       76.1996886516  TIP3      7867            0.0000000000
     45853      8059  TIP3      H2            -22.9700183628        8.2758750593       76.3105804458  TIP3      7867            0.0000000000
     45854      8060  TIP3      OH2           -22.4509900057       10.6429027325       74.4599729494  TIP3      7868            0.0000000000
     45855      8060  TIP3      H1            -22.7154228529       11.3481677127       73.8276403911  TIP3      7868            0.0000000000
     45856      8060  TIP3      H2            -21.4993087555       10.5975166190       74.2358955904  TIP3      7868            0.0000000000
     45857      8061  TIP3      OH2           -31.6910777209        7.4703958134       75.4582523923  TIP3      7869            0.0000000000
     45858      8061  TIP3      H1            -32.4707062041        6.8963150216       75.2715321231  TIP3      7869            0.0000000000
     45859      8061  TIP3      H2            -31.0555827080        7.1085165523       74.8109995915  TIP3      7869            0.0000000000
     45860      8062  TIP3      OH2           -28.9590567998        2.0318908105       71.4747433620  TIP3      7870            0.0000000000
     45861      8062  TIP3      H1            -29.1518616005        2.9931644921       71.3699462646  TIP3      7870            0.0000000000
     45862      8062  TIP3      H2            -29.6994271656        1.6610542826       70.9623445397  TIP3      7870            0.0000000000
     45863      8063  TIP3      OH2           -27.6686946463        6.3609653985       75.0843029275  TIP3      7871            0.0000000000
     45864      8063  TIP3      H1            -27.9970456479        6.1475043841       75.9817729868  TIP3      7871            0.0000000000
     45865      8063  TIP3      H2            -28.4523367297        6.1690525274       74.5293222789  TIP3      7871            0.0000000000
     45866      8064  TIP3      OH2           -24.9719709132        5.4498486119       74.1151119415  TIP3      7872            0.0000000000
     45867      8064  TIP3      H1            -25.9211329205        5.5771163647       74.3048781346  TIP3      7872            0.0000000000
     45868      8064  TIP3      H2            -24.7064145432        4.8794722323       74.8698591727  TIP3      7872            0.0000000000
     45869      8065  TIP3      OH2           -23.4421322816        4.1335885742       76.0547069314  TIP3      7873            0.0000000000
     45870      8065  TIP3      H1            -23.4240107599        3.1538786202       76.1099131977  TIP3      7873            0.0000000000
     45871      8065  TIP3      H2            -23.6442151961        4.4208739997       76.9754119399  TIP3      7873            0.0000000000
     45872      8066  TIP3      OH2           -33.4436995326        5.3849770507       75.2402299604  TIP3      7874            0.0000000000
     45873      8066  TIP3      H1            -33.3510989186        4.6514171679       74.6053257977  TIP3      7874            0.0000000000
     45874      8066  TIP3      H2            -33.6706597227        4.9241730894       76.0718555600  TIP3      7874            0.0000000000
     45875      8067  TIP3      OH2           -28.7323522376        1.4243579964       74.1704374996  TIP3      7875            0.0000000000
     45876      8067  TIP3      H1            -28.0599717394        0.7125031527       74.1475904618  TIP3      7875            0.0000000000
     45877      8067  TIP3      H2            -28.8396641587        1.5771817751       73.2140709427  TIP3      7875            0.0000000000
     45878      8068  TIP3      OH2           -28.4011342489        3.0200850275       76.2717841522  TIP3      7876            0.0000000000
     45879      8068  TIP3      H1            -28.5571551855        2.5201217317       75.4303507005  TIP3      7876            0.0000000000
     45880      8068  TIP3      H2            -28.9619499647        3.8110952768       76.1571462500  TIP3      7876            0.0000000000
     45881      8069  TIP3      OH2           -28.9090350014       19.9546691600       59.4524038384  TIP3      7877            0.0000000000
     45882      8069  TIP3      H1            -27.9424804784       20.0409547612       59.5198154555  TIP3      7877            0.0000000000
     45883      8069  TIP3      H2            -29.0564189486       20.5567393764       58.7141126223  TIP3      7877            0.0000000000
     45884      8070  TIP3      OH2           -35.3164745478       14.5292584490       58.9351369949  TIP3      7878            0.0000000000
     45885      8070  TIP3      H1            -34.3550388339       14.6426167746       59.1080406928  TIP3      7878            0.0000000000
     45886      8070  TIP3      H2            -35.2797311284       13.8870604807       58.2005501086  TIP3      7878            0.0000000000
     45887      8071  TIP3      OH2            36.8630048215       20.0754304391       63.7204363911  TIP3      7879            0.0000000000
     45888      8071  TIP3      H1             35.9541089141       19.8660428786       63.4123306069  TIP3      7879            0.0000000000
     45889      8071  TIP3      H2             36.9513080785       19.4414708013       64.4721167828  TIP3      7879            0.0000000000
     45890      8072  TIP3      OH2           -35.7273267020       18.0900731531       65.7152033025  TIP3      7880            0.0000000000
     45891      8072  TIP3      H1            -36.0812876837       17.2011404124       65.9467885544  TIP3      7880            0.0000000000
     45892      8072  TIP3      H2            -35.4772963206       18.3691670627       66.6162991155  TIP3      7880            0.0000000000
     45893      8073  TIP3      OH2           -18.2131168445       18.8467099883       68.6924532712  TIP3      7881            0.0000000000
     45894      8073  TIP3      H1            -18.1815305610       19.0055038530       69.6520932661  TIP3      7881            0.0000000000
     45895      8073  TIP3      H2            -17.5093454005       19.4293566501       68.3888511033  TIP3      7881            0.0000000000
     45896      8074  TIP3      OH2           -18.6432788524       18.4415866024       71.6404476371  TIP3      7882            0.0000000000
     45897      8074  TIP3      H1            -19.1106253712       17.6716099339       71.2562141572  TIP3      7882            0.0000000000
     45898      8074  TIP3      H2            -18.1532345140       17.9935969514       72.3502393278  TIP3      7882            0.0000000000
     45899      8075  TIP3      OH2           -20.1800578021       14.1257168007       76.3341001173  TIP3      7883            0.0000000000
     45900      8075  TIP3      H1            -21.0957414074       14.1370533001       76.6812158641  TIP3      7883            0.0000000000
     45901      8075  TIP3      H2            -19.8332308365       14.9527774341       76.7379354941  TIP3      7883            0.0000000000
     45902      8076  TIP3      OH2           -18.8808064976       12.4932771273       61.7382636659  TIP3      7884            0.0000000000
     45903      8076  TIP3      H1            -18.0135392251       12.8829666301       61.9249304263  TIP3      7884            0.0000000000
     45904      8076  TIP3      H2            -18.8966795416       11.7742798581       62.4075202854  TIP3      7884            0.0000000000
     45905      8077  TIP3      OH2           -18.5193524470       10.5692285141       63.6295912206  TIP3      7885            0.0000000000
     45906      8077  TIP3      H1            -19.2713253550       10.0700933975       64.0206992507  TIP3      7885            0.0000000000
     45907      8077  TIP3      H2            -17.9221234298       10.6993639118       64.3921535957  TIP3      7885            0.0000000000
     45908      8078  TIP3      OH2           -18.7627242193       13.2652019708       68.6141961546  TIP3      7886            0.0000000000
     45909      8078  TIP3      H1            -17.9499987448       12.8861577566       68.2325133573  TIP3      7886            0.0000000000
     45910      8078  TIP3      H2            -18.6171292613       14.2176278394       68.4390972338  TIP3      7886            0.0000000000
     45911      8079  TIP3      OH2           -20.2039095833       16.1615235513       70.8841270943  TIP3      7887            0.0000000000
     45912      8079  TIP3      H1            -20.8950843626       16.5108817089       71.4689892850  TIP3      7887            0.0000000000
     45913      8079  TIP3      H2            -20.7524296990       15.7663373056       70.1729990623  TIP3      7887            0.0000000000
     45914      8080  TIP3      OH2           -18.2197933638       10.3919416853       60.0189531767  TIP3      7888            0.0000000000
     45915      8080  TIP3      H1            -18.7863607203       10.7332562676       59.2950706427  TIP3      7888            0.0000000000
     45916      8080  TIP3      H2            -18.3192916306       11.1050677144       60.6770698061  TIP3      7888            0.0000000000
     45917      8081  TIP3      OH2           -19.8431630268        7.6180420472       58.5299900399  TIP3      7889            0.0000000000
     45918      8081  TIP3      H1            -19.7685877981        8.2845020858       57.8362872147  TIP3      7889            0.0000000000
     45919      8081  TIP3      H2            -20.0314208961        6.7957171309       58.0351952785  TIP3      7889            0.0000000000
     45920      8082  TIP3      OH2           -20.6984515516        9.0405028634       64.1984860222  TIP3      7890            0.0000000000
     45921      8082  TIP3      H1            -20.8459521659        8.0864390511       64.1569502316  TIP3      7890            0.0000000000
     45922      8082  TIP3      H2            -21.0294059908        9.2548323056       65.0904977736  TIP3      7890            0.0000000000
     45923      8083  TIP3      OH2           -35.6772651299       11.1124692877       68.1767126459  TIP3      7891            0.0000000000
     45924      8083  TIP3      H1            -35.4738273007       11.0714555243       67.2189897648  TIP3      7891            0.0000000000
     45925      8083  TIP3      H2            -34.7966826677       11.0019740954       68.5967724308  TIP3      7891            0.0000000000
     45926      8084  TIP3      OH2           -19.8495181980       10.9909590078       73.9246958815  TIP3      7892            0.0000000000
     45927      8084  TIP3      H1            -19.2271387963       10.2507346590       73.9748995125  TIP3      7892            0.0000000000
     45928      8084  TIP3      H2            -19.2608999341       11.7774992845       73.8579156259  TIP3      7892            0.0000000000
     45929      8085  TIP3      OH2           -18.3359647731        8.8759900225       74.7194536048  TIP3      7893            0.0000000000
     45930      8085  TIP3      H1            -19.2108572424        8.5555486387       74.3701602386  TIP3      7893            0.0000000000
     45931      8085  TIP3      H2            -17.8042135667        8.1455137614       74.3507836653  TIP3      7893            0.0000000000
     45932      8086  TIP3      OH2           -20.5956157081        5.0954791548       57.6672597309  TIP3      7894            0.0000000000
     45933      8086  TIP3      H1            -20.0084137516        4.6550235856       58.3104748840  TIP3      7894            0.0000000000
     45934      8086  TIP3      H2            -21.4610191825        4.6773470674       57.8197581631  TIP3      7894            0.0000000000
     45935      8087  TIP3      OH2           -21.0532660440        6.6203546766       62.6118141469  TIP3      7895            0.0000000000
     45936      8087  TIP3      H1            -20.7368447244        5.7009298758       62.7725451605  TIP3      7895            0.0000000000
     45937      8087  TIP3      H2            -20.2311542863        7.0303421713       62.3086101534  TIP3      7895            0.0000000000
     45938      8088  TIP3      OH2           -20.3998129285        7.1323873344       68.1181114091  TIP3      7896            0.0000000000
     45939      8088  TIP3      H1            -19.4458531088        7.3967330295       68.0693740680  TIP3      7896            0.0000000000
     45940      8088  TIP3      H2            -20.5675647535        7.3378873085       69.0475264093  TIP3      7896            0.0000000000
     45941      8089  TIP3      OH2           -20.3418681407        7.8879557033       70.8572701536  TIP3      7897            0.0000000000
     45942      8089  TIP3      H1            -21.2055555727        8.1994784459       71.1981340260  TIP3      7897            0.0000000000
     45943      8089  TIP3      H2            -19.8841826984        8.7411343623       70.6545253252  TIP3      7897            0.0000000000
     45944      8090  TIP3      OH2           -35.8000184447        6.2901143408       74.3911332408  TIP3      7898            0.0000000000
     45945      8090  TIP3      H1            -34.9163195063        6.1065557304       74.7366860111  TIP3      7898            0.0000000000
     45946      8090  TIP3      H2            -36.3782828523        5.6136063853       74.8233555361  TIP3      7898            0.0000000000
     45947      8091  TIP3      OH2           -18.0394462090        1.9721577308       76.2165084235  TIP3      7899            0.0000000000
     45948      8091  TIP3      H1            -17.7239270791        1.2702296836       75.6196484192  TIP3      7899            0.0000000000
     45949      8091  TIP3      H2            -17.9620558534        2.7575222161       75.6579677469  TIP3      7899            0.0000000000
     45950      8092  TIP3      OH2           -20.3578101198        3.9124087129       62.7017917284  TIP3      7900            0.0000000000
     45951      8092  TIP3      H1            -20.1447888890        3.4753271772       63.5537384529  TIP3      7900            0.0000000000
     45952      8092  TIP3      H2            -20.9582757388        3.2731732764       62.2639047313  TIP3      7900            0.0000000000
     45953      8093  TIP3      OH2           -34.8342500875        4.6761453680       67.2176947371  TIP3      7901            0.0000000000
     45954      8093  TIP3      H1            -34.3754088212        3.8793378396       67.5447914498  TIP3      7901            0.0000000000
     45955      8093  TIP3      H2            -34.3333862078        5.3807684483       67.6629450829  TIP3      7901            0.0000000000
     45956      8094  TIP3      OH2           -36.0167792376        8.4742494721       68.6561350602  TIP3      7902            0.0000000000
     45957      8094  TIP3      H1            -35.9821846217        8.0449953046       67.7754818183  TIP3      7902            0.0000000000
     45958      8094  TIP3      H2            -35.9403787223        9.3894017408       68.3764171726  TIP3      7902            0.0000000000
     45959      8095  TIP3      OH2           -18.4691658074        4.1107859980       74.5748938026  TIP3      7903            0.0000000000
     45960      8095  TIP3      H1            -19.4330238028        4.3057616179       74.5486085230  TIP3      7903            0.0000000000
     45961      8095  TIP3      H2            -18.4776369955        3.4959965479       73.8164972844  TIP3      7903            0.0000000000
     45962      8096  TIP3      OH2           -18.5443836127        3.9460237940       59.2542056177  TIP3      7904            0.0000000000
     45963      8096  TIP3      H1            -18.1321548200        3.2335545649       58.7182409427  TIP3      7904            0.0000000000
     45964      8096  TIP3      H2            -17.8383584955        4.6079369585       59.3059201461  TIP3      7904            0.0000000000
     45965      8097  TIP3      OH2           -35.7601212597        3.9327352016       61.9357366500  TIP3      7905            0.0000000000
     45966      8097  TIP3      H1            -36.7051023312        4.1189588650       62.0622815376  TIP3      7905            0.0000000000
     45967      8097  TIP3      H2            -35.5363651846        4.6926798285       61.3606334399  TIP3      7905            0.0000000000
     45968      8098  TIP3      OH2           -21.4918831659       18.9314659616       64.3224564646  TIP3      7906            0.0000000000
     45969      8098  TIP3      H1            -20.8075717798       18.6275432353       63.6988709808  TIP3      7906            0.0000000000
     45970      8098  TIP3      H2            -20.9751781662       19.4281929260       64.9735727785  TIP3      7906            0.0000000000
     45971      8099  TIP3      OH2            37.0287144356        2.6002331582       70.8785762055  TIP3      7907            0.0000000000
     45972      8099  TIP3      H1             36.2412598493        2.3895382706       71.4044414873  TIP3      7907            0.0000000000
     45973      8099  TIP3      H2             36.5481877204        3.1144944526       70.2071181521  TIP3      7907            0.0000000000
     45974      8100  TIP3      OH2           -34.0748076987       15.8742469050       74.8369029231  TIP3      7908            0.0000000000
     45975      8100  TIP3      H1            -34.9284950311       16.0390786945       74.4233948863  TIP3      7908            0.0000000000
     45976      8100  TIP3      H2            -34.3279183204       15.7736465158       75.7573811787  TIP3      7908            0.0000000000
     45977      8101  TIP3      OH2           -31.1082679310       16.8602661474       71.1357986900  TIP3      7909            0.0000000000
     45978      8101  TIP3      H1            -31.5053870021       17.6951882521       70.8346371536  TIP3      7909            0.0000000000
     45979      8101  TIP3      H2            -30.1991155804       16.9476322893       70.7906638372  TIP3      7909            0.0000000000
     45980      8102  TIP3      OH2           -26.8240134040       18.2515652282       74.0107764854  TIP3      7910            0.0000000000
     45981      8102  TIP3      H1            -26.6921533054       17.9112724951       74.9265229683  TIP3      7910            0.0000000000
     45982      8102  TIP3      H2            -25.9209657988       18.5615396365       73.7840330081  TIP3      7910            0.0000000000
     45983      8103  TIP3      OH2           -24.5339834267       19.5294703181       73.3209705264  TIP3      7911            0.0000000000
     45984      8103  TIP3      H1            -23.8002916728       18.9454830271       73.0823072771  TIP3      7911            0.0000000000
     45985      8103  TIP3      H2            -24.1579770323       19.9673426972       74.1145032843  TIP3      7911            0.0000000000
     45986      8104  TIP3      OH2           -19.5046077007        2.1570369888       72.4326150641  TIP3      7912            0.0000000000
     45987      8104  TIP3      H1            -20.3339103552        2.4257106292       72.0153166689  TIP3      7912            0.0000000000
     45988      8104  TIP3      H2            -19.3124843775        1.3310248315       71.9348977685  TIP3      7912            0.0000000000
     45989      8105  TIP3      OH2           -33.6848017003       20.0795652007       71.1210830153  TIP3      7913            0.0000000000
     45990      8105  TIP3      H1            -34.4342826363       20.5690130668       70.7273699979  TIP3      7913            0.0000000000
     45991      8105  TIP3      H2            -34.0316327122       19.8885319000       72.0063788581  TIP3      7913            0.0000000000
     45992      8106  TIP3      OH2           -31.2353879499       19.6590734291       70.1597273898  TIP3      7914            0.0000000000
     45993      8106  TIP3      H1            -32.1324070415       19.7894433433       70.5559117559  TIP3      7914            0.0000000000
     45994      8106  TIP3      H2            -31.2911450510       20.2560506350       69.3933642691  TIP3      7914            0.0000000000
     45995      8107  TIP3      OH2           -26.5397193530       19.5673364381       69.3405755407  TIP3      7915            0.0000000000
     45996      8107  TIP3      H1            -27.0036760146       20.1229188215       68.6956739282  TIP3      7915            0.0000000000
     45997      8107  TIP3      H2            -26.4078792865       20.1991715690       70.0820119755  TIP3      7915            0.0000000000
     45998      8108  TIP3      OH2           -24.2542600520       18.3716558186       70.3747401331  TIP3      7916            0.0000000000
     45999      8108  TIP3      H1            -25.1066965435       18.6501777505       70.0024413501  TIP3      7916            0.0000000000
     46000      8108  TIP3      H2            -23.7669076634       19.2084072417       70.2803360656  TIP3      7916            0.0000000000
     46001      8109  TIP3      OH2           -21.6716849019       19.9415881705       70.5924083860  TIP3      7917            0.0000000000
     46002      8109  TIP3      H1            -21.7240078619       20.9027589432       70.3650619960  TIP3      7917            0.0000000000
     46003      8109  TIP3      H2            -21.4530060123       19.5689174120       69.7161059369  TIP3      7917            0.0000000000
     46004      8110  TIP3      OH2           -34.3102292807       18.7260157545       68.0332922026  TIP3      7918            0.0000000000
     46005      8110  TIP3      H1            -34.3142456989       18.2768258447       68.9039541273  TIP3      7918            0.0000000000
     46006      8110  TIP3      H2            -33.4935086079       18.3504392830       67.6454189417  TIP3      7918            0.0000000000
     46007      8111  TIP3      OH2           -32.2103375987       17.4403901037       66.7048149657  TIP3      7919            0.0000000000
     46008      8111  TIP3      H1            -32.3647418775       16.5027065919       66.9367098432  TIP3      7919            0.0000000000
     46009      8111  TIP3      H2            -31.3428829020       17.5917736972       67.1413210509  TIP3      7919            0.0000000000
     46010      8112  TIP3      OH2           -29.5936353074       17.9130324980       67.5784738392  TIP3      7920            0.0000000000
     46011      8112  TIP3      H1            -29.4214129554       16.9914674649       67.3139303234  TIP3      7920            0.0000000000
     46012      8112  TIP3      H2            -29.5270366192       17.8634890404       68.5431184951  TIP3      7920            0.0000000000
     46013      8113  TIP3      OH2           -26.0910229273        3.5579984068       66.7547832449  TIP3      7921            0.0000000000
     46014      8113  TIP3      H1            -26.8090264594        2.9373402496       66.9751079350  TIP3      7921            0.0000000000
     46015      8113  TIP3      H2            -25.5883905423        3.0409332097       66.1116950290  TIP3      7921            0.0000000000
     46016      8114  TIP3      OH2           -20.9849383664        1.6533106099       66.8101997545  TIP3      7922            0.0000000000
     46017      8114  TIP3      H1            -20.3690486148        2.1984317484       66.2570422691  TIP3      7922            0.0000000000
     46018      8114  TIP3      H2            -21.8686853193        1.9677994929       66.5226684840  TIP3      7922            0.0000000000
     46019      8115  TIP3      OH2           -19.3294146781        2.8700803645       65.0577295173  TIP3      7923            0.0000000000
     46020      8115  TIP3      H1            -18.6412290723        2.2943978028       64.6411542647  TIP3      7923            0.0000000000
     46021      8115  TIP3      H2            -18.8159291654        3.7041077926       65.1612051641  TIP3      7923            0.0000000000
     46022      8116  TIP3      OH2           -33.7445501759        2.1867001912       64.5868343751  TIP3      7924            0.0000000000
     46023      8116  TIP3      H1            -34.5226268779        1.9866347294       64.0231978395  TIP3      7924            0.0000000000
     46024      8116  TIP3      H2            -33.2535271060        1.3468444347       64.4867813261  TIP3      7924            0.0000000000
     46025      8117  TIP3      OH2           -34.9684068076        1.9257756267       60.2355491999  TIP3      7925            0.0000000000
     46026      8117  TIP3      H1            -34.4552987843        2.5966650256       59.7530768027  TIP3      7925            0.0000000000
     46027      8117  TIP3      H2            -35.5285085955        2.4952617715       60.7984677318  TIP3      7925            0.0000000000
     46028      8118  TIP3      OH2           -29.2828397334        2.1214087959       64.3453572627  TIP3      7926            0.0000000000
     46029      8118  TIP3      H1            -28.3815795657        2.4777850730       64.2676102887  TIP3      7926            0.0000000000
     46030      8118  TIP3      H2            -29.3146836984        1.9018366750       65.2760593082  TIP3      7926            0.0000000000
     46031      8119  TIP3      OH2           -23.5612119300        2.1314468819       65.9964248624  TIP3      7927            0.0000000000
     46032      8119  TIP3      H1            -23.6062797173        2.2578035183       65.0404160519  TIP3      7927            0.0000000000
     46033      8119  TIP3      H2            -23.9505402365        1.2269654010       66.0940594646  TIP3      7927            0.0000000000
     46034      8120  TIP3      OH2           -22.3005437741        2.1684402212       61.6548137580  TIP3      7928            0.0000000000
     46035      8120  TIP3      H1            -23.0495362237        2.7621630286       61.4953067816  TIP3      7928            0.0000000000
     46036      8120  TIP3      H2            -22.7407249412        1.3161801161       61.8873479041  TIP3      7928            0.0000000000
     46037      8121  TIP3      OH2           -35.0660559675       17.9336288127       61.3364667752  TIP3      7929            0.0000000000
     46038      8121  TIP3      H1            -35.6720456171       17.9048306654       60.5812745629  TIP3      7929            0.0000000000
     46039      8121  TIP3      H2            -35.0458227056       18.8894236521       61.4758229240  TIP3      7929            0.0000000000
     46040      8122  TIP3      OH2           -33.1653074378        3.8954274966       58.8239836532  TIP3      7930            0.0000000000
     46041      8122  TIP3      H1            -32.6400896774        3.2922929716       58.2668756765  TIP3      7930            0.0000000000
     46042      8122  TIP3      H2            -32.4633881329        4.2051878767       59.4255317111  TIP3      7930            0.0000000000
     46043      8123  TIP3      OH2           -28.1295355144        4.1340457750       61.1951750541  TIP3      7931            0.0000000000
     46044      8123  TIP3      H1            -27.8774613803        3.5543345479       61.9327704145  TIP3      7931            0.0000000000
     46045      8123  TIP3      H2            -28.0595961493        5.0005953882       61.6535130314  TIP3      7931            0.0000000000
     46046      8124  TIP3      OH2           -26.1961693541       19.2083115485       59.6435077943  TIP3      7932            0.0000000000
     46047      8124  TIP3      H1            -25.2786238139       19.4344427679       59.4212083608  TIP3      7932            0.0000000000
     46048      8124  TIP3      H2            -26.4171104521       18.6883547124       58.8422947747  TIP3      7932            0.0000000000
     46049      8125  TIP3      OH2           -19.5043617797       18.7084840584       62.3640617764  TIP3      7933            0.0000000000
     46050      8125  TIP3      H1            -19.6924781119       17.9259797028       61.7917453828  TIP3      7933            0.0000000000
     46051      8125  TIP3      H2            -19.5690581843       19.4432909545       61.7200370858  TIP3      7933            0.0000000000
     46052      8126  TIP3      OH2           -33.9283690669        2.7394118301       74.0312067039  TIP3      7934            0.0000000000
     46053      8126  TIP3      H1            -34.2634319810        1.9003071076       74.4022986215  TIP3      7934            0.0000000000
     46054      8126  TIP3      H2            -33.0012135467        2.6879532628       74.3671197170  TIP3      7934            0.0000000000
     46055      8127  TIP3      OH2           -31.8608458018        2.1120504081       75.6207144826  TIP3      7935            0.0000000000
     46056      8127  TIP3      H1            -30.9786874356        1.7541256928       75.4084040917  TIP3      7935            0.0000000000
     46057      8127  TIP3      H2            -32.2639126597        1.3263825588       76.0421537742  TIP3      7935            0.0000000000
     46058      8128  TIP3      OH2           -33.2938972247       18.8268988542       58.2462541623  TIP3      7936            0.0000000000
     46059      8128  TIP3      H1            -33.5264165904       19.1293957073       59.1331089263  TIP3      7936            0.0000000000
     46060      8128  TIP3      H2            -32.4655764982       18.3351592656       58.4026858310  TIP3      7936            0.0000000000
     46061      8129  TIP3      OH2           -23.4608806599        1.4020988045       75.7913870282  TIP3      7937            0.0000000000
     46062      8129  TIP3      H1            -23.3701911177        0.9406350956       76.6469913734  TIP3      7937            0.0000000000
     46063      8129  TIP3      H2            -22.5349083712        1.3663114698       75.4708243168  TIP3      7937            0.0000000000
     46064      8130  TIP3      OH2           -20.2585746383       17.4539870359       74.4619965284  TIP3      7938            0.0000000000
     46065      8130  TIP3      H1            -21.0501983089       17.3192878694       73.8959358311  TIP3      7938            0.0000000000
     46066      8130  TIP3      H2            -20.3680060446       18.4046727319       74.6625166893  TIP3      7938            0.0000000000
     46067      8131  TIP3      OH2            -5.7723761528       11.3264786891       64.4059480807  TIP3      7939            0.0000000000
     46068      8131  TIP3      H1             -5.8167500408       12.3071307686       64.3998228009  TIP3      7939            0.0000000000
     46069      8131  TIP3      H2             -6.5252676165       11.0958642439       63.8305271370  TIP3      7939            0.0000000000
     46070      8132  TIP3      OH2            -6.9278758094       10.5757874738       67.9130736523  TIP3      7940            0.0000000000
     46071      8132  TIP3      H1             -6.9804874058        9.9427112469       68.6410424207  TIP3      7940            0.0000000000
     46072      8132  TIP3      H2             -7.3113931940       10.0818740149       67.1692982458  TIP3      7940            0.0000000000
     46073      8133  TIP3      OH2           -14.6088139483       10.2646437553       69.4753538992  TIP3      7941            0.0000000000
     46074      8133  TIP3      H1            -14.5160615375        9.5738294105       70.1606568688  TIP3      7941            0.0000000000
     46075      8133  TIP3      H2            -13.8532341923       10.8339892197       69.6884402980  TIP3      7941            0.0000000000
     46076      8134  TIP3      OH2            -3.2352312772       13.5198744657       66.2132784015  TIP3      7942            0.0000000000
     46077      8134  TIP3      H1             -3.7099364245       12.8503771175       66.7050138551  TIP3      7942            0.0000000000
     46078      8134  TIP3      H2             -3.2451454569       14.2617207975       66.8532458944  TIP3      7942            0.0000000000
     46079      8135  TIP3      OH2           -13.6764299645       14.7139477404       67.9698028105  TIP3      7943            0.0000000000
     46080      8135  TIP3      H1            -13.9864901539       13.8444789892       67.6516685562  TIP3      7943            0.0000000000
     46081      8135  TIP3      H2            -12.7207552158       14.5314546250       68.0149123589  TIP3      7943            0.0000000000
     46082      8136  TIP3      OH2           -17.0388786989        8.2689289302       63.4626680404  TIP3      7944            0.0000000000
     46083      8136  TIP3      H1            -17.4743684639        9.1398552728       63.3958218384  TIP3      7944            0.0000000000
     46084      8136  TIP3      H2            -17.5990963714        7.7285460459       62.8902875708  TIP3      7944            0.0000000000
     46085      8137  TIP3      OH2           -16.3228428839       10.4964352057       65.6093041453  TIP3      7945            0.0000000000
     46086      8137  TIP3      H1            -16.0508917331        9.6738147099       66.0571236910  TIP3      7945            0.0000000000
     46087      8137  TIP3      H2            -15.6317537750       10.6028127269       64.9407283979  TIP3      7945            0.0000000000
     46088      8138  TIP3      OH2            -6.1498503832       18.6967952854       66.4392840144  TIP3      7946            0.0000000000
     46089      8138  TIP3      H1             -5.5008732465       18.0083918558       66.1517116089  TIP3      7946            0.0000000000
     46090      8138  TIP3      H2             -6.3656600858       18.3599575964       67.3086052152  TIP3      7946            0.0000000000
     46091      8139  TIP3      OH2            -8.5751039990       12.9803950112       68.3875532299  TIP3      7947            0.0000000000
     46092      8139  TIP3      H1             -8.2257436852       12.3537921411       67.7320152426  TIP3      7947            0.0000000000
     46093      8139  TIP3      H2             -7.7684105160       13.1475239778       68.9054491061  TIP3      7947            0.0000000000
     46094      8140  TIP3      OH2            -0.0288903013        4.6987558008       69.0855699933  TIP3      7948            0.0000000000
     46095      8140  TIP3      H1              0.2086045032        5.2055829516       69.8973762140  TIP3      7948            0.0000000000
     46096      8140  TIP3      H2              0.6155129614        5.0555639765       68.4610840933  TIP3      7948            0.0000000000
     46097      8141  TIP3      OH2            -5.3819031074        7.4438205822       68.7103832021  TIP3      7949            0.0000000000
     46098      8141  TIP3      H1             -5.2696256495        6.4752856544       68.7152341224  TIP3      7949            0.0000000000
     46099      8141  TIP3      H2             -5.5489524890        7.5920088779       67.7621534901  TIP3      7949            0.0000000000
     46100      8142  TIP3      OH2           -12.2996014722        5.5471302094       65.9171137280  TIP3      7950            0.0000000000
     46101      8142  TIP3      H1            -12.1907127111        6.3813691549       65.4238332374  TIP3      7950            0.0000000000
     46102      8142  TIP3      H2            -12.6972897925        4.9740211011       65.2264609862  TIP3      7950            0.0000000000
     46103      8143  TIP3      OH2            -4.5593063386        5.6469090119       64.3050806103  TIP3      7951            0.0000000000
     46104      8143  TIP3      H1             -3.9099165318        5.2887160160       64.9504345422  TIP3      7951            0.0000000000
     46105      8143  TIP3      H2             -3.9946417527        6.1904036194       63.7403273614  TIP3      7951            0.0000000000
     46106      8144  TIP3      OH2           -15.6730367743        7.9475793554       66.6630658558  TIP3      7952            0.0000000000
     46107      8144  TIP3      H1            -14.9986485284        7.4081130764       67.1099024780  TIP3      7952            0.0000000000
     46108      8144  TIP3      H2            -15.5656489539        7.6452715809       65.7458555030  TIP3      7952            0.0000000000
     46109      8145  TIP3      OH2           -10.5177672721        9.5139064215       65.9737244655  TIP3      7953            0.0000000000
     46110      8145  TIP3      H1             -9.8437197062        8.9318912680       66.3654102238  TIP3      7953            0.0000000000
     46111      8145  TIP3      H2            -11.0353974859        8.8564608537       65.4673718676  TIP3      7953            0.0000000000
     46112      8146  TIP3      OH2             0.4469975075        6.0601250557       71.3749548586  TIP3      7954            0.0000000000
     46113      8146  TIP3      H1             -0.1540872934        6.8264061187       71.2978662389  TIP3      7954            0.0000000000
     46114      8146  TIP3      H2              0.5014644001        5.9621750651       72.3353828147  TIP3      7954            0.0000000000
     46115      8147  TIP3      OH2           -13.3939945054        4.4299509313       69.9645873979  TIP3      7955            0.0000000000
     46116      8147  TIP3      H1            -13.6542162321        5.0087657861       69.2086572652  TIP3      7955            0.0000000000
     46117      8147  TIP3      H2            -14.0749046064        4.6907522186       70.6279855207  TIP3      7955            0.0000000000
     46118      8148  TIP3      OH2            -6.1041293232       13.9245096407       63.5022774170  TIP3      7956            0.0000000000
     46119      8148  TIP3      H1             -6.3630519766       13.6536460485       62.6136312102  TIP3      7956            0.0000000000
     46120      8148  TIP3      H2             -6.4080511871       14.8591623786       63.5545749306  TIP3      7956            0.0000000000
     46121      8149  TIP3      OH2           -10.8789785834       12.0883465007       70.1960639633  TIP3      7957            0.0000000000
     46122      8149  TIP3      H1            -11.5813103880       12.7351098513       70.4184726054  TIP3      7957            0.0000000000
     46123      8149  TIP3      H2            -10.1708727858       12.6862217307       69.9068124252  TIP3      7957            0.0000000000
     46124      8150  TIP3      OH2            -2.7438327019        5.0084665875       66.2949990769  TIP3      7958            0.0000000000
     46125      8150  TIP3      H1             -2.9818353613        4.2061277104       66.7808957129  TIP3      7958            0.0000000000
     46126      8150  TIP3      H2             -2.0509440790        5.3633341911       66.8644496257  TIP3      7958            0.0000000000
     46127      8151  TIP3      OH2           -13.8144090280        6.2908381368       68.0000304111  TIP3      7959            0.0000000000
     46128      8151  TIP3      H1            -13.1940501842        6.9897661964       68.3041310949  TIP3      7959            0.0000000000
     46129      8151  TIP3      H2            -13.3027283019        5.8927333276       67.2530614296  TIP3      7959            0.0000000000
     46130      8152  TIP3      OH2           -12.4244883547       14.0934789950       71.0180993340  TIP3      7960            0.0000000000
     46131      8152  TIP3      H1            -12.4723021318       15.0069260077       70.6755635639  TIP3      7960            0.0000000000
     46132      8152  TIP3      H2            -13.3090252154       14.0216061837       71.4545033363  TIP3      7960            0.0000000000
     46133      8153  TIP3      OH2           -16.3480106112       13.7027742509       61.8086002798  TIP3      7961            0.0000000000
     46134      8153  TIP3      H1            -16.5987561942       14.0425539133       60.9317827733  TIP3      7961            0.0000000000
     46135      8153  TIP3      H2            -16.2686066042       14.5302943431       62.3241710583  TIP3      7961            0.0000000000
     46136      8154  TIP3      OH2            -2.7388792966       15.3788200104       68.5696016539  TIP3      7962            0.0000000000
     46137      8154  TIP3      H1             -3.7074311569       15.4868421360       68.6897589351  TIP3      7962            0.0000000000
     46138      8154  TIP3      H2             -2.4707223652       16.2955726432       68.3661305110  TIP3      7962            0.0000000000
     46139      8155  TIP3      OH2            -2.4288987599        3.6525175650       69.9633415055  TIP3      7963            0.0000000000
     46140      8155  TIP3      H1             -3.1523287708        4.2859567635       69.8729780797  TIP3      7963            0.0000000000
     46141      8155  TIP3      H2             -1.7088130740        4.0635652568       69.4455836950  TIP3      7963            0.0000000000
     46142      8156  TIP3      OH2            -9.4462105705        1.7840016677       67.4428667578  TIP3      7964            0.0000000000
     46143      8156  TIP3      H1             -9.5914949223        0.8226170410       67.3260659972  TIP3      7964            0.0000000000
     46144      8156  TIP3      H2            -10.3351240322        2.0907322308       67.7052515714  TIP3      7964            0.0000000000
     46145      8157  TIP3      OH2            -4.4785118781       17.1603958705       65.1550726726  TIP3      7965            0.0000000000
     46146      8157  TIP3      H1             -4.0515314929       16.4406656952       64.6468620988  TIP3      7965            0.0000000000
     46147      8157  TIP3      H2             -4.0448571129       17.9491756199       64.7651034348  TIP3      7965            0.0000000000
     46148      8158  TIP3      OH2            -3.2622862543       15.0775209234       63.6791075521  TIP3      7966            0.0000000000
     46149      8158  TIP3      H1             -3.5682012305       14.3853693869       63.0725946727  TIP3      7966            0.0000000000
     46150      8158  TIP3      H2             -3.2304482400       14.5890999151       64.5195705504  TIP3      7966            0.0000000000
     46151      8159  TIP3      OH2            -1.6556413658       13.6814693751       72.1665087091  TIP3      7967            0.0000000000
     46152      8159  TIP3      H1             -1.5019343905       13.0309759851       71.4486337451  TIP3      7967            0.0000000000
     46153      8159  TIP3      H2             -1.4496991331       14.5293901383       71.7326150861  TIP3      7967            0.0000000000
     46154      8160  TIP3      OH2            -7.1397604398       10.5640877796       61.9415733296  TIP3      7968            0.0000000000
     46155      8160  TIP3      H1             -7.8393556079       11.1390832631       61.5767005194  TIP3      7968            0.0000000000
     46156      8160  TIP3      H2             -6.4400212615       10.6633400942       61.2690471338  TIP3      7968            0.0000000000
     46157      8161  TIP3      OH2            -7.0724466700        9.1402025073       58.9404938908  TIP3      7969            0.0000000000
     46158      8161  TIP3      H1             -6.3677063681        9.1212202281       59.6053845968  TIP3      7969            0.0000000000
     46159      8161  TIP3      H2             -6.7666054299        8.4216195095       58.3720669594  TIP3      7969            0.0000000000
     46160      8162  TIP3      OH2             0.2000455068        9.9651439229       70.1592403034  TIP3      7970            0.0000000000
     46161      8162  TIP3      H1             -0.4080954437       10.7283275943       70.2622661923  TIP3      7970            0.0000000000
     46162      8162  TIP3      H2              0.7599841820       10.2582629315       69.4197656664  TIP3      7970            0.0000000000
     46163      8163  TIP3      OH2            -3.6784439307       10.7898767246       62.8608307811  TIP3      7971            0.0000000000
     46164      8163  TIP3      H1             -4.4557648434       11.0347673131       63.4263947616  TIP3      7971            0.0000000000
     46165      8163  TIP3      H2             -3.2502956859       10.0907067029       63.3580254720  TIP3      7971            0.0000000000
     46166      8164  TIP3      OH2            -3.7609404914        8.9556596352       71.9454055488  TIP3      7972            0.0000000000
     46167      8164  TIP3      H1             -3.7666213222        9.7624454281       72.4873964050  TIP3      7972            0.0000000000
     46168      8164  TIP3      H2             -4.4280537727        9.2411524003       71.2914946154  TIP3      7972            0.0000000000
     46169      8165  TIP3      OH2           -12.0956712463       11.4385999324       64.7706417561  TIP3      7973            0.0000000000
     46170      8165  TIP3      H1            -12.4144237119       11.0498498933       63.9205531818  TIP3      7973            0.0000000000
     46171      8165  TIP3      H2            -11.4795832940       10.7491279973       65.1040678376  TIP3      7973            0.0000000000
     46172      8166  TIP3      OH2           -10.7752961710       14.8229428660       67.4504237760  TIP3      7974            0.0000000000
     46173      8166  TIP3      H1            -10.7786942421       14.3003862957       66.6392255102  TIP3      7974            0.0000000000
     46174      8166  TIP3      H2             -9.9917215935       14.4686057110       67.9094052916  TIP3      7974            0.0000000000
     46175      8167  TIP3      OH2           -11.7672545679       10.1879318357       68.4336025802  TIP3      7975            0.0000000000
     46176      8167  TIP3      H1            -11.2189286730       10.2859354565       67.6301244684  TIP3      7975            0.0000000000
     46177      8167  TIP3      H2            -11.3742405688       10.8527403494       69.0417231562  TIP3      7975            0.0000000000
     46178      8168  TIP3      OH2            -5.3427620174       15.7635691099       69.1392930235  TIP3      7976            0.0000000000
     46179      8168  TIP3      H1             -5.6464446559       16.4057059579       69.7894690216  TIP3      7976            0.0000000000
     46180      8168  TIP3      H2             -5.6013546517       14.9113976332       69.5637184391  TIP3      7976            0.0000000000
     46181      8169  TIP3      OH2           -10.8109408318       14.6188968484       73.1272286064  TIP3      7977            0.0000000000
     46182      8169  TIP3      H1            -11.2259640967       15.3569616094       73.6190756245  TIP3      7977            0.0000000000
     46183      8169  TIP3      H2            -11.4838624284       14.4186750390       72.4308427506  TIP3      7977            0.0000000000
     46184      8170  TIP3      OH2            -4.8266984188        9.9874423909       60.5194151624  TIP3      7978            0.0000000000
     46185      8170  TIP3      H1             -4.2709015608       10.1603161093       61.3172591287  TIP3      7978            0.0000000000
     46186      8170  TIP3      H2             -4.3759740165       10.4791880451       59.7958208705  TIP3      7978            0.0000000000
     46187      8171  TIP3      OH2           -13.8907639297       10.7434306270       72.3396781927  TIP3      7979            0.0000000000
     46188      8171  TIP3      H1            -13.8152456412       11.4666599415       72.9881895344  TIP3      7979            0.0000000000
     46189      8171  TIP3      H2            -14.7969629143       10.8878858035       72.0338042188  TIP3      7979            0.0000000000
     46190      8172  TIP3      OH2            -7.1159560550       16.7060784219       63.9919237115  TIP3      7980            0.0000000000
     46191      8172  TIP3      H1             -6.6847988634       17.0132102969       64.7970174033  TIP3      7980            0.0000000000
     46192      8172  TIP3      H2             -7.6733248006       17.4550677277       63.7522703588  TIP3      7980            0.0000000000
     46193      8173  TIP3      OH2           -12.5652252390       16.6531178856       73.8740408873  TIP3      7981            0.0000000000
     46194      8173  TIP3      H1            -12.6269556248       16.5525236453       72.9091030214  TIP3      7981            0.0000000000
     46195      8173  TIP3      H2            -13.4933331360       16.5185756627       74.1428390102  TIP3      7981            0.0000000000
     46196      8174  TIP3      OH2            -1.1041516226        1.7143304946       60.4232747987  TIP3      7982            0.0000000000
     46197      8174  TIP3      H1             -2.0511059709        1.8281146940       60.6623245807  TIP3      7982            0.0000000000
     46198      8174  TIP3      H2             -0.9021962404        2.5545957235       59.9783183285  TIP3      7982            0.0000000000
     46199      8175  TIP3      OH2           -13.1232084780       10.4572680917       62.3945414100  TIP3      7983            0.0000000000
     46200      8175  TIP3      H1            -13.4103211866       11.2435781594       61.8822976217  TIP3      7983            0.0000000000
     46201      8175  TIP3      H2            -13.7772163815        9.7960411336       62.1540988673  TIP3      7983            0.0000000000
     46202      8176  TIP3      OH2             0.0091077523       16.0674673595       58.7709567506  TIP3      7984            0.0000000000
     46203      8176  TIP3      H1              0.1751953799       17.0104573844       58.9404744849  TIP3      7984            0.0000000000
     46204      8176  TIP3      H2              0.9325228587       15.7544634073       58.7677544526  TIP3      7984            0.0000000000
     46205      8177  TIP3      OH2           -17.0374920276       12.8924441641       71.2744880798  TIP3      7985            0.0000000000
     46206      8177  TIP3      H1            -17.4844590167       12.8134110979       70.4158037549  TIP3      7985            0.0000000000
     46207      8177  TIP3      H2            -16.9540208811       11.9447033065       71.4824453849  TIP3      7985            0.0000000000
     46208      8178  TIP3      OH2           -17.2750868062       15.6283933392       68.0605135802  TIP3      7986            0.0000000000
     46209      8178  TIP3      H1            -16.3167439072       15.5127495403       68.0404918288  TIP3      7986            0.0000000000
     46210      8178  TIP3      H2            -17.3568628484       16.4463700285       68.5661113457  TIP3      7986            0.0000000000
     46211      8179  TIP3      OH2             0.9521314379       16.3295597983       73.7184306251  TIP3      7987            0.0000000000
     46212      8179  TIP3      H1              0.8428746393       15.3689447410       73.7328544083  TIP3      7987            0.0000000000
     46213      8179  TIP3      H2              0.1013509390       16.5806573222       74.1539451493  TIP3      7987            0.0000000000
     46214      8180  TIP3      OH2            -8.0790518443       15.8739738285       72.6154161237  TIP3      7988            0.0000000000
     46215      8180  TIP3      H1             -8.0213578210       16.7102433085       73.1371150432  TIP3      7988            0.0000000000
     46216      8180  TIP3      H2             -8.9518247544       15.5126204763       72.8627925405  TIP3      7988            0.0000000000
     46217      8181  TIP3      OH2            -7.6335928555       19.6138543735       62.4013103874  TIP3      7989            0.0000000000
     46218      8181  TIP3      H1             -7.7459622460       19.5368682078       61.4364743592  TIP3      7989            0.0000000000
     46219      8181  TIP3      H2             -7.6331520796       20.5762200659       62.5578787985  TIP3      7989            0.0000000000
     46220      8182  TIP3      OH2           -13.9994029538       18.4939775242       64.2261324367  TIP3      7990            0.0000000000
     46221      8182  TIP3      H1            -13.8530398094       18.0791723229       65.1030560912  TIP3      7990            0.0000000000
     46222      8182  TIP3      H2            -14.8471259296       18.0837709192       63.9866252146  TIP3      7990            0.0000000000
     46223      8183  TIP3      OH2            -4.5810897435       18.8280844389       59.3858489912  TIP3      7991            0.0000000000
     46224      8183  TIP3      H1             -4.1262567076       18.0695215945       58.9515862743  TIP3      7991            0.0000000000
     46225      8183  TIP3      H2             -4.5412284657       18.5664986584       60.3292091599  TIP3      7991            0.0000000000
     46226      8184  TIP3      OH2            -4.8835413236       18.7636642771       62.1612192834  TIP3      7992            0.0000000000
     46227      8184  TIP3      H1             -5.8461119220       18.8385385702       62.3308429227  TIP3      7992            0.0000000000
     46228      8184  TIP3      H2             -4.6515973512       18.0203803346       62.7384241182  TIP3      7992            0.0000000000
     46229      8185  TIP3      OH2            -1.8832806381        7.8048217055       74.1872458637  TIP3      7993            0.0000000000
     46230      8185  TIP3      H1             -2.3717394109        8.2550733706       73.4806063039  TIP3      7993            0.0000000000
     46231      8185  TIP3      H2             -1.9127612355        6.8759307205       73.9113838117  TIP3      7993            0.0000000000
     46232      8186  TIP3      OH2           -14.7471880709       14.2032617617       72.2233781089  TIP3      7994            0.0000000000
     46233      8186  TIP3      H1            -14.5284147719       13.8448978370       73.1077634566  TIP3      7994            0.0000000000
     46234      8186  TIP3      H2            -15.6194408977       13.8109765563       72.0117112846  TIP3      7994            0.0000000000
     46235      8187  TIP3      OH2           -12.0771896786        2.6664536708       68.2184739601  TIP3      7995            0.0000000000
     46236      8187  TIP3      H1            -12.9581639978        2.5648165441       67.7878333868  TIP3      7995            0.0000000000
     46237      8187  TIP3      H2            -12.1992971046        3.5387212741       68.6292170608  TIP3      7995            0.0000000000
     46238      8188  TIP3      OH2            -7.4276444688        2.3404071265       71.5348325476  TIP3      7996            0.0000000000
     46239      8188  TIP3      H1             -7.0090055246        1.9499223176       72.3336831843  TIP3      7996            0.0000000000
     46240      8188  TIP3      H2             -8.3820425456        2.2339669775       71.7085572509  TIP3      7996            0.0000000000
     46241      8189  TIP3      OH2            -4.1309994933        6.2019654430       72.4408925442  TIP3      7997            0.0000000000
     46242      8189  TIP3      H1             -4.7016909207        5.9746885368       73.2192692177  TIP3      7997            0.0000000000
     46243      8189  TIP3      H2             -4.3251233626        7.1264328353       72.2077955305  TIP3      7997            0.0000000000
     46244      8190  TIP3      OH2            -3.3741071141       11.0073361954       58.3377240354  TIP3      7998            0.0000000000
     46245      8190  TIP3      H1             -3.4008600804       10.8227156976       57.3705386749  TIP3      7998            0.0000000000
     46246      8190  TIP3      H2             -2.5204108677       11.4603965076       58.3847217645  TIP3      7998            0.0000000000
     46247      8191  TIP3      OH2            -7.7844225440        4.9374996161       58.8437734724  TIP3      7999            0.0000000000
     46248      8191  TIP3      H1             -8.0990392648        4.8742023981       59.7640581388  TIP3      7999            0.0000000000
     46249      8191  TIP3      H2             -8.0923427681        4.0599772812       58.5378275927  TIP3      7999            0.0000000000
     46250      8192  TIP3      OH2           -11.9560586058        7.6632686205       69.4348869588  TIP3      8000            0.0000000000
     46251      8192  TIP3      H1            -12.6988346989        7.6483068843       70.0671782635  TIP3      8000            0.0000000000
     46252      8192  TIP3      H2            -12.0127531590        8.5666536551       69.0537380273  TIP3      8000            0.0000000000
     46253      8193  TIP3      OH2           -12.0045332327        7.7716745550       64.2923914272  TIP3      8001            0.0000000000
     46254      8193  TIP3      H1            -12.9432982677        7.5229096237       64.1604757641  TIP3      8001            0.0000000000
     46255      8193  TIP3      H2            -11.6293452142        7.4823447754       63.4373181503  TIP3      8001            0.0000000000
     46256      8194  TIP3      OH2            -6.4871306060        8.2756820565       63.0680932041  TIP3      8002            0.0000000000
     46257      8194  TIP3      H1             -6.8809350949        9.1004386584       62.7003740620  TIP3      8002            0.0000000000
     46258      8194  TIP3      H2             -5.8090900040        8.1043762849       62.3935320878  TIP3      8002            0.0000000000
     46259      8195  TIP3      OH2            -7.4459178916        8.5070742439       74.5013211526  TIP3      8003            0.0000000000
     46260      8195  TIP3      H1             -7.9465718781        7.7048751993       74.7981856837  TIP3      8003            0.0000000000
     46261      8195  TIP3      H2             -6.5958692799        8.3595583356       74.9502588121  TIP3      8003            0.0000000000
     46262      8196  TIP3      OH2            -5.4643784506        7.7282937393       65.8638204627  TIP3      8004            0.0000000000
     46263      8196  TIP3      H1             -5.7820369526        8.3040374200       65.1465579219  TIP3      8004            0.0000000000
     46264      8196  TIP3      H2             -5.3987730388        6.8739748410       65.3913799303  TIP3      8004            0.0000000000
     46265      8197  TIP3      OH2           -14.3538521166        7.9035588914       71.0993494721  TIP3      8005            0.0000000000
     46266      8197  TIP3      H1            -14.2383705203        8.3224743092       71.9667135849  TIP3      8005            0.0000000000
     46267      8197  TIP3      H2            -14.7828165892        7.0636656301       71.3148808359  TIP3      8005            0.0000000000
     46268      8198  TIP3      OH2           -10.9732028944        5.3034763830       57.9617689772  TIP3      8006            0.0000000000
     46269      8198  TIP3      H1            -11.4273281489        4.8823345567       58.7197414510  TIP3      8006            0.0000000000
     46270      8198  TIP3      H2            -11.6829121539        5.7347462264       57.4702624559  TIP3      8006            0.0000000000
     46271      8199  TIP3      OH2           -17.6880158669        5.0149636210       65.0971411978  TIP3      8007            0.0000000000
     46272      8199  TIP3      H1            -17.0045189183        4.9784579151       65.7962268079  TIP3      8007            0.0000000000
     46273      8199  TIP3      H2            -17.2385574524        4.6417751940       64.3149485075  TIP3      8007            0.0000000000
     46274      8200  TIP3      OH2           -16.4230311793        5.7342655276       60.4412517599  TIP3      8008            0.0000000000
     46275      8200  TIP3      H1            -15.9087371257        6.3465950756       59.8842647759  TIP3      8008            0.0000000000
     46276      8200  TIP3      H2            -17.1092471649        6.3577256423       60.7622889188  TIP3      8008            0.0000000000
     46277      8201  TIP3      OH2            -6.2681153574        9.3492056012       70.4660277663  TIP3      8009            0.0000000000
     46278      8201  TIP3      H1             -5.8892614324        8.6629824989       69.8828592136  TIP3      8009            0.0000000000
     46279      8201  TIP3      H2             -6.7272323080        8.8204379742       71.1395904204  TIP3      8009            0.0000000000
     46280      8202  TIP3      OH2            -9.4580811420        5.3310643659       65.2974684709  TIP3      8010            0.0000000000
     46281      8202  TIP3      H1            -10.3917625011        5.3330644147       65.5910971437  TIP3      8010            0.0000000000
     46282      8202  TIP3      H2             -8.9775438949        5.1512362962       66.1202781945  TIP3      8010            0.0000000000
     46283      8203  TIP3      OH2           -14.6432219518        6.8777008496       64.1663544478  TIP3      8011            0.0000000000
     46284      8203  TIP3      H1            -15.5268153850        7.0343358852       63.7745631003  TIP3      8011            0.0000000000
     46285      8203  TIP3      H2            -14.3589988548        6.0438946871       63.7562270306  TIP3      8011            0.0000000000
     46286      8204  TIP3      OH2           -10.9991782258        6.9251092239       61.7915784450  TIP3      8012            0.0000000000
     46287      8204  TIP3      H1            -10.0433148377        7.0366143143       61.9522225614  TIP3      8012            0.0000000000
     46288      8204  TIP3      H2            -11.2364367985        7.6082502489       61.1364701760  TIP3      8012            0.0000000000
     46289      8205  TIP3      OH2            -5.0319443606        4.5848098486       68.5233029830  TIP3      8013            0.0000000000
     46290      8205  TIP3      H1             -5.7083523542        4.6154053021       69.2408460774  TIP3      8013            0.0000000000
     46291      8205  TIP3      H2             -5.5529411197        4.3032530823       67.7568529030  TIP3      8013            0.0000000000
     46292      8206  TIP3      OH2           -12.2931413088        8.1018580214       59.3802880563  TIP3      8014            0.0000000000
     46293      8206  TIP3      H1            -12.8260744575        7.7224479147       58.6606828590  TIP3      8014            0.0000000000
     46294      8206  TIP3      H2            -11.4726395825        8.3094070198       58.9067266846  TIP3      8014            0.0000000000
     46295      8207  TIP3      OH2            -1.8548098697       20.2058149711       74.8994419301  TIP3      8015            0.0000000000
     46296      8207  TIP3      H1             -1.5772269424       20.5689529098       74.0376880560  TIP3      8015            0.0000000000
     46297      8207  TIP3      H2             -1.1177974454       20.5076272858       75.4553840992  TIP3      8015            0.0000000000
     46298      8208  TIP3      OH2           -14.1687941989       12.6462670953       74.4604391567  TIP3      8016            0.0000000000
     46299      8208  TIP3      H1            -13.4458120378       12.9372486171       75.0453538762  TIP3      8016            0.0000000000
     46300      8208  TIP3      H2            -14.9386156388       12.7900206833       75.0405868982  TIP3      8016            0.0000000000
     46301      8209  TIP3      OH2            -8.1726971473        8.0839642791       67.1896453967  TIP3      8017            0.0000000000
     46302      8209  TIP3      H1             -7.5713623994        7.5511265581       66.6564646471  TIP3      8017            0.0000000000
     46303      8209  TIP3      H2             -8.3138922604        7.5353062468       67.9717104664  TIP3      8017            0.0000000000
     46304      8210  TIP3      OH2           -13.1586322977        4.2288197954       63.6279030883  TIP3      8018            0.0000000000
     46305      8210  TIP3      H1            -13.4698431518        3.3053224994       63.6183538364  TIP3      8018            0.0000000000
     46306      8210  TIP3      H2            -12.3692694005        4.1613717058       63.0770725555  TIP3      8018            0.0000000000
     46307      8211  TIP3      OH2            -9.5376992667        6.4042974154       69.6158750127  TIP3      8019            0.0000000000
     46308      8211  TIP3      H1            -10.3571517794        6.9332987736       69.6925390600  TIP3      8019            0.0000000000
     46309      8211  TIP3      H2             -8.9750915860        6.7701125623       70.3245998230  TIP3      8019            0.0000000000
     46310      8212  TIP3      OH2            -8.9386068801       12.6336253346       61.3015215912  TIP3      8020            0.0000000000
     46311      8212  TIP3      H1             -9.7408990297       12.1690302685       60.9658088076  TIP3      8020            0.0000000000
     46312      8212  TIP3      H2             -9.1690610474       12.7595123348       62.2451163307  TIP3      8020            0.0000000000
     46313      8213  TIP3      OH2            -1.7399812623       11.7905137930       70.0714059410  TIP3      8021            0.0000000000
     46314      8213  TIP3      H1             -1.1939151613       12.3442132655       69.4840117972  TIP3      8021            0.0000000000
     46315      8213  TIP3      H2             -2.6220949088       11.9070855189       69.6617677465  TIP3      8021            0.0000000000
     46316      8214  TIP3      OH2            -5.1160858868        5.4449684076       59.4782409165  TIP3      8022            0.0000000000
     46317      8214  TIP3      H1             -6.0657366100        5.6012750172       59.3407455332  TIP3      8022            0.0000000000
     46318      8214  TIP3      H2             -4.7766285178        6.2976089881       59.8204976692  TIP3      8022            0.0000000000
     46319      8215  TIP3      OH2            -7.4535440073       12.8984311138       72.5440378156  TIP3      8023            0.0000000000
     46320      8215  TIP3      H1             -7.8079987332       12.4785565139       73.3356850103  TIP3      8023            0.0000000000
     46321      8215  TIP3      H2             -7.7048032133       13.8238076557       72.6508440058  TIP3      8023            0.0000000000
     46322      8216  TIP3      OH2            -4.3807608959        7.3713959383       61.0985199275  TIP3      8024            0.0000000000
     46323      8216  TIP3      H1             -3.4973089919        7.2290496701       61.4902132290  TIP3      8024            0.0000000000
     46324      8216  TIP3      H2             -4.2741639984        8.1909714203       60.5872509301  TIP3      8024            0.0000000000
     46325      8217  TIP3      OH2           -13.8284323394       12.0321066882       67.1035951932  TIP3      8025            0.0000000000
     46326      8217  TIP3      H1            -13.1523709135       11.9470958516       66.4018682765  TIP3      8025            0.0000000000
     46327      8217  TIP3      H2            -13.7730270235       11.1713988802       67.5564690490  TIP3      8025            0.0000000000
     46328      8218  TIP3      OH2            -6.8480136669       14.1024554725       60.3328065590  TIP3      8026            0.0000000000
     46329      8218  TIP3      H1             -7.1917847027       14.9476677902       60.6896545988  TIP3      8026            0.0000000000
     46330      8218  TIP3      H2             -7.5798388933       13.4856595637       60.5516750495  TIP3      8026            0.0000000000
     46331      8219  TIP3      OH2           -16.8596839886       10.4360245831       72.3750369183  TIP3      8027            0.0000000000
     46332      8219  TIP3      H1            -16.6652791229        9.9745981585       73.2005319813  TIP3      8027            0.0000000000
     46333      8219  TIP3      H2            -17.4572291301        9.8386934249       71.8864465759  TIP3      8027            0.0000000000
     46334      8220  TIP3      OH2            -9.8425507261        9.9893901374       74.5496030697  TIP3      8028            0.0000000000
     46335      8220  TIP3      H1            -10.1493487375        9.6844191655       73.6844670378  TIP3      8028            0.0000000000
     46336      8220  TIP3      H2             -8.9133787089        9.6739047112       74.5420889916  TIP3      8028            0.0000000000
     46337      8221  TIP3      OH2            -5.1441294146       15.3266989165       72.4914007450  TIP3      8029            0.0000000000
     46338      8221  TIP3      H1             -6.0696401665       15.5068712561       72.2595458397  TIP3      8029            0.0000000000
     46339      8221  TIP3      H2             -5.1771801999       15.6174349262       73.4235351160  TIP3      8029            0.0000000000
     46340      8222  TIP3      OH2             0.5285994399        7.5006200708       60.8767405963  TIP3      8030            0.0000000000
     46341      8222  TIP3      H1             -0.0421973432        7.2198792892       60.1377554914  TIP3      8030            0.0000000000
     46342      8222  TIP3      H2              0.6038243700        8.4506229318       60.6291088822  TIP3      8030            0.0000000000
     46343      8223  TIP3      OH2             0.5131813911       13.3633770540       73.6832384360  TIP3      8031            0.0000000000
     46344      8223  TIP3      H1             -0.3794323351       13.5907754209       73.3235838737  TIP3      8031            0.0000000000
     46345      8223  TIP3      H2              1.0561536949       13.3182399543       72.8701936040  TIP3      8031            0.0000000000
     46346      8224  TIP3      OH2            -1.2231234049       16.3354477414       61.2745571740  TIP3      8032            0.0000000000
     46347      8224  TIP3      H1             -1.5528474542       15.4981913204       61.6242956446  TIP3      8032            0.0000000000
     46348      8224  TIP3      H2             -0.8666756577       16.1166797295       60.3977325564  TIP3      8032            0.0000000000
     46349      8225  TIP3      OH2            -3.9890412201       11.2059166736       68.4179064786  TIP3      8033            0.0000000000
     46350      8225  TIP3      H1             -4.9318815267       11.0023717006       68.2964213030  TIP3      8033            0.0000000000
     46351      8225  TIP3      H2             -3.6136432259       10.4267748239       67.9832455681  TIP3      8033            0.0000000000
     46352      8226  TIP3      OH2           -11.4563023122       15.4868056591       64.4867601249  TIP3      8034            0.0000000000
     46353      8226  TIP3      H1            -10.9592419149       16.2932402974       64.2798929949  TIP3      8034            0.0000000000
     46354      8226  TIP3      H2            -12.3362262039       15.7153140342       64.1561120553  TIP3      8034            0.0000000000
     46355      8227  TIP3      OH2           -15.6914673618       10.3221686411       59.0568040493  TIP3      8035            0.0000000000
     46356      8227  TIP3      H1            -15.1132770128       10.9874459789       59.4668714140  TIP3      8035            0.0000000000
     46357      8227  TIP3      H2            -16.5826325399       10.6358826776       59.3056842943  TIP3      8035            0.0000000000
     46358      8228  TIP3      OH2           -10.0472507556       13.1517218336       63.9958270754  TIP3      8036            0.0000000000
     46359      8228  TIP3      H1            -10.3603795408       14.0696579990       64.0968701731  TIP3      8036            0.0000000000
     46360      8228  TIP3      H2            -10.7594618380       12.6558497984       64.4462836192  TIP3      8036            0.0000000000
     46361      8229  TIP3      OH2            -9.5942905003       17.3340547582       70.4160349426  TIP3      8037            0.0000000000
     46362      8229  TIP3      H1             -9.1343299682       18.1380130793       70.1286713001  TIP3      8037            0.0000000000
     46363      8229  TIP3      H2             -8.9702547791       16.9873470488       71.0782491391  TIP3      8037            0.0000000000
     46364      8230  TIP3      OH2           -11.3685575567       18.1383571930       63.5271695098  TIP3      8038            0.0000000000
     46365      8230  TIP3      H1            -12.3315854784       18.2815737846       63.6640790602  TIP3      8038            0.0000000000
     46366      8230  TIP3      H2            -11.0022333639       18.9740039857       63.8733376841  TIP3      8038            0.0000000000
     46367      8231  TIP3      OH2            -6.0791489775       13.3499637008       70.0469946156  TIP3      8039            0.0000000000
     46368      8231  TIP3      H1             -6.4012534432       13.1348314123       70.9482488790  TIP3      8039            0.0000000000
     46369      8231  TIP3      H2             -5.4425560867       12.6361649039       69.8643785582  TIP3      8039            0.0000000000
     46370      8232  TIP3      OH2            -3.7300533772       14.4090055698       59.1200984739  TIP3      8040            0.0000000000
     46371      8232  TIP3      H1             -3.4354289197       13.9348832836       59.9244861620  TIP3      8040            0.0000000000
     46372      8232  TIP3      H2             -4.6835518190       14.2239665039       59.2021415664  TIP3      8040            0.0000000000
     46373      8233  TIP3      OH2            -3.2477981553       17.9119231693       72.5204145005  TIP3      8041            0.0000000000
     46374      8233  TIP3      H1             -3.9431652190       17.4192201704       72.0435711927  TIP3      8041            0.0000000000
     46375      8233  TIP3      H2             -3.0695076917       18.6129459193       71.8586125051  TIP3      8041            0.0000000000
     46376      8234  TIP3      OH2             0.7310969548       18.7588137670       59.3771465470  TIP3      8042            0.0000000000
     46377      8234  TIP3      H1              1.4190177145       19.4236095703       59.1714663982  TIP3      8042            0.0000000000
     46378      8234  TIP3      H2              0.0163631576       19.3702969352       59.6625782484  TIP3      8042            0.0000000000
     46379      8235  TIP3      OH2           -15.1908197658        5.1805296334       71.9667661548  TIP3      8043            0.0000000000
     46380      8235  TIP3      H1            -16.0987228260        5.5068073614       71.8387844799  TIP3      8043            0.0000000000
     46381      8235  TIP3      H2            -15.3163157822        4.2965607685       72.3436683723  TIP3      8043            0.0000000000
     46382      8236  TIP3      OH2            -2.9565800857       13.0485516591       61.3565635354  TIP3      8044            0.0000000000
     46383      8236  TIP3      H1             -3.1958637513       12.2612522701       61.8869300232  TIP3      8044            0.0000000000
     46384      8236  TIP3      H2             -2.0028228400       13.0865923096       61.5411932358  TIP3      8044            0.0000000000
     46385      8237  TIP3      OH2           -15.5809158261       16.9495084314       70.3385483333  TIP3      8045            0.0000000000
     46386      8237  TIP3      H1            -15.2753356023       16.0294458174       70.3453515419  TIP3      8045            0.0000000000
     46387      8237  TIP3      H2            -15.3175987411       17.2415135530       71.2186879911  TIP3      8045            0.0000000000
     46388      8238  TIP3      OH2            -9.6035142824       15.4778771611       57.6179670355  TIP3      8046            0.0000000000
     46389      8238  TIP3      H1             -9.5048316684       14.7140524849       57.0269429796  TIP3      8046            0.0000000000
     46390      8238  TIP3      H2            -10.0458720031       15.0474612278       58.3820739397  TIP3      8046            0.0000000000
     46391      8239  TIP3      OH2           -10.8326385265       15.0054519390       60.0703144441  TIP3      8047            0.0000000000
     46392      8239  TIP3      H1            -10.5616484265       14.4904779358       60.8399040611  TIP3      8047            0.0000000000
     46393      8239  TIP3      H2            -10.7399598188       15.9313724256       60.3932435822  TIP3      8047            0.0000000000
     46394      8240  TIP3      OH2           -14.2879246108       12.2506528360       60.5565173021  TIP3      8048            0.0000000000
     46395      8240  TIP3      H1            -15.0034487086       12.6466862565       61.0933080398  TIP3      8048            0.0000000000
     46396      8240  TIP3      H2            -13.7837552475       13.0308615219       60.2616438675  TIP3      8048            0.0000000000
     46397      8241  TIP3      OH2            -6.4469544143        4.9350759295       70.8567045617  TIP3      8049            0.0000000000
     46398      8241  TIP3      H1             -5.7599493264        4.9975150669       71.5331957737  TIP3      8049            0.0000000000
     46399      8241  TIP3      H2             -6.8413424534        4.0682516400       71.0755958272  TIP3      8049            0.0000000000
     46400      8242  TIP3      OH2            -5.7153667419        4.5059515008       61.9620687067  TIP3      8050            0.0000000000
     46401      8242  TIP3      H1             -5.4872509554        4.9689152812       61.1309234389  TIP3      8050            0.0000000000
     46402      8242  TIP3      H2             -5.1406622487        4.9560550230       62.5928246387  TIP3      8050            0.0000000000
     46403      8243  TIP3      OH2            -8.0266496088       16.6676594014       60.7650658883  TIP3      8051            0.0000000000
     46404      8243  TIP3      H1             -8.8446362800       17.2002947474       60.8375971560  TIP3      8051            0.0000000000
     46405      8243  TIP3      H2             -7.4878234428       17.2184103018       60.1788251787  TIP3      8051            0.0000000000
     46406      8244  TIP3      OH2            -8.4862993784        6.2571396933       62.7776378041  TIP3      8052            0.0000000000
     46407      8244  TIP3      H1             -7.7066383589        6.8437781347       62.8314136243  TIP3      8052            0.0000000000
     46408      8244  TIP3      H2             -8.7637195943        6.1259049559       63.7044695021  TIP3      8052            0.0000000000
     46409      8245  TIP3      OH2            -7.9259518948        7.2825762701       71.9813127192  TIP3      8053            0.0000000000
     46410      8245  TIP3      H1             -7.8571589207        7.8315832426       72.7838658601  TIP3      8053            0.0000000000
     46411      8245  TIP3      H2             -7.2646362658        6.5855537323       72.0784713941  TIP3      8053            0.0000000000
     46412      8246  TIP3      OH2            -7.6382386285        3.3173064988       63.6584558959  TIP3      8054            0.0000000000
     46413      8246  TIP3      H1             -7.9637832660        3.9745075037       64.2970369563  TIP3      8054            0.0000000000
     46414      8246  TIP3      H2             -6.9421549045        3.8616651731       63.2178036461  TIP3      8054            0.0000000000
     46415      8247  TIP3      OH2           -10.6244096597       17.7022862600       60.7960359663  TIP3      8055            0.0000000000
     46416      8247  TIP3      H1            -10.5331514405       18.5169688941       60.2448048235  TIP3      8055            0.0000000000
     46417      8247  TIP3      H2            -10.8991980988       18.0667328758       61.6658374690  TIP3      8055            0.0000000000
     46418      8248  TIP3      OH2           -11.9797587154        4.4233386541       60.3735201590  TIP3      8056            0.0000000000
     46419      8248  TIP3      H1            -12.0296015669        5.3218422768       60.7576155936  TIP3      8056            0.0000000000
     46420      8248  TIP3      H2            -11.0703576745        4.1791193046       60.6361627102  TIP3      8056            0.0000000000
     46421      8249  TIP3      OH2            -1.7577587867        5.1550855652       72.8186102559  TIP3      8057            0.0000000000
     46422      8249  TIP3      H1             -2.6922611825        5.4570880607       72.7033166712  TIP3      8057            0.0000000000
     46423      8249  TIP3      H2             -1.4586388713        5.1446829959       71.8921965341  TIP3      8057            0.0000000000
     46424      8250  TIP3      OH2            -3.5354983500        9.0094217003       66.9830534222  TIP3      8058            0.0000000000
     46425      8250  TIP3      H1             -4.2065177538        8.4927636430       66.4772360337  TIP3      8058            0.0000000000
     46426      8250  TIP3      H2             -3.1773152929        8.3310902814       67.5725210782  TIP3      8058            0.0000000000
     46427      8251  TIP3      OH2           -13.7472746295       14.8649065477       59.4147736797  TIP3      8059            0.0000000000
     46428      8251  TIP3      H1            -13.0800845727       15.4920509100       59.7316478579  TIP3      8059            0.0000000000
     46429      8251  TIP3      H2            -13.2233547745       14.4003629187       58.7312980534  TIP3      8059            0.0000000000
     46430      8252  TIP3      OH2           -15.4020908709        7.5383490911       58.5594804488  TIP3      8060            0.0000000000
     46431      8252  TIP3      H1            -15.3841539778        8.4964760015       58.7682006510  TIP3      8060            0.0000000000
     46432      8252  TIP3      H2            -16.2941248773        7.3640713869       58.2520234008  TIP3      8060            0.0000000000
     46433      8253  TIP3      OH2            -2.0775371932       18.2045926259       68.4962171923  TIP3      8061            0.0000000000
     46434      8253  TIP3      H1             -2.1654151945       18.8840482809       67.8002445216  TIP3      8061            0.0000000000
     46435      8253  TIP3      H2             -1.1137795599       18.2583781817       68.6747666200  TIP3      8061            0.0000000000
     46436      8254  TIP3      OH2           -14.5762372425        2.3157257962       67.3133559614  TIP3      8062            0.0000000000
     46437      8254  TIP3      H1            -14.7657535343        2.3474259128       66.3477681440  TIP3      8062            0.0000000000
     46438      8254  TIP3      H2            -15.0091756697        1.4654690867       67.5401409422  TIP3      8062            0.0000000000
     46439      8255  TIP3      OH2           -15.6298934368       16.2454736195       63.4505869626  TIP3      8063            0.0000000000
     46440      8255  TIP3      H1            -16.4826380420       16.6940790722       63.4032677078  TIP3      8063            0.0000000000
     46441      8255  TIP3      H2            -15.1538653547       16.7098940804       62.7490619025  TIP3      8063            0.0000000000
     46442      8256  TIP3      OH2           -16.4365544805       18.8902619628       74.7329976106  TIP3      8064            0.0000000000
     46443      8256  TIP3      H1            -15.8316886435       18.7021952193       75.4797579762  TIP3      8064            0.0000000000
     46444      8256  TIP3      H2            -16.8431660375       18.0244974129       74.5628388013  TIP3      8064            0.0000000000
     46445      8257  TIP3      OH2           -11.7684220459       17.7663498597       76.3622992229  TIP3      8065            0.0000000000
     46446      8257  TIP3      H1            -10.9744014706       17.3103033292       76.6675216379  TIP3      8065            0.0000000000
     46447      8257  TIP3      H2            -11.7760521647       17.5329072173       75.4132436565  TIP3      8065            0.0000000000
     46448      8258  TIP3      OH2            -7.6094785442       17.3288122880       57.7415650614  TIP3      8066            0.0000000000
     46449      8258  TIP3      H1             -8.3023270413       16.6696166966       57.9689800774  TIP3      8066            0.0000000000
     46450      8258  TIP3      H2             -6.8914477657       16.7301591168       57.4934056035  TIP3      8066            0.0000000000
     46451      8259  TIP3      OH2            -5.2501585034       16.1972326469       75.0629520697  TIP3      8067            0.0000000000
     46452      8259  TIP3      H1             -5.5667257619       15.3185446233       75.3589286396  TIP3      8067            0.0000000000
     46453      8259  TIP3      H2             -4.4679149184       16.3223510385       75.6330317202  TIP3      8067            0.0000000000
     46454      8260  TIP3      OH2            -3.0519654313       17.0735769104       57.9286347330  TIP3      8068            0.0000000000
     46455      8260  TIP3      H1             -2.7558711556       16.2969835930       58.4309428572  TIP3      8068            0.0000000000
     46456      8260  TIP3      H2             -2.2896153281       17.2978736909       57.3757635928  TIP3      8068            0.0000000000
     46457      8261  TIP3      OH2           -16.5634033083       12.5980211354       75.7475672877  TIP3      8069            0.0000000000
     46458      8261  TIP3      H1            -16.3205164308       11.7769771833       75.3031254127  TIP3      8069            0.0000000000
     46459      8261  TIP3      H2            -17.2292944478       12.9688764069       75.1322221596  TIP3      8069            0.0000000000
     46460      8262  TIP3      OH2           -12.1638900323       13.0141152025       57.7458523224  TIP3      8070            0.0000000000
     46461      8262  TIP3      H1            -12.0252774202       12.2525384505       58.3292761851  TIP3      8070            0.0000000000
     46462      8262  TIP3      H2            -11.4158189723       12.8945791667       57.1282154320  TIP3      8070            0.0000000000
     46463      8263  TIP3      OH2            -9.7994879462       12.6462013743       75.1117362256  TIP3      8071            0.0000000000
     46464      8263  TIP3      H1            -10.1313191543       12.9666307869       74.2523899887  TIP3      8071            0.0000000000
     46465      8263  TIP3      H2             -9.7278176791       11.6707945180       74.9963941550  TIP3      8071            0.0000000000
     46466      8264  TIP3      OH2            -6.7336093774       14.1224066405       57.5240610220  TIP3      8072            0.0000000000
     46467      8264  TIP3      H1             -7.0042913811       14.2037433203       58.4521605256  TIP3      8072            0.0000000000
     46468      8264  TIP3      H2             -6.9234580542       13.1649403315       57.3793632501  TIP3      8072            0.0000000000
     46469      8265  TIP3      OH2            -4.1015397541       12.5160461396       72.5045814238  TIP3      8073            0.0000000000
     46470      8265  TIP3      H1             -3.3139682218       13.0991105385       72.4440674669  TIP3      8073            0.0000000000
     46471      8265  TIP3      H2             -4.7997102382       13.1866694174       72.5407716716  TIP3      8073            0.0000000000
     46472      8266  TIP3      OH2           -15.7274221531        9.8136362039       75.1319159492  TIP3      8074            0.0000000000
     46473      8266  TIP3      H1            -15.1001957736        9.0925812151       74.9463669089  TIP3      8074            0.0000000000
     46474      8266  TIP3      H2            -15.5508399121       10.0177534217       76.0437526691  TIP3      8074            0.0000000000
     46475      8267  TIP3      OH2           -10.9613765351       11.0314188976       60.1767101275  TIP3      8075            0.0000000000
     46476      8267  TIP3      H1            -11.4662872122       10.4921490891       60.8033858612  TIP3      8075            0.0000000000
     46477      8267  TIP3      H2            -10.6634423371       10.3586518591       59.5212473142  TIP3      8075            0.0000000000
     46478      8268  TIP3      OH2           -11.6945232939        8.8373013985       72.4578590769  TIP3      8076            0.0000000000
     46479      8268  TIP3      H1            -12.2915895857        9.5566088494       72.7205265486  TIP3      8076            0.0000000000
     46480      8268  TIP3      H2            -11.2967551349        9.2077458463       71.6522204461  TIP3      8076            0.0000000000
     46481      8269  TIP3      OH2            -9.8854834732        9.2545718346       58.3741835657  TIP3      8077            0.0000000000
     46482      8269  TIP3      H1            -10.0408847184        9.1656342690       57.4129184943  TIP3      8077            0.0000000000
     46483      8269  TIP3      H2             -8.9093124248        9.3063665128       58.4395191889  TIP3      8077            0.0000000000
     46484      8270  TIP3      OH2            -6.6297662311       11.4218667929       75.8509998966  TIP3      8078            0.0000000000
     46485      8270  TIP3      H1             -5.6803903998       11.3819962447       75.6576476756  TIP3      8078            0.0000000000
     46486      8270  TIP3      H2             -6.7932254513       10.6337167232       76.3895877543  TIP3      8078            0.0000000000
     46487      8271  TIP3      OH2            -0.5552673250       11.5762155502       57.7919768345  TIP3      8079            0.0000000000
     46488      8271  TIP3      H1             -0.7472124963       11.1978280632       56.9222709891  TIP3      8079            0.0000000000
     46489      8271  TIP3      H2             -0.4671835589       12.5384021896       57.5998469920  TIP3      8079            0.0000000000
     46490      8272  TIP3      OH2           -11.3625502239        6.1967319209       73.5030923081  TIP3      8080            0.0000000000
     46491      8272  TIP3      H1            -11.1662744258        5.5161459169       72.8443045334  TIP3      8080            0.0000000000
     46492      8272  TIP3      H2            -11.3494974874        7.0267252021       72.9837409079  TIP3      8080            0.0000000000
     46493      8273  TIP3      OH2           -10.8818732736        4.5515999843       71.0529394445  TIP3      8081            0.0000000000
     46494      8273  TIP3      H1            -10.3748840686        5.0694325320       70.3758178336  TIP3      8081            0.0000000000
     46495      8273  TIP3      H2            -11.7829663920        4.5544853178       70.6547666678  TIP3      8081            0.0000000000
     46496      8274  TIP3      OH2            -9.3417662652       10.0929735339       71.3198254841  TIP3      8082            0.0000000000
     46497      8274  TIP3      H1             -8.5908163663        9.9239696824       70.7435511098  TIP3      8082            0.0000000000
     46498      8274  TIP3      H2             -9.7114521151       10.9225141335       70.9790161013  TIP3      8082            0.0000000000
     46499      8275  TIP3      OH2            -4.9673155936        7.8327973901       76.2636053868  TIP3      8083            0.0000000000
     46500      8275  TIP3      H1             -4.7420854922        6.8898157552       76.2006494981  TIP3      8083            0.0000000000
     46501      8275  TIP3      H2             -4.0959181151        8.2529683764       76.3067233392  TIP3      8083            0.0000000000
     46502      8276  TIP3      OH2            -3.6013320028       10.6422826374       74.4529624358  TIP3      8084            0.0000000000
     46503      8276  TIP3      H1             -3.8570445539       11.3522712189       73.8225883825  TIP3      8084            0.0000000000
     46504      8276  TIP3      H2             -2.6426154772       10.5952843853       74.2482550689  TIP3      8084            0.0000000000
     46505      8277  TIP3      OH2           -12.8469590597        7.4855139205       75.4281557290  TIP3      8085            0.0000000000
     46506      8277  TIP3      H1            -13.5628334894        6.8615061830       75.2327810708  TIP3      8085            0.0000000000
     46507      8277  TIP3      H2            -12.1594903085        7.1250008145       74.8199875285  TIP3      8085            0.0000000000
     46508      8278  TIP3      OH2           -10.1921818138        2.0337687061       71.4994358116  TIP3      8086            0.0000000000
     46509      8278  TIP3      H1            -10.2116971175        3.0164377741       71.3641327469  TIP3      8086            0.0000000000
     46510      8278  TIP3      H2            -10.7306370567        1.7429110614       70.7494656594  TIP3      8086            0.0000000000
     46511      8279  TIP3      OH2            -8.8578204532        6.4086511759       75.0762836361  TIP3      8087            0.0000000000
     46512      8279  TIP3      H1             -9.1052898052        6.1071303956       75.9778375294  TIP3      8087            0.0000000000
     46513      8279  TIP3      H2             -9.6298083674        6.1403582526       74.5464985716  TIP3      8087            0.0000000000
     46514      8280  TIP3      OH2            -6.0909100055        5.5307282389       74.1776604465  TIP3      8088            0.0000000000
     46515      8280  TIP3      H1             -7.0553927188        5.5451163555       74.2991683081  TIP3      8088            0.0000000000
     46516      8280  TIP3      H2             -5.8932960548        4.8274429514       74.8313314722  TIP3      8088            0.0000000000
     46517      8281  TIP3      OH2            -3.9967573176        4.1994948626       76.2451481557  TIP3      8089            0.0000000000
     46518      8281  TIP3      H1             -4.4528500184        3.3664195540       76.0203895542  TIP3      8089            0.0000000000
     46519      8281  TIP3      H2             -4.6766258937        4.4973896271       76.8964210535  TIP3      8089            0.0000000000
     46520      8282  TIP3      OH2           -14.5543807156        5.3627844917       75.2138121200  TIP3      8090            0.0000000000
     46521      8282  TIP3      H1            -14.4053315796        4.6507126352       74.5581450727  TIP3      8090            0.0000000000
     46522      8282  TIP3      H2            -14.5898261199        4.8473090504       76.0549289962  TIP3      8090            0.0000000000
     46523      8283  TIP3      OH2           -10.0244867791        1.3090070312       74.0784754271  TIP3      8091            0.0000000000
     46524      8283  TIP3      H1             -9.2132569756        0.7554477983       74.2177898184  TIP3      8091            0.0000000000
     46525      8283  TIP3      H2             -9.8408092110        1.6451508734       73.1949848479  TIP3      8091            0.0000000000
     46526      8284  TIP3      OH2            -9.8068471053        2.9231284774       76.3259070661  TIP3      8092            0.0000000000
     46527      8284  TIP3      H1             -9.6447461155        2.5544537341       75.4341566330  TIP3      8092            0.0000000000
     46528      8284  TIP3      H2            -10.0926527903        3.8397809076       76.1573486908  TIP3      8092            0.0000000000
     46529      8285  TIP3      OH2           -10.0544593369       19.9566364708       59.4528549845  TIP3      8093            0.0000000000
     46530      8285  TIP3      H1             -9.0876192944       20.0406466454       59.5199186584  TIP3      8093            0.0000000000
     46531      8285  TIP3      H2            -10.2016497880       20.5574155677       58.7127478797  TIP3      8093            0.0000000000
     46532      8286  TIP3      OH2           -16.5021685978       14.5277284330       58.9210001939  TIP3      8094            0.0000000000
     46533      8286  TIP3      H1            -15.5350717962       14.6224600594       59.1010688813  TIP3      8094            0.0000000000
     46534      8286  TIP3      H2            -16.4515408987       13.8845969187       58.1742434230  TIP3      8094            0.0000000000
     46535      8287  TIP3      OH2           -17.7187774608       19.9130695332       63.8848634221  TIP3      8095            0.0000000000
     46536      8287  TIP3      H1            -18.4396269836       19.4278008136       63.4266781679  TIP3      8095            0.0000000000
     46537      8287  TIP3      H2            -17.4391541257       19.2600844920       64.5518441791  TIP3      8095            0.0000000000
     46538      8288  TIP3      OH2           -16.8972892633       18.0504108992       65.7621231130  TIP3      8096            0.0000000000
     46539      8288  TIP3      H1            -17.2486404279       17.1712668712       65.9613389816  TIP3      8096            0.0000000000
     46540      8288  TIP3      H2            -16.6706247881       18.3799379204       66.6478329236  TIP3      8096            0.0000000000
     46541      8289  TIP3      OH2             0.6426709484       18.8469832530       68.6912721397  TIP3      8097            0.0000000000
     46542      8289  TIP3      H1              0.6735159064       19.0057452152       69.6509576455  TIP3      8097            0.0000000000
     46543      8289  TIP3      H2              1.3469054763       19.4293746200       68.3889316414  TIP3      8097            0.0000000000
     46544      8290  TIP3      OH2             0.2191326247       18.4306829887       71.6270438232  TIP3      8098            0.0000000000
     46545      8290  TIP3      H1             -0.2581724165       17.6614756595       71.2542465239  TIP3      8098            0.0000000000
     46546      8290  TIP3      H2              0.7011051348       17.9903294139       72.3472674173  TIP3      8098            0.0000000000
     46547      8291  TIP3      OH2            -1.3303986548       14.1485502362       76.3190395765  TIP3      8099            0.0000000000
     46548      8291  TIP3      H1             -2.2390841697       14.1354412094       76.6815208267  TIP3      8099            0.0000000000
     46549      8291  TIP3      H2             -0.9710139795       14.9505632784       76.7520984556  TIP3      8099            0.0000000000
     46550      8292  TIP3      OH2            -0.0230726568       12.5006983127       61.7296327377  TIP3      8100            0.0000000000
     46551      8292  TIP3      H1              0.8440392181       12.8880373867       61.9228403415  TIP3      8100            0.0000000000
     46552      8292  TIP3      H2             -0.0357714414       11.7810955340       62.3939866989  TIP3      8100            0.0000000000
     46553      8293  TIP3      OH2             0.3341380397       10.5797400138       63.6268889797  TIP3      8101            0.0000000000
     46554      8293  TIP3      H1             -0.4081002648       10.0628074917       63.9930457221  TIP3      8101            0.0000000000
     46555      8293  TIP3      H2              0.9512469965       10.7073950856       64.3751681681  TIP3      8101            0.0000000000
     46556      8294  TIP3      OH2             0.0895695239       13.2522597654       68.6001954970  TIP3      8102            0.0000000000
     46557      8294  TIP3      H1              0.9266089635       12.9097771136       68.2416170963  TIP3      8102            0.0000000000
     46558      8294  TIP3      H2              0.2235590832       14.2103062832       68.4412600690  TIP3      8102            0.0000000000
     46559      8295  TIP3      OH2            -1.3470336982       16.1719898379       70.8799534865  TIP3      8103            0.0000000000
     46560      8295  TIP3      H1             -2.0383181732       16.5116043675       71.4694643483  TIP3      8103            0.0000000000
     46561      8295  TIP3      H2             -1.8947097521       15.7725186600       70.1727024403  TIP3      8103            0.0000000000
     46562      8296  TIP3      OH2             0.6355975842       10.3909846668       60.0198078610  TIP3      8104            0.0000000000
     46563      8296  TIP3      H1              0.0702995006       10.7332686176       59.2951134226  TIP3      8104            0.0000000000
     46564      8296  TIP3      H2              0.5376814611       11.1051460647       60.6771233239  TIP3      8104            0.0000000000
     46565      8297  TIP3      OH2            -0.9866470978        7.6193284264       58.5361862951  TIP3      8105            0.0000000000
     46566      8297  TIP3      H1             -0.9115350367        8.2845432699       57.8415698412  TIP3      8105            0.0000000000
     46567      8297  TIP3      H2             -1.1733333708        6.7983731402       58.0406396309  TIP3      8105            0.0000000000
     46568      8298  TIP3      OH2            -1.7394045734        8.9926708328       64.2915687215  TIP3      8106            0.0000000000
     46569      8298  TIP3      H1             -2.0413775861        8.0861368027       64.0703961754  TIP3      8106            0.0000000000
     46570      8298  TIP3      H2             -2.3601210236        9.3531292259       64.9235020632  TIP3      8106            0.0000000000
     46571      8299  TIP3      OH2           -16.8373400933       11.1289855877       68.2575824456  TIP3      8107            0.0000000000
     46572      8299  TIP3      H1            -16.6603736515       11.0454471803       67.2944040741  TIP3      8107            0.0000000000
     46573      8299  TIP3      H2            -15.9440353133       10.9496390760       68.6096821563  TIP3      8107            0.0000000000
     46574      8300  TIP3      OH2            -0.9819345957       11.0098851588       73.9053736016  TIP3      8108            0.0000000000
     46575      8300  TIP3      H1             -0.3700329385       10.2499794456       74.0134771761  TIP3      8108            0.0000000000
     46576      8300  TIP3      H2             -0.3768709013       11.7809619745       73.8824174085  TIP3      8108            0.0000000000
     46577      8301  TIP3      OH2             0.4999550967        8.8897148984       74.5504747888  TIP3      8109            0.0000000000
     46578      8301  TIP3      H1             -0.3731589566        8.4753662652       74.3714301628  TIP3      8109            0.0000000000
     46579      8301  TIP3      H2              1.0856042238        8.1181685560       74.4672655402  TIP3      8109            0.0000000000
     46580      8302  TIP3      OH2            -1.7419325044        5.0963608051       57.6685212919  TIP3      8110            0.0000000000
     46581      8302  TIP3      H1             -1.1520001265        4.6548878932       58.3098855154  TIP3      8110            0.0000000000
     46582      8302  TIP3      H2             -2.6049119581        4.6770005262       57.8194150967  TIP3      8110            0.0000000000
     46583      8303  TIP3      OH2            -2.1815579266        6.6468931337       62.6649801706  TIP3      8111            0.0000000000
     46584      8303  TIP3      H1             -1.8909246757        5.7035319707       62.7517797322  TIP3      8111            0.0000000000
     46585      8303  TIP3      H2             -1.3808684364        7.0186331079       62.2657718847  TIP3      8111            0.0000000000
     46586      8304  TIP3      OH2            -1.5357202349        7.1962093372       68.1402714475  TIP3      8112            0.0000000000
     46587      8304  TIP3      H1             -0.5469668684        7.2956990857       68.1922314206  TIP3      8112            0.0000000000
     46588      8304  TIP3      H2             -1.7301031002        7.2541937849       69.0996379749  TIP3      8112            0.0000000000
     46589      8305  TIP3      OH2            -1.4871613470        7.8942743754       70.8194559939  TIP3      8113            0.0000000000
     46590      8305  TIP3      H1             -2.3465331379        8.1720195436       71.2139408306  TIP3      8113            0.0000000000
     46591      8305  TIP3      H2             -1.0305271975        8.7623545605       70.6902774668  TIP3      8113            0.0000000000
     46592      8306  TIP3      OH2           -17.3578442894        6.5050639588       74.1529154312  TIP3      8114            0.0000000000
     46593      8306  TIP3      H1            -16.4102723307        6.3402709878       74.0775701652  TIP3      8114            0.0000000000
     46594      8306  TIP3      H2            -17.8126964946        5.6615832256       74.4050818182  TIP3      8114            0.0000000000
     46595      8307  TIP3      OH2             0.7940336346        1.9617295243       76.2201118257  TIP3      8115            0.0000000000
     46596      8307  TIP3      H1              1.1439626028        1.2888680673       75.6121016434  TIP3      8115            0.0000000000
     46597      8307  TIP3      H2              0.9134801766        2.7730870068       75.6974152983  TIP3      8115            0.0000000000
     46598      8308  TIP3      OH2            -1.5056718703        3.9142560615       62.6990760044  TIP3      8116            0.0000000000
     46599      8308  TIP3      H1             -1.2882657310        3.4770675271       63.5516008223  TIP3      8116            0.0000000000
     46600      8308  TIP3      H2             -2.1026930588        3.2710309817       62.2630916379  TIP3      8116            0.0000000000
     46601      8309  TIP3      OH2           -16.0144432832        4.7166457512       67.2561818180  TIP3      8117            0.0000000000
     46602      8309  TIP3      H1            -15.5578636929        3.8904647235       67.5175762800  TIP3      8117            0.0000000000
     46603      8309  TIP3      H2            -15.4677712356        5.4107037547       67.6471743605  TIP3      8117            0.0000000000
     46604      8310  TIP3      OH2           -17.7491425533        7.7288548540       68.2782005313  TIP3      8118            0.0000000000
     46605      8310  TIP3      H1            -17.1702983584        7.4744762953       67.5290273998  TIP3      8118            0.0000000000
     46606      8310  TIP3      H2            -17.2727883462        8.5182519474       68.5733325234  TIP3      8118            0.0000000000
     46607      8311  TIP3      OH2             0.3261513077        4.0531005892       74.5669986400  TIP3      8119            0.0000000000
     46608      8311  TIP3      H1             -0.6091623117        4.3209984877       74.5114275142  TIP3      8119            0.0000000000
     46609      8311  TIP3      H2              0.3541789735        3.4961572045       73.7754325988  TIP3      8119            0.0000000000
     46610      8312  TIP3      OH2             0.3116832196        3.9467642737       59.2570838289  TIP3      8120            0.0000000000
     46611      8312  TIP3      H1              0.7238086672        3.2341313123       58.7180408260  TIP3      8120            0.0000000000
     46612      8312  TIP3      H2              1.0194772424        4.6074126863       59.3044077760  TIP3      8120            0.0000000000
     46613      8313  TIP3      OH2           -17.3682814220        3.9966957230       62.3809266619  TIP3      8121            0.0000000000
     46614      8313  TIP3      H1            -18.3112182028        4.1542107957       62.2142056935  TIP3      8121            0.0000000000
     46615      8313  TIP3      H2            -16.9517454314        4.4712333116       61.6431764004  TIP3      8121            0.0000000000
     46616      8314  TIP3      OH2            -2.6359100077       18.9310528088       64.3225748382  TIP3      8122            0.0000000000
     46617      8314  TIP3      H1             -1.9514802019       18.6276581465       63.6988281887  TIP3      8122            0.0000000000
     46618      8314  TIP3      H2             -2.1192837941       19.4282303672       64.9735315730  TIP3      8122            0.0000000000
     46619      8315  TIP3      OH2           -17.3742826848        2.6250382097       70.6778034156  TIP3      8123            0.0000000000
     46620      8315  TIP3      H1            -18.0637339451        2.4107870413       71.3297952974  TIP3      8123            0.0000000000
     46621      8315  TIP3      H2            -17.8263918677        3.2951620858       70.1277474777  TIP3      8123            0.0000000000
     46622      8316  TIP3      OH2           -15.1947427787       15.7863081999       74.8339805632  TIP3      8124            0.0000000000
     46623      8316  TIP3      H1            -16.0287415806       16.0444189336       74.4058417871  TIP3      8124            0.0000000000
     46624      8316  TIP3      H2            -15.4587786474       15.7741182795       75.7567545824  TIP3      8124            0.0000000000
     46625      8317  TIP3      OH2           -12.2826550110       16.8354856106       71.1029361567  TIP3      8125            0.0000000000
     46626      8317  TIP3      H1            -12.6142831604       17.7049457487       70.8356762555  TIP3      8125            0.0000000000
     46627      8317  TIP3      H2            -11.3567914932       16.9228848810       70.8003161677  TIP3      8125            0.0000000000
     46628      8318  TIP3      OH2            -7.9662928195       18.2541493307       74.0123642277  TIP3      8126            0.0000000000
     46629      8318  TIP3      H1             -7.8322083419       17.9133393251       74.9287318493  TIP3      8126            0.0000000000
     46630      8318  TIP3      H2             -7.0645183299       18.5621001735       73.7834241338  TIP3      8126            0.0000000000
     46631      8319  TIP3      OH2            -5.6779062354       19.5291754702       73.3206702262  TIP3      8127            0.0000000000
     46632      8319  TIP3      H1             -4.9462922829       18.9439451372       73.0827116200  TIP3      8127            0.0000000000
     46633      8319  TIP3      H2             -5.3019250657       19.9674368933       74.1146006672  TIP3      8127            0.0000000000
     46634      8320  TIP3      OH2            -0.6739204117        2.1612614818       72.4368603454  TIP3      8128            0.0000000000
     46635      8320  TIP3      H1             -1.5020001679        2.4478320859       72.0189450883  TIP3      8128            0.0000000000
     46636      8320  TIP3      H2             -0.5021167748        1.3333045958       71.9252720153  TIP3      8128            0.0000000000
     46637      8321  TIP3      OH2           -14.8614722078       20.0726335071       71.0977919715  TIP3      8129            0.0000000000
     46638      8321  TIP3      H1            -15.5909559253       20.5743487113       70.7036744794  TIP3      8129            0.0000000000
     46639      8321  TIP3      H2            -15.1706904870       19.8836619648       71.9953247171  TIP3      8129            0.0000000000
     46640      8322  TIP3      OH2           -12.3923415203       19.6507260896       70.1727625566  TIP3      8130            0.0000000000
     46641      8322  TIP3      H1            -13.2838419160       19.8051045384       70.5659366617  TIP3      8130            0.0000000000
     46642      8322  TIP3      H2            -12.4459716025       20.2412915272       69.3986017585  TIP3      8130            0.0000000000
     46643      8323  TIP3      OH2            -7.6834589238       19.5666266707       69.3410036873  TIP3      8131            0.0000000000
     46644      8323  TIP3      H1             -8.1477664996       20.1219294040       68.6956069453  TIP3      8131            0.0000000000
     46645      8323  TIP3      H2             -7.5522675351       20.1991505978       70.0816645488  TIP3      8131            0.0000000000
     46646      8324  TIP3      OH2            -5.4001767658       18.3689807097       70.3748810366  TIP3      8132            0.0000000000
     46647      8324  TIP3      H1             -6.2513205360       18.6504071210       70.0023644511  TIP3      8132            0.0000000000
     46648      8324  TIP3      H2             -4.9115905647       19.2030753828       70.2797393987  TIP3      8132            0.0000000000
     46649      8325  TIP3      OH2            -2.8151793961       19.9414785480       70.5922658773  TIP3      8133            0.0000000000
     46650      8325  TIP3      H1             -2.8679998638       20.9026063426       70.3647144229  TIP3      8133            0.0000000000
     46651      8325  TIP3      H2             -2.5961508953       19.5683626364       69.7162165778  TIP3      8133            0.0000000000
     46652      8326  TIP3      OH2           -15.3989462355       18.7234085616       68.0424207215  TIP3      8134            0.0000000000
     46653      8326  TIP3      H1            -15.4809839545       18.2634797062       68.9045867604  TIP3      8134            0.0000000000
     46654      8326  TIP3      H2            -14.5849119589       18.3433971479       67.6544460168  TIP3      8134            0.0000000000
     46655      8327  TIP3      OH2           -13.3242110081       17.4345144767       66.6959585281  TIP3      8135            0.0000000000
     46656      8327  TIP3      H1            -13.4889255390       16.5011391999       66.9298102224  TIP3      8135            0.0000000000
     46657      8327  TIP3      H2            -12.4689869141       17.5898252196       67.1491722432  TIP3      8135            0.0000000000
     46658      8328  TIP3      OH2           -10.7175096325       17.9196799474       67.5731374525  TIP3      8136            0.0000000000
     46659      8328  TIP3      H1            -10.5662139531       16.9948904902       67.3115953171  TIP3      8136            0.0000000000
     46660      8328  TIP3      H2            -10.6761935035       17.8630114507       68.5398289817  TIP3      8136            0.0000000000
     46661      8329  TIP3      OH2            -7.2672879698        3.5683045572       66.7127573159  TIP3      8137            0.0000000000
     46662      8329  TIP3      H1             -7.9440044695        2.9288737508       66.9926798154  TIP3      8137            0.0000000000
     46663      8329  TIP3      H2             -6.7157784941        3.0372757112       66.1259095036  TIP3      8137            0.0000000000
     46664      8330  TIP3      OH2            -2.1301172210        1.6098852691       66.7764228709  TIP3      8138            0.0000000000
     46665      8330  TIP3      H1             -1.5142085457        2.2011575946       66.2733970592  TIP3      8138            0.0000000000
     46666      8330  TIP3      H2             -3.0110720603        1.9748961753       66.5460445797  TIP3      8138            0.0000000000
     46667      8331  TIP3      OH2            -0.4599248572        2.8613391388       65.0455794580  TIP3      8139            0.0000000000
     46668      8331  TIP3      H1              0.2279312760        2.2858975440       64.6330914640  TIP3      8139            0.0000000000
     46669      8331  TIP3      H2              0.0474444949        3.6968615357       65.1561167894  TIP3      8139            0.0000000000
     46670      8332  TIP3      OH2           -14.8926825012        2.1940813096       64.5637569741  TIP3      8140            0.0000000000
     46671      8332  TIP3      H1            -15.6883443502        1.9987400804       64.0315282271  TIP3      8140            0.0000000000
     46672      8332  TIP3      H2            -14.4337383599        1.3322055477       64.5174408475  TIP3      8140            0.0000000000
     46673      8333  TIP3      OH2           -16.1313255949        1.9475770981       60.2814238364  TIP3      8141            0.0000000000
     46674      8333  TIP3      H1            -15.6375813055        2.5970627652       59.7467717858  TIP3      8141            0.0000000000
     46675      8333  TIP3      H2            -16.6978099354        2.5241761558       60.8197783801  TIP3      8141            0.0000000000
     46676      8334  TIP3      OH2           -10.4265402662        2.1213543524       64.3461302051  TIP3      8142            0.0000000000
     46677      8334  TIP3      H1             -9.5254163542        2.4782669407       64.2671046880  TIP3      8142            0.0000000000
     46678      8334  TIP3      H2            -10.4589032939        1.9047098246       65.2760150115  TIP3      8142            0.0000000000
     46679      8335  TIP3      OH2            -4.7083493195        2.1363329463       65.9681040590  TIP3      8143            0.0000000000
     46680      8335  TIP3      H1             -4.7636014198        2.2504951804       65.0105525207  TIP3      8143            0.0000000000
     46681      8335  TIP3      H2             -5.0903432081        1.2332350829       66.0967648769  TIP3      8143            0.0000000000
     46682      8336  TIP3      OH2            -3.4448174535        2.1689226881       61.6545415924  TIP3      8144            0.0000000000
     46683      8336  TIP3      H1             -4.1942262671        2.7616701455       61.4949110540  TIP3      8144            0.0000000000
     46684      8336  TIP3      H2             -3.8841010081        1.3161058529       61.8874783129  TIP3      8144            0.0000000000
     46685      8337  TIP3      OH2           -16.2152690347       17.8959009777       61.3108637778  TIP3      8145            0.0000000000
     46686      8337  TIP3      H1            -16.8720351144       17.8819549409       60.5905649674  TIP3      8145            0.0000000000
     46687      8337  TIP3      H2            -16.2178392245       18.8510541478       61.4820445015  TIP3      8145            0.0000000000
     46688      8338  TIP3      OH2           -14.3010829619        3.8914730583       58.7924793597  TIP3      8146            0.0000000000
     46689      8338  TIP3      H1            -13.7691424069        3.2738495776       58.2641406062  TIP3      8146            0.0000000000
     46690      8338  TIP3      H2            -13.6350752013        4.2135688300       59.4273894047  TIP3      8146            0.0000000000
     46691      8339  TIP3      OH2            -9.2747615600        4.1341550953       61.1950014095  TIP3      8147            0.0000000000
     46692      8339  TIP3      H1             -9.0239946541        3.5568408739       61.9347675469  TIP3      8147            0.0000000000
     46693      8339  TIP3      H2             -9.2038464828        5.0003052587       61.6534143264  TIP3      8147            0.0000000000
     46694      8340  TIP3      OH2            -7.3403152759       19.2086048873       59.6432972489  TIP3      8148            0.0000000000
     46695      8340  TIP3      H1             -6.4229899033       19.4346482363       59.4213938281  TIP3      8148            0.0000000000
     46696      8340  TIP3      H2             -7.5610765296       18.6881405244       58.8424172430  TIP3      8148            0.0000000000
     46697      8341  TIP3      OH2            -0.6482965137       18.7083720032       62.3639784838  TIP3      8149            0.0000000000
     46698      8341  TIP3      H1             -0.8366115567       17.9258979151       61.7917354406  TIP3      8149            0.0000000000
     46699      8341  TIP3      H2             -0.7130787117       19.4432403341       61.7200238458  TIP3      8149            0.0000000000
     46700      8342  TIP3      OH2           -15.0189203324        2.7349112179       74.0020316137  TIP3      8150            0.0000000000
     46701      8342  TIP3      H1            -15.4086093190        1.9301696511       74.4031439107  TIP3      8150            0.0000000000
     46702      8342  TIP3      H2            -14.1153010796        2.6790930754       74.3990897637  TIP3      8150            0.0000000000
     46703      8343  TIP3      OH2           -12.9959961083        2.0914988003       75.5531889030  TIP3      8151            0.0000000000
     46704      8343  TIP3      H1            -12.0744192588        1.7665861666       75.4763926201  TIP3      8151            0.0000000000
     46705      8343  TIP3      H2            -13.3939591741        1.3545946083       76.0796086023  TIP3      8151            0.0000000000
     46706      8344  TIP3      OH2           -14.4214886146       18.8837455218       58.2510075797  TIP3      8152            0.0000000000
     46707      8344  TIP3      H1            -14.6804543549       19.1419653459       59.1473901517  TIP3      8152            0.0000000000
     46708      8344  TIP3      H2            -13.6380017088       18.3204015713       58.4060713473  TIP3      8152            0.0000000000
     46709      8345  TIP3      OH2            -4.4471532540        1.0424244506       75.6857595435  TIP3      8153            0.0000000000
     46710      8345  TIP3      H1             -4.4696745145        0.9733692834       76.6593077493  TIP3      8153            0.0000000000
     46711      8345  TIP3      H2             -3.5645407120        1.3771122694       75.4826451229  TIP3      8153            0.0000000000
     46712      8346  TIP3      OH2            -1.4030260036       17.4541564256       74.4618598659  TIP3      8154            0.0000000000
     46713      8346  TIP3      H1             -2.1943972950       17.3191819256       73.8958512385  TIP3      8154            0.0000000000
     46714      8346  TIP3      H2             -1.5122093951       18.4047686466       74.6628235615  TIP3      8154            0.0000000000
     46715      8347  TIP3      OH2            13.0465167978       11.3627789067       64.3703670303  TIP3      8155            0.0000000000
     46716      8347  TIP3      H1             12.7784474722       12.2921524854       64.3528299025  TIP3      8155            0.0000000000
     46717      8347  TIP3      H2             12.3116439883       11.0118201752       63.8271898594  TIP3      8155            0.0000000000
     46718      8348  TIP3      OH2            11.9054214829       10.5864923982       67.9103793427  TIP3      8156            0.0000000000
     46719      8348  TIP3      H1             11.8844926562        9.9477209094       68.6377230903  TIP3      8156            0.0000000000
     46720      8348  TIP3      H2             11.5341547253       10.0648016320       67.1773464227  TIP3      8156            0.0000000000
     46721      8349  TIP3      OH2             4.2528546769       10.2691705481       69.4710001059  TIP3      8157            0.0000000000
     46722      8349  TIP3      H1              4.3376479630        9.5805496453       70.1634576310  TIP3      8157            0.0000000000
     46723      8349  TIP3      H2              5.0045542096       10.8369876655       69.6926380167  TIP3      8157            0.0000000000
     46724      8350  TIP3      OH2            15.5717182655       13.5292361923       66.2662237254  TIP3      8158            0.0000000000
     46725      8350  TIP3      H1             15.2644507424       12.8080721641       66.8375204692  TIP3      8158            0.0000000000
     46726      8350  TIP3      H2             15.6683269346       14.2581672029       66.9191585330  TIP3      8158            0.0000000000
     46727      8351  TIP3      OH2             5.1806593137       14.7159412993       67.9700649592  TIP3      8159            0.0000000000
     46728      8351  TIP3      H1              4.8728196554       13.8455688829       67.6545952650  TIP3      8159            0.0000000000
     46729      8351  TIP3      H2              6.1361985969       14.5328672781       68.0158529056  TIP3      8159            0.0000000000
     46730      8352  TIP3      OH2             1.7921706173        8.2585283018       63.4955166310  TIP3      8160            0.0000000000
     46731      8352  TIP3      H1              1.4331256824        9.1540437408       63.3640261843  TIP3      8160            0.0000000000
     46732      8352  TIP3      H2              1.2664813580        7.7325174141       62.8757338962  TIP3      8160            0.0000000000
     46733      8353  TIP3      OH2             2.5158192163       10.4837260293       65.5963539028  TIP3      8161            0.0000000000
     46734      8353  TIP3      H1              2.8231602734        9.6784057517       66.0578307918  TIP3      8161            0.0000000000
     46735      8353  TIP3      H2              3.2270035087       10.6159543506       64.9466494638  TIP3      8161            0.0000000000
     46736      8354  TIP3      OH2            12.7004635158       18.6990446488       66.4382661463  TIP3      8162            0.0000000000
     46737      8354  TIP3      H1             13.3419930699       18.0055756634       66.1540979549  TIP3      8162            0.0000000000
     46738      8354  TIP3      H2             12.4897034244       18.3587764930       67.3078113754  TIP3      8162            0.0000000000
     46739      8355  TIP3      OH2            10.2911663744       13.0079017620       68.3670613621  TIP3      8163            0.0000000000
     46740      8355  TIP3      H1             10.6071224075       12.3410655204       67.7444053744  TIP3      8163            0.0000000000
     46741      8355  TIP3      H2             11.0797014563       13.1415258738       68.9204195998  TIP3      8163            0.0000000000
     46742      8356  TIP3      OH2            18.8948000413        4.6359157447       69.1037813818  TIP3      8164            0.0000000000
     46743      8356  TIP3      H1             19.0473963625        5.2308800405       69.8725399322  TIP3      8164            0.0000000000
     46744      8356  TIP3      H2             19.4376227532        5.0912051633       68.4424860639  TIP3      8164            0.0000000000
     46745      8357  TIP3      OH2            13.4450513121        7.4585107264       68.7041709697  TIP3      8165            0.0000000000
     46746      8357  TIP3      H1             13.6096470010        6.4988623840       68.7075727873  TIP3      8165            0.0000000000
     46747      8357  TIP3      H2             13.3418567423        7.6007620715       67.7430849816  TIP3      8165            0.0000000000
     46748      8358  TIP3      OH2             6.5560443766        5.5478653725       65.9171138784  TIP3      8166            0.0000000000
     46749      8358  TIP3      H1              6.6654008563        6.3815239464       65.4234937905  TIP3      8166            0.0000000000
     46750      8358  TIP3      H2              6.1596282477        4.9731591162       65.2272919602  TIP3      8166            0.0000000000
     46751      8359  TIP3      OH2            14.2994427957        5.6249647067       64.2838900853  TIP3      8167            0.0000000000
     46752      8359  TIP3      H1             14.9372620485        5.3061566305       64.9638679473  TIP3      8167            0.0000000000
     46753      8359  TIP3      H2             14.8766363181        6.2076301806       63.7655678000  TIP3      8167            0.0000000000
     46754      8360  TIP3      OH2             3.1692869230        7.9394715044       66.6523799375  TIP3      8168            0.0000000000
     46755      8360  TIP3      H1              3.8630007945        7.4204859125       67.1052395837  TIP3      8168            0.0000000000
     46756      8360  TIP3      H2              3.3097193198        7.6432086292       65.7382352637  TIP3      8168            0.0000000000
     46757      8361  TIP3      OH2             8.3380102240        9.5138969893       65.9739167139  TIP3      8169            0.0000000000
     46758      8361  TIP3      H1              9.0116292447        8.9322444324       66.3658175014  TIP3      8169            0.0000000000
     46759      8361  TIP3      H2              7.8221481054        8.8568805032       65.4658685799  TIP3      8169            0.0000000000
     46760      8362  TIP3      OH2            19.3119228496        6.0516466183       71.3922687026  TIP3      8170            0.0000000000
     46761      8362  TIP3      H1             18.7101378759        6.8225542454       71.2840074572  TIP3      8170            0.0000000000
     46762      8362  TIP3      H2             19.3497568045        5.9724689277       72.3530828031  TIP3      8170            0.0000000000
     46763      8363  TIP3      OH2             5.4693711736        4.4582881571       69.9566020697  TIP3      8171            0.0000000000
     46764      8363  TIP3      H1              5.1814197805        5.0226280149       69.2099210512  TIP3      8171            0.0000000000
     46765      8363  TIP3      H2              4.7896670048        4.6757550949       70.6398628857  TIP3      8171            0.0000000000
     46766      8364  TIP3      OH2            12.6514566566       13.9527920821       63.4595434934  TIP3      8172            0.0000000000
     46767      8364  TIP3      H1             12.3985072928       13.6826824868       62.5529483846  TIP3      8172            0.0000000000
     46768      8364  TIP3      H2             12.3750791292       14.9106652746       63.4810301492  TIP3      8172            0.0000000000
     46769      8365  TIP3      OH2             7.9813783634       12.0888105993       70.1965809844  TIP3      8173            0.0000000000
     46770      8365  TIP3      H1              7.2740444778       12.7322972413       70.4175557775  TIP3      8173            0.0000000000
     46771      8365  TIP3      H2              8.6843930999       12.6897224246       69.9053521242  TIP3      8173            0.0000000000
     46772      8366  TIP3      OH2            16.0963030116        4.9755472094       66.2871709702  TIP3      8174            0.0000000000
     46773      8366  TIP3      H1             15.8838788930        4.2026912929       66.8164902617  TIP3      8174            0.0000000000
     46774      8366  TIP3      H2             16.7772304014        5.4057535204       66.8327641539  TIP3      8174            0.0000000000
     46775      8367  TIP3      OH2             5.0350572186        6.3082854865       67.9891511612  TIP3      8175            0.0000000000
     46776      8367  TIP3      H1              5.6671270930        6.9907064172       68.3044765890  TIP3      8175            0.0000000000
     46777      8367  TIP3      H2              5.5528585380        5.8928129189       67.2541681842  TIP3      8175            0.0000000000
     46778      8368  TIP3      OH2             6.4168007566       14.0813311130       71.0065564786  TIP3      8176            0.0000000000
     46779      8368  TIP3      H1              6.3803766044       15.0001028089       70.6772331887  TIP3      8176            0.0000000000
     46780      8368  TIP3      H2              5.5394465758       14.0128955609       71.4602012720  TIP3      8176            0.0000000000
     46781      8369  TIP3      OH2             2.5084433601       13.7025332694       61.8086903624  TIP3      8177            0.0000000000
     46782      8369  TIP3      H1              2.2577591836       14.0428402761       60.9321139237  TIP3      8177            0.0000000000
     46783      8369  TIP3      H2              2.5874162731       14.5301945058       62.3241401605  TIP3      8177            0.0000000000
     46784      8370  TIP3      OH2            16.0955369230       15.3698372817       68.4977689709  TIP3      8178            0.0000000000
     46785      8370  TIP3      H1             15.1447372075       15.4910554200       68.7184580629  TIP3      8178            0.0000000000
     46786      8370  TIP3      H2             16.3768305083       16.2988413120       68.3935061787  TIP3      8178            0.0000000000
     46787      8371  TIP3      OH2            16.4401341224        3.6593980013       69.9552524295  TIP3      8179            0.0000000000
     46788      8371  TIP3      H1             15.7143485951        4.2929720598       69.8664402462  TIP3      8179            0.0000000000
     46789      8371  TIP3      H2             17.1541180602        4.0780336992       69.4328027670  TIP3      8179            0.0000000000
     46790      8372  TIP3      OH2             9.4083428717        1.7957144048       67.3982383476  TIP3      8180            0.0000000000
     46791      8372  TIP3      H1              9.2727171386        0.8291359815       67.3457204403  TIP3      8180            0.0000000000
     46792      8372  TIP3      H2              8.5343727034        2.0921167227       67.7267211944  TIP3      8180            0.0000000000
     46793      8373  TIP3      OH2            14.4057424686       17.1502820743       65.1822567923  TIP3      8181            0.0000000000
     46794      8373  TIP3      H1             14.8032839657       16.4562720195       64.6202102227  TIP3      8181            0.0000000000
     46795      8373  TIP3      H2             14.7721678256       17.9561530239       64.7646763867  TIP3      8181            0.0000000000
     46796      8374  TIP3      OH2            15.5075036227       15.0945138902       63.6858520793  TIP3      8182            0.0000000000
     46797      8374  TIP3      H1             15.3982609156       14.4254272536       62.9816709526  TIP3      8182            0.0000000000
     46798      8374  TIP3      H2             15.7665890336       14.6481067235       64.5063541345  TIP3      8182            0.0000000000
     46799      8375  TIP3      OH2            17.1986300576       13.6712527370       72.1821477448  TIP3      8183            0.0000000000
     46800      8375  TIP3      H1             17.3550532970       13.0341524450       71.4433950045  TIP3      8183            0.0000000000
     46801      8375  TIP3      H2             17.4165999197       14.5120497027       71.7315420133  TIP3      8183            0.0000000000
     46802      8376  TIP3      OH2            11.7187320689       10.6154108234       61.9614115846  TIP3      8184            0.0000000000
     46803      8376  TIP3      H1             10.9936347890       11.1288286494       61.5592019041  TIP3      8184            0.0000000000
     46804      8376  TIP3      H2             12.3929230128       10.6463361946       61.2525675107  TIP3      8184            0.0000000000
     46805      8377  TIP3      OH2            11.7581560324        9.1034376572       58.9729529246  TIP3      8185            0.0000000000
     46806      8377  TIP3      H1             12.5055538725        9.1261775647       59.5882230479  TIP3      8185            0.0000000000
     46807      8377  TIP3      H2             12.0827216485        8.4446502530       58.3429898512  TIP3      8185            0.0000000000
     46808      8378  TIP3      OH2            19.0691892829        9.9908277209       70.2270166763  TIP3      8186            0.0000000000
     46809      8378  TIP3      H1             18.4338555342       10.7288321806       70.2408367113  TIP3      8186            0.0000000000
     46810      8378  TIP3      H2             19.5963364061       10.2317880265       69.4375645283  TIP3      8186            0.0000000000
     46811      8379  TIP3      OH2            15.1979433796       10.8500150270       62.9061061604  TIP3      8187            0.0000000000
     46812      8379  TIP3      H1             14.3645988624       10.9158514275       63.4269811852  TIP3      8187            0.0000000000
     46813      8379  TIP3      H2             15.6431725646       10.0881087177       63.3385786020  TIP3      8187            0.0000000000
     46814      8380  TIP3      OH2            15.0870629080        8.9559500122       71.9587933811  TIP3      8188            0.0000000000
     46815      8380  TIP3      H1             15.0350331753        9.7639047662       72.4773806585  TIP3      8188            0.0000000000
     46816      8380  TIP3      H2             14.4425668418        9.2109738629       71.2635097479  TIP3      8188            0.0000000000
     46817      8381  TIP3      OH2             6.7471267293       11.4333968792       64.7694579371  TIP3      8189            0.0000000000
     46818      8381  TIP3      H1              6.4387565173       11.0458800092       63.9156839488  TIP3      8189            0.0000000000
     46819      8381  TIP3      H2              7.3720508518       10.7510426635       65.1022074667  TIP3      8189            0.0000000000
     46820      8382  TIP3      OH2             8.0783668896       14.8224266863       67.4523203651  TIP3      8190            0.0000000000
     46821      8382  TIP3      H1              8.0749004702       14.3008502910       66.6411280567  TIP3      8190            0.0000000000
     46822      8382  TIP3      H2              8.8654602220       14.4697534822       67.9076174808  TIP3      8190            0.0000000000
     46823      8383  TIP3      OH2             7.0895328774       10.1879108948       68.4333338589  TIP3      8191            0.0000000000
     46824      8383  TIP3      H1              7.6384487258       10.2855303855       67.6304275273  TIP3      8191            0.0000000000
     46825      8383  TIP3      H2              7.4816634214       10.8526246094       69.0419343235  TIP3      8191            0.0000000000
     46826      8384  TIP3      OH2            13.5141199338       15.7435096489       69.1228127137  TIP3      8192            0.0000000000
     46827      8384  TIP3      H1             13.2256271740       16.3943089828       69.7707224620  TIP3      8192            0.0000000000
     46828      8384  TIP3      H2             13.2528082861       14.9071521762       69.5730896814  TIP3      8192            0.0000000000
     46829      8385  TIP3      OH2             8.0447596516       14.6186723790       73.1250397586  TIP3      8193            0.0000000000
     46830      8385  TIP3      H1              7.6298124013       15.3562007897       73.6186328414  TIP3      8193            0.0000000000
     46831      8385  TIP3      H2              7.3705917723       14.4182641632       72.4308926942  TIP3      8193            0.0000000000
     46832      8386  TIP3      OH2            13.9984673679       10.0214454782       60.5226966502  TIP3      8194            0.0000000000
     46833      8386  TIP3      H1             14.5949568306       10.1384321660       61.2940191578  TIP3      8194            0.0000000000
     46834      8386  TIP3      H2             14.4746410822       10.4586323142       59.7737780679  TIP3      8194            0.0000000000
     46835      8387  TIP3      OH2             4.9890102830       10.7827508981       72.2751015268  TIP3      8195            0.0000000000
     46836      8387  TIP3      H1              5.0413622194       11.4446361185       72.9898351615  TIP3      8195            0.0000000000
     46837      8387  TIP3      H2              4.0451613993       10.8674720997       72.0737748764  TIP3      8195            0.0000000000
     46838      8388  TIP3      OH2            11.7645613796       16.6954955914       63.9948248583  TIP3      8196            0.0000000000
     46839      8388  TIP3      H1             12.1569904022       17.0312097802       64.8072479825  TIP3      8196            0.0000000000
     46840      8388  TIP3      H2             11.1808355713       17.4312291723       63.7490423394  TIP3      8196            0.0000000000
     46841      8389  TIP3      OH2             6.2913682199       16.6529666188       73.8736514650  TIP3      8197            0.0000000000
     46842      8389  TIP3      H1              6.2285558277       16.5526160941       72.9088938787  TIP3      8197            0.0000000000
     46843      8389  TIP3      H2              5.3617980202       16.5194829806       74.1432915281  TIP3      8197            0.0000000000
     46844      8390  TIP3      OH2            17.7567914035        1.7094210763       60.4316304714  TIP3      8198            0.0000000000
     46845      8390  TIP3      H1             16.8077418981        1.8245762463       60.6628321948  TIP3      8198            0.0000000000
     46846      8390  TIP3      H2             17.9557212401        2.5486939672       59.9801267295  TIP3      8198            0.0000000000
     46847      8391  TIP3      OH2             5.7346880155       10.4582228405       62.3962624581  TIP3      8199            0.0000000000
     46848      8391  TIP3      H1              5.4470231797       11.2435936439       61.8830080577  TIP3      8199            0.0000000000
     46849      8391  TIP3      H2              5.0826118338        9.7963426194       62.1536415411  TIP3      8199            0.0000000000
     46850      8392  TIP3      OH2            18.8623524401       16.0542888296       58.8019456033  TIP3      8200            0.0000000000
     46851      8392  TIP3      H1             19.0274469409       17.0032718567       58.9421803554  TIP3      8200            0.0000000000
     46852      8392  TIP3      H2             19.7866959599       15.7505695518       58.7710906468  TIP3      8200            0.0000000000
     46853      8393  TIP3      OH2             1.8105516659       12.8887516180       71.2858945050  TIP3      8201            0.0000000000
     46854      8393  TIP3      H1              1.3713020148       12.8107919920       70.4193803291  TIP3      8201            0.0000000000
     46855      8393  TIP3      H2              1.9016366970       11.9411374372       71.4999120010  TIP3      8201            0.0000000000
     46856      8394  TIP3      OH2             1.5804217346       15.6279440646       68.0615341528  TIP3      8202            0.0000000000
     46857      8394  TIP3      H1              2.5387988608       15.5139072158       68.0400611622  TIP3      8202            0.0000000000
     46858      8394  TIP3      H2              1.4984735084       16.4471370888       68.5648165520  TIP3      8202            0.0000000000
     46859      8395  TIP3      OH2            19.8054195425       16.3250554085       73.7197064982  TIP3      8203            0.0000000000
     46860      8395  TIP3      H1             19.6993410609       15.3702927146       73.7283720704  TIP3      8203            0.0000000000
     46861      8395  TIP3      H2             18.9613026804       16.5931380227       74.1577254257  TIP3      8203            0.0000000000
     46862      8396  TIP3      OH2            10.7765339283       15.8742295630       72.6142731846  TIP3      8204            0.0000000000
     46863      8396  TIP3      H1             10.8349153055       16.7099369523       73.1367888913  TIP3      8204            0.0000000000
     46864      8396  TIP3      H2              9.9042964899       15.5134572292       72.8634629359  TIP3      8204            0.0000000000
     46865      8397  TIP3      OH2            11.2171273854       19.6216627779       62.4002048710  TIP3      8205            0.0000000000
     46866      8397  TIP3      H1             11.1099230508       19.5414813517       61.4348420993  TIP3      8205            0.0000000000
     46867      8397  TIP3      H2             11.2230707920       20.5845940215       62.5549460143  TIP3      8205            0.0000000000
     46868      8398  TIP3      OH2             4.8565978467       18.4939582238       64.2262161227  TIP3      8206            0.0000000000
     46869      8398  TIP3      H1              5.0029244590       18.0791793420       65.1030916877  TIP3      8206            0.0000000000
     46870      8398  TIP3      H2              4.0089288434       18.0837847835       63.9865656666  TIP3      8206            0.0000000000
     46871      8399  TIP3      OH2            14.2658017015       18.8281960042       59.3933210396  TIP3      8207            0.0000000000
     46872      8399  TIP3      H1             14.7263985189       18.0763067163       58.9529724496  TIP3      8207            0.0000000000
     46873      8399  TIP3      H2             14.3120659684       18.5640903448       60.3352200731  TIP3      8207            0.0000000000
     46874      8400  TIP3      OH2            13.9674889733       18.7754603227       62.1533719145  TIP3      8208            0.0000000000
     46875      8400  TIP3      H1             13.0092334311       18.8473221927       62.3352072459  TIP3      8208            0.0000000000
     46876      8400  TIP3      H2             14.1920197647       18.0280573839       62.7210319443  TIP3      8208            0.0000000000
     46877      8401  TIP3      OH2            16.9479969594        7.8391220989       74.1868018279  TIP3      8209            0.0000000000
     46878      8401  TIP3      H1             16.4669954781        8.2205893316       73.4426430432  TIP3      8209            0.0000000000
     46879      8401  TIP3      H2             16.9544534618        6.8964752020       73.9300242913  TIP3      8209            0.0000000000
     46880      8402  TIP3      OH2             4.1067154694       14.2077171701       72.2271328108  TIP3      8210            0.0000000000
     46881      8402  TIP3      H1              4.3290733046       13.8424565484       73.1102396409  TIP3      8210            0.0000000000
     46882      8402  TIP3      H2              3.2378438592       13.8108844314       72.0123065051  TIP3      8210            0.0000000000
     46883      8403  TIP3      OH2             6.7869624718        2.7031098912       68.1542512364  TIP3      8211            0.0000000000
     46884      8403  TIP3      H1              5.8832200720        2.5741121598       67.7962927443  TIP3      8211            0.0000000000
     46885      8403  TIP3      H2              6.6471625839        3.5242279508       68.6554882147  TIP3      8211            0.0000000000
     46886      8404  TIP3      OH2            11.4418596604        2.3625953489       71.5366060215  TIP3      8212            0.0000000000
     46887      8404  TIP3      H1             11.8256172519        1.9280976801       72.3208510543  TIP3      8212            0.0000000000
     46888      8404  TIP3      H2             10.4676608645        2.2325739052       71.6714342630  TIP3      8212            0.0000000000
     46889      8405  TIP3      OH2            14.7276210617        6.1995196255       72.4451450447  TIP3      8213            0.0000000000
     46890      8405  TIP3      H1             14.1517945188        5.9842793818       73.2192891365  TIP3      8213            0.0000000000
     46891      8405  TIP3      H2             14.5214766778        7.1149483770       72.1974906479  TIP3      8213            0.0000000000
     46892      8406  TIP3      OH2            15.5020943986       10.9935400681       58.3799738300  TIP3      8214            0.0000000000
     46893      8406  TIP3      H1             15.4352033751       10.8390048438       57.3949952621  TIP3      8214            0.0000000000
     46894      8406  TIP3      H2             16.3450329729       11.4624423263       58.3952988450  TIP3      8214            0.0000000000
     46895      8407  TIP3      OH2            11.0732102072        4.9367329091       58.8446009793  TIP3      8215            0.0000000000
     46896      8407  TIP3      H1             10.7561608596        4.8745796536       59.7637298076  TIP3      8215            0.0000000000
     46897      8407  TIP3      H2             10.7635087254        4.0615870460       58.5353565973  TIP3      8215            0.0000000000
     46898      8408  TIP3      OH2             6.8975435394        7.6627301878       69.4384778234  TIP3      8216            0.0000000000
     46899      8408  TIP3      H1              6.1514345816        7.6476839007       70.0661964332  TIP3      8216            0.0000000000
     46900      8408  TIP3      H2              6.8423578116        8.5656261493       69.0553946028  TIP3      8216            0.0000000000
     46901      8409  TIP3      OH2             6.8532267542        7.7725675956       64.2912901774  TIP3      8217            0.0000000000
     46902      8409  TIP3      H1              5.9146620592        7.5213610124       64.1585277002  TIP3      8217            0.0000000000
     46903      8409  TIP3      H2              7.2299766230        7.4826850025       63.4367456725  TIP3      8217            0.0000000000
     46904      8410  TIP3      OH2            12.3918131121        8.3110504874       63.0882342141  TIP3      8218            0.0000000000
     46905      8410  TIP3      H1             11.9662968343        9.0943227874       62.6832587712  TIP3      8218            0.0000000000
     46906      8410  TIP3      H2             13.0423840944        8.0867225309       62.3984084628  TIP3      8218            0.0000000000
     46907      8411  TIP3      OH2            11.4038089857        8.4913379399       74.4966198871  TIP3      8219            0.0000000000
     46908      8411  TIP3      H1             10.8941708804        7.7027510201       74.7999700375  TIP3      8219            0.0000000000
     46909      8411  TIP3      H2             12.2505296982        8.3574376382       74.9529102358  TIP3      8219            0.0000000000
     46910      8412  TIP3      OH2            13.4182187981        7.7881265697       65.8999652739  TIP3      8220            0.0000000000
     46911      8412  TIP3      H1             13.1089404605        8.3186988730       65.1518304578  TIP3      8220            0.0000000000
     46912      8412  TIP3      H2             13.4962784537        6.9240150107       65.4515659327  TIP3      8220            0.0000000000
     46913      8413  TIP3      OH2             4.5010514897        7.9075729071       71.1051085868  TIP3      8221            0.0000000000
     46914      8413  TIP3      H1              4.5942601604        8.3130001436       71.9845660885  TIP3      8221            0.0000000000
     46915      8413  TIP3      H2              4.0696373947        7.0654789920       71.3207863333  TIP3      8221            0.0000000000
     46916      8414  TIP3      OH2             7.8825317839        5.3031045884       57.9646417568  TIP3      8222            0.0000000000
     46917      8414  TIP3      H1              7.4277334440        4.8826193578       58.7231614699  TIP3      8222            0.0000000000
     46918      8414  TIP3      H2              7.1728641115        5.7344103726       57.4711058998  TIP3      8222            0.0000000000
     46919      8415  TIP3      OH2             1.1633752759        5.0393384944       65.0960595649  TIP3      8223            0.0000000000
     46920      8415  TIP3      H1              1.8482816676        4.9746608695       65.7954830616  TIP3      8223            0.0000000000
     46921      8415  TIP3      H2              1.6079042091        4.6406791296       64.3210251347  TIP3      8223            0.0000000000
     46922      8416  TIP3      OH2             2.4314908330        5.7344608789       60.4424353457  TIP3      8224            0.0000000000
     46923      8416  TIP3      H1              2.9471271410        6.3464314133       59.8837816061  TIP3      8224            0.0000000000
     46924      8416  TIP3      H2              1.7467180619        6.3571843280       60.7626114666  TIP3      8224            0.0000000000
     46925      8417  TIP3      OH2            12.6024953137        9.3503427845       70.4598692635  TIP3      8225            0.0000000000
     46926      8417  TIP3      H1             12.9787938657        8.6622337141       69.8738639486  TIP3      8225            0.0000000000
     46927      8417  TIP3      H2             12.1344888892        8.8237368406       71.1331399948  TIP3      8225            0.0000000000
     46928      8418  TIP3      OH2             9.3997564905        5.3331384193       65.2976462603  TIP3      8226            0.0000000000
     46929      8418  TIP3      H1              8.4659724429        5.3315891097       65.5926122445  TIP3      8226            0.0000000000
     46930      8418  TIP3      H2              9.8842861982        5.1568272828       66.1187397199  TIP3      8226            0.0000000000
     46931      8419  TIP3      OH2             4.2207744695        6.8760792110       64.1645664327  TIP3      8227            0.0000000000
     46932      8419  TIP3      H1              3.3420937580        7.0281146984       63.7636242793  TIP3      8227            0.0000000000
     46933      8419  TIP3      H2              4.5048710560        6.0353764310       63.7679942294  TIP3      8227            0.0000000000
     46934      8420  TIP3      OH2             7.8558076893        6.9267805999       61.7950603637  TIP3      8228            0.0000000000
     46935      8420  TIP3      H1              8.8122342818        7.0359833244       61.9527925001  TIP3      8228            0.0000000000
     46936      8420  TIP3      H2              7.6191379578        7.6074211003       61.1371851889  TIP3      8228            0.0000000000
     46937      8421  TIP3      OH2            13.8062422192        4.5666671134       68.5362576325  TIP3      8229            0.0000000000
     46938      8421  TIP3      H1             13.1239868901        4.6118951800       69.2438574806  TIP3      8229            0.0000000000
     46939      8421  TIP3      H2             13.2990059715        4.3073517903       67.7545195591  TIP3      8229            0.0000000000
     46940      8422  TIP3      OH2             6.5578837783        8.1014437241       59.3827232919  TIP3      8230            0.0000000000
     46941      8422  TIP3      H1              6.0284047668        7.7221963910       58.6615337754  TIP3      8230            0.0000000000
     46942      8422  TIP3      H2              7.3773058892        8.3090986504       58.9019155091  TIP3      8230            0.0000000000
     46943      8423  TIP3      OH2            17.0021449916       20.2036385790       74.9001614781  TIP3      8231            0.0000000000
     46944      8423  TIP3      H1             17.2791688339       20.5695032127       74.0387479359  TIP3      8231            0.0000000000
     46945      8423  TIP3      H2             17.7377756043       20.5039051259       75.4606062495  TIP3      8231            0.0000000000
     46946      8424  TIP3      OH2             4.6989129483       12.6638505694       74.4480640976  TIP3      8232            0.0000000000
     46947      8424  TIP3      H1              5.4023588957       12.9192785895       75.0656614121  TIP3      8232            0.0000000000
     46948      8424  TIP3      H2              3.9150337619       12.7512759253       75.0322680573  TIP3      8232            0.0000000000
     46949      8425  TIP3      OH2            10.6927741915        8.0904052816       67.1869926485  TIP3      8233            0.0000000000
     46950      8425  TIP3      H1             11.2872200474        7.5515017841       66.6537103993  TIP3      8233            0.0000000000
     46951      8425  TIP3      H2             10.5410198290        7.5384515863       67.9677001067  TIP3      8233            0.0000000000
     46952      8426  TIP3      OH2             5.6964920547        4.2292445457       63.6265561160  TIP3      8234            0.0000000000
     46953      8426  TIP3      H1              5.3868888255        3.3051528312       63.6191152330  TIP3      8234            0.0000000000
     46954      8426  TIP3      H2              6.4869959103        4.1611435675       63.0772860602  TIP3      8234            0.0000000000
     46955      8427  TIP3      OH2             9.3245351100        6.4151296003       69.6022097874  TIP3      8235            0.0000000000
     46956      8427  TIP3      H1              8.4991938593        6.9313099736       69.6932430584  TIP3      8235            0.0000000000
     46957      8427  TIP3      H2              9.8791103215        6.7622585782       70.3275884688  TIP3      8235            0.0000000000
     46958      8428  TIP3      OH2             9.9265098707       12.6300707566       61.3087050395  TIP3      8236            0.0000000000
     46959      8428  TIP3      H1              9.1270568036       12.1702591167       60.9639662357  TIP3      8236            0.0000000000
     46960      8428  TIP3      H2              9.6764832446       12.7593352480       62.2411188785  TIP3      8236            0.0000000000
     46961      8429  TIP3      OH2            17.0974385222       11.8560264889       70.1324882025  TIP3      8237            0.0000000000
     46962      8429  TIP3      H1             17.6723374225       12.3076545868       69.4817899730  TIP3      8237            0.0000000000
     46963      8429  TIP3      H2             16.2498480286       11.8773605831       69.6464767298  TIP3      8237            0.0000000000
     46964      8430  TIP3      OH2            13.7401713642        5.4465420110       59.4823620512  TIP3      8238            0.0000000000
     46965      8430  TIP3      H1             12.7905596230        5.6029428881       59.3407005426  TIP3      8238            0.0000000000
     46966      8430  TIP3      H2             14.0820805243        6.3015707917       59.8227468559  TIP3      8238            0.0000000000
     46967      8431  TIP3      OH2            11.4488091124       12.8966519019       72.5650811363  TIP3      8239            0.0000000000
     46968      8431  TIP3      H1             11.0299654026       12.4738276846       73.3233133748  TIP3      8239            0.0000000000
     46969      8431  TIP3      H2             11.1593145780       13.8141719759       72.6472288527  TIP3      8239            0.0000000000
     46970      8432  TIP3      OH2            14.4799694243        7.3814447667       61.0997401507  TIP3      8240            0.0000000000
     46971      8432  TIP3      H1             15.3589009467        7.2381716340       61.5100218251  TIP3      8240            0.0000000000
     46972      8432  TIP3      H2             14.5942019987        8.1987885308       60.5892557842  TIP3      8240            0.0000000000
     46973      8433  TIP3      OH2             5.0248570493       12.0312090999       67.1021223116  TIP3      8241            0.0000000000
     46974      8433  TIP3      H1              5.7034361862       11.9473007326       66.4028173883  TIP3      8241            0.0000000000
     46975      8433  TIP3      H2              5.0838376380       11.1718108226       67.5575826801  TIP3      8241            0.0000000000
     46976      8434  TIP3      OH2            12.0298651122       14.0949908591       60.3860343788  TIP3      8242            0.0000000000
     46977      8434  TIP3      H1             11.6505781600       14.9553223832       60.6666526463  TIP3      8242            0.0000000000
     46978      8434  TIP3      H2             11.2720862769       13.4877229104       60.5370899994  TIP3      8242            0.0000000000
     46979      8435  TIP3      OH2             2.0073340535       10.4327089810       72.3630289505  TIP3      8243            0.0000000000
     46980      8435  TIP3      H1              2.1833357058        9.9904861219       73.2160642845  TIP3      8243            0.0000000000
     46981      8435  TIP3      H2              1.3933354912        9.8173402599       71.9249122851  TIP3      8243            0.0000000000
     46982      8436  TIP3      OH2             9.0207100417        9.9935505371       74.5468435396  TIP3      8244            0.0000000000
     46983      8436  TIP3      H1              8.7025606970        9.6840223070       73.6855691480  TIP3      8244            0.0000000000
     46984      8436  TIP3      H2              9.9451790377        9.6740447200       74.5388739105  TIP3      8244            0.0000000000
     46985      8437  TIP3      OH2            13.7195080464       15.2917347454       72.5098975932  TIP3      8245            0.0000000000
     46986      8437  TIP3      H1             12.8026678630       15.5009439551       72.2547541992  TIP3      8245            0.0000000000
     46987      8437  TIP3      H2             13.6712214053       15.6325329212       73.4260854349  TIP3      8245            0.0000000000
     46988      8438  TIP3      OH2            19.4074332893        7.5068782642       60.8494113235  TIP3      8246            0.0000000000
     46989      8438  TIP3      H1             18.7951274191        7.2204536351       60.1458234763  TIP3      8246            0.0000000000
     46990      8438  TIP3      H2             19.4328662239        8.4645533676       60.6232187793  TIP3      8246            0.0000000000
     46991      8439  TIP3      OH2            19.3369566314       13.3391774819       73.7087172453  TIP3      8247            0.0000000000
     46992      8439  TIP3      H1             18.4951383437       13.6176257009       73.2827785737  TIP3      8247            0.0000000000
     46993      8439  TIP3      H2             19.9287675332       13.3378826488       72.9172542162  TIP3      8247            0.0000000000
     46994      8440  TIP3      OH2            17.6423410584       16.3365538963       61.3113748231  TIP3      8248            0.0000000000
     46995      8440  TIP3      H1             17.3085245475       15.4890807625       61.6139986780  TIP3      8248            0.0000000000
     46996      8440  TIP3      H2             17.9881837074       16.1385630300       60.4218425734  TIP3      8248            0.0000000000
     46997      8441  TIP3      OH2            14.8570003114       11.1866203541       68.3074631188  TIP3      8249            0.0000000000
     46998      8441  TIP3      H1             13.9238843913       10.9147100601       68.3037358678  TIP3      8249            0.0000000000
     46999      8441  TIP3      H2             15.3033494394       10.3845428437       67.9690729086  TIP3      8249            0.0000000000
     47000      8442  TIP3      OH2             7.3965591999       15.4853261537       64.4837101194  TIP3      8250            0.0000000000
     47001      8442  TIP3      H1              7.8955348480       16.2918379938       64.2802900225  TIP3      8250            0.0000000000
     47002      8442  TIP3      H2              6.5143919179       15.7168098459       64.1582984044  TIP3      8250            0.0000000000
     47003      8443  TIP3      OH2             3.1643881352       10.3228867596       59.0582175147  TIP3      8251            0.0000000000
     47004      8443  TIP3      H1              3.7436216080       10.9882944933       59.4697675029  TIP3      8251            0.0000000000
     47005      8443  TIP3      H2              2.2736874980       10.6363183838       59.3052200781  TIP3      8251            0.0000000000
     47006      8444  TIP3      OH2             8.8358579226       13.1543941629       64.0101763782  TIP3      8252            0.0000000000
     47007      8444  TIP3      H1              8.4847206541       14.0653738954       64.0910201916  TIP3      8252            0.0000000000
     47008      8444  TIP3      H2              8.1150372909       12.6534756158       64.4429937575  TIP3      8252            0.0000000000
     47009      8445  TIP3      OH2             9.2617267373       17.3337636402       70.4161901288  TIP3      8253            0.0000000000
     47010      8445  TIP3      H1              9.7212653413       18.1380017349       70.1287671052  TIP3      8253            0.0000000000
     47011      8445  TIP3      H2              9.8854828917       16.9877613633       71.0788347274  TIP3      8253            0.0000000000
     47012      8446  TIP3      OH2             7.4863890446       18.1379400414       63.5237570893  TIP3      8254            0.0000000000
     47013      8446  TIP3      H1              6.5228410366       18.2812498258       63.6637365693  TIP3      8254            0.0000000000
     47014      8446  TIP3      H2              7.8533104264       18.9715890602       63.8721380642  TIP3      8254            0.0000000000
     47015      8447  TIP3      OH2            12.7901257120       13.3162053951       70.0098320946  TIP3      8255            0.0000000000
     47016      8447  TIP3      H1             12.4580466177       13.1502945955       70.9185338359  TIP3      8255            0.0000000000
     47017      8447  TIP3      H2             13.4319186866       12.6051576020       69.8793838847  TIP3      8255            0.0000000000
     47018      8448  TIP3      OH2            15.1284372023       14.4116799570       59.1325710347  TIP3      8256            0.0000000000
     47019      8448  TIP3      H1             15.4217831653       13.9266438841       59.9211658590  TIP3      8256            0.0000000000
     47020      8448  TIP3      H2             14.1731569857       14.2236688345       59.1855023995  TIP3      8256            0.0000000000
     47021      8449  TIP3      OH2            15.6096426479       17.9125294879       72.5194887336  TIP3      8257            0.0000000000
     47022      8449  TIP3      H1             14.9132517766       17.4199263091       72.0447955455  TIP3      8257            0.0000000000
     47023      8449  TIP3      H2             15.7870203883       18.6135990870       71.8579457779  TIP3      8257            0.0000000000
     47024      8450  TIP3      OH2            19.5917767587       18.7581101271       59.3764683188  TIP3      8258            0.0000000000
     47025      8450  TIP3      H1             20.2757035380       19.4248318235       59.1704075504  TIP3      8258            0.0000000000
     47026      8450  TIP3      H2             18.8761000554       19.3667548741       59.6645878225  TIP3      8258            0.0000000000
     47027      8451  TIP3      OH2             3.6669261292        5.1648433781       71.9156120360  TIP3      8259            0.0000000000
     47028      8451  TIP3      H1              2.7586664167        5.5163247293       71.8936306486  TIP3      8259            0.0000000000
     47029      8451  TIP3      H2              3.5557083057        4.3180152324       72.3776049320  TIP3      8259            0.0000000000
     47030      8452  TIP3      OH2            15.9004635979       13.0852173227       61.4623681598  TIP3      8260            0.0000000000
     47031      8452  TIP3      H1             15.6897609685       12.2105706482       61.8559651847  TIP3      8260            0.0000000000
     47032      8452  TIP3      H2             16.8751844129       13.0678538829       61.5064413796  TIP3      8260            0.0000000000
     47033      8453  TIP3      OH2             3.2760481996       16.9506849879       70.3385557479  TIP3      8261            0.0000000000
     47034      8453  TIP3      H1              3.5842909281       16.0324535845       70.3481931146  TIP3      8261            0.0000000000
     47035      8453  TIP3      H2              3.5378582725       17.2426278716       71.2190021444  TIP3      8261            0.0000000000
     47036      8454  TIP3      OH2             9.2534609638       15.4786852791       57.6186157501  TIP3      8262            0.0000000000
     47037      8454  TIP3      H1              9.3502924397       14.7140343495       57.0286164746  TIP3      8262            0.0000000000
     47038      8454  TIP3      H2              8.8091949881       15.0479406961       58.3814643347  TIP3      8262            0.0000000000
     47039      8455  TIP3      OH2             8.0251541411       15.0055235130       60.0716584932  TIP3      8263            0.0000000000
     47040      8455  TIP3      H1              8.2939347164       14.4895800473       60.8410337427  TIP3      8263            0.0000000000
     47041      8455  TIP3      H2              8.1193272724       15.9312319243       60.3953004523  TIP3      8263            0.0000000000
     47042      8456  TIP3      OH2             4.5684592865       12.2503452891       60.5569855239  TIP3      8264            0.0000000000
     47043      8456  TIP3      H1              3.8526780382       12.6471675970       61.0930014546  TIP3      8264            0.0000000000
     47044      8456  TIP3      H2              5.0722583055       13.0305573452       60.2612178905  TIP3      8264            0.0000000000
     47045      8457  TIP3      OH2            12.3960376738        4.9403928212       70.8759856464  TIP3      8265            0.0000000000
     47046      8457  TIP3      H1             13.1106692120        4.9988808663       71.5186662454  TIP3      8265            0.0000000000
     47047      8457  TIP3      H2             12.0120670005        4.0636333533       71.0795945070  TIP3      8265            0.0000000000
     47048      8458  TIP3      OH2            13.1385159957        4.5054317513       61.9607456911  TIP3      8266            0.0000000000
     47049      8458  TIP3      H1             13.3704891426        4.9689131684       61.1306980544  TIP3      8266            0.0000000000
     47050      8458  TIP3      H2             13.7178688684        4.9483144561       62.5942022869  TIP3      8266            0.0000000000
     47051      8459  TIP3      OH2            10.8297776934       16.6638476642       60.7646563099  TIP3      8267            0.0000000000
     47052      8459  TIP3      H1             10.0121600131       17.1993735594       60.8383113889  TIP3      8267            0.0000000000
     47053      8459  TIP3      H2             11.3681635364       17.2183553337       60.1797287649  TIP3      8267            0.0000000000
     47054      8460  TIP3      OH2            10.3714663379        6.2602399269       62.7794365025  TIP3      8268            0.0000000000
     47055      8460  TIP3      H1             11.1539553996        6.8411254506       62.8329866969  TIP3      8268            0.0000000000
     47056      8460  TIP3      H2             10.0983385668        6.1239611077       63.7073136179  TIP3      8268            0.0000000000
     47057      8461  TIP3      OH2            10.9200609848        7.2800210358       71.9638509031  TIP3      8269            0.0000000000
     47058      8461  TIP3      H1             10.9864530591        7.8320045492       72.7667257362  TIP3      8269            0.0000000000
     47059      8461  TIP3      H2             11.5831814591        6.5843006290       72.0634857327  TIP3      8269            0.0000000000
     47060      8462  TIP3      OH2            11.2172241912        3.3160535279       63.6597488456  TIP3      8270            0.0000000000
     47061      8462  TIP3      H1             10.8960290867        3.9624023150       64.3114158948  TIP3      8270            0.0000000000
     47062      8462  TIP3      H2             11.9130724370        3.8627173186       63.2199713196  TIP3      8270            0.0000000000
     47063      8463  TIP3      OH2             8.2300284649       17.7017300854       60.7955994356  TIP3      8271            0.0000000000
     47064      8463  TIP3      H1              8.3226468565       18.5166253497       60.2448622094  TIP3      8271            0.0000000000
     47065      8463  TIP3      H2              7.9562964179       18.0667112262       61.6657138634  TIP3      8271            0.0000000000
     47066      8464  TIP3      OH2             6.8762795931        4.4235612815       60.3738465510  TIP3      8272            0.0000000000
     47067      8464  TIP3      H1              6.8261051867        5.3219957882       60.7577869409  TIP3      8272            0.0000000000
     47068      8464  TIP3      H2              7.7861042891        4.1798539186       60.6355791689  TIP3      8272            0.0000000000
     47069      8465  TIP3      OH2            17.1008939460        5.1283422934       72.8102131422  TIP3      8273            0.0000000000
     47070      8465  TIP3      H1             16.1798728516        5.4657742414       72.6878496326  TIP3      8273            0.0000000000
     47071      8465  TIP3      H2             17.4033513245        5.1290129717       71.8868227818  TIP3      8273            0.0000000000
     47072      8466  TIP3      OH2            15.6963452653        8.9569917807       66.8373614444  TIP3      8274            0.0000000000
     47073      8466  TIP3      H1             14.8882486423        8.4888934492       66.5496715686  TIP3      8274            0.0000000000
     47074      8466  TIP3      H2             16.1858792232        8.2592030833       67.3340688893  TIP3      8274            0.0000000000
     47075      8467  TIP3      OH2             5.1071216158       14.8646773223       59.4153726294  TIP3      8275            0.0000000000
     47076      8467  TIP3      H1              5.7744342290       15.4926932374       59.7305277756  TIP3      8275            0.0000000000
     47077      8467  TIP3      H2              5.6285954624       14.4012820968       58.7294564779  TIP3      8275            0.0000000000
     47078      8468  TIP3      OH2             3.4535967539        7.5380401952       58.5601866644  TIP3      8276            0.0000000000
     47079      8468  TIP3      H1              3.4722383782        8.4967315643       58.7663133561  TIP3      8276            0.0000000000
     47080      8468  TIP3      H2              2.5615363641        7.3639783310       58.2519798110  TIP3      8276            0.0000000000
     47081      8469  TIP3      OH2            16.7880474338       18.1872353263       68.4593446654  TIP3      8277            0.0000000000
     47082      8469  TIP3      H1             16.6508212392       18.9106288320       67.8278834450  TIP3      8277            0.0000000000
     47083      8469  TIP3      H2             17.7301081684       18.2597935881       68.7145238095  TIP3      8277            0.0000000000
     47084      8470  TIP3      OH2             4.2678070145        2.3177109281       67.3082174568  TIP3      8278            0.0000000000
     47085      8470  TIP3      H1              4.0764366095        2.3369234488       66.3428161366  TIP3      8278            0.0000000000
     47086      8470  TIP3      H2              3.8515584062        1.4657841753       67.5594009662  TIP3      8278            0.0000000000
     47087      8471  TIP3      OH2             3.2264300573       16.2452846749       63.4503109665  TIP3      8279            0.0000000000
     47088      8471  TIP3      H1              2.3736526781       16.6938854928       63.4033474625  TIP3      8279            0.0000000000
     47089      8471  TIP3      H2              3.7022743944       16.7099983997       62.7488333082  TIP3      8279            0.0000000000
     47090      8472  TIP3      OH2             2.4189484092       18.9054972166       74.7366693291  TIP3      8280            0.0000000000
     47091      8472  TIP3      H1              3.0263900288       18.7039976322       75.4788754848  TIP3      8280            0.0000000000
     47092      8472  TIP3      H2              2.0174018683       18.0372335069       74.5617316164  TIP3      8280            0.0000000000
     47093      8473  TIP3      OH2             7.0910718149       17.7667341816       76.3632969130  TIP3      8281            0.0000000000
     47094      8473  TIP3      H1              7.8841723701       17.3086840282       76.6671808854  TIP3      8281            0.0000000000
     47095      8473  TIP3      H2              7.0802771257       17.5314734741       75.4124877286  TIP3      8281            0.0000000000
     47096      8474  TIP3      OH2            11.2445376214       17.3410152306       57.7457938215  TIP3      8282            0.0000000000
     47097      8474  TIP3      H1             10.5564075467       16.6722107777       57.9676348908  TIP3      8282            0.0000000000
     47098      8474  TIP3      H2             11.9610679789       16.7395978273       57.4875586882  TIP3      8282            0.0000000000
     47099      8475  TIP3      OH2            13.6203341117       16.1850654741       75.0526698748  TIP3      8283            0.0000000000
     47100      8475  TIP3      H1             13.2783743688       15.3254604599       75.3721733664  TIP3      8283            0.0000000000
     47101      8475  TIP3      H2             14.3743337264       16.3561355131       75.6472786152  TIP3      8283            0.0000000000
     47102      8476  TIP3      OH2            15.8053121686       17.0727349578       57.9281742262  TIP3      8284            0.0000000000
     47103      8476  TIP3      H1             16.0999955741       16.2971476945       58.4311477383  TIP3      8284            0.0000000000
     47104      8476  TIP3      H2             16.5654353883       17.2987959517       57.3748485934  TIP3      8284            0.0000000000
     47105      8477  TIP3      OH2             2.3320118213       12.6463311236       75.7143132285  TIP3      8285            0.0000000000
     47106      8477  TIP3      H1              2.5171598528       11.7441352108       75.3963778070  TIP3      8285            0.0000000000
     47107      8477  TIP3      H2              1.6064611756       12.9207916103       75.1278897679  TIP3      8285            0.0000000000
     47108      8478  TIP3      OH2             6.6984635482       13.0174139389       57.7494120220  TIP3      8286            0.0000000000
     47109      8478  TIP3      H1              6.8328810180       12.2524834264       58.3302539678  TIP3      8286            0.0000000000
     47110      8478  TIP3      H2              7.4423524610       12.8948574506       57.1277047737  TIP3      8286            0.0000000000
     47111      8479  TIP3      OH2             9.0560575133       12.6443938873       75.1101560975  TIP3      8287            0.0000000000
     47112      8479  TIP3      H1              8.7254963958       12.9675958974       74.2509251016  TIP3      8287            0.0000000000
     47113      8479  TIP3      H2              9.1326170869       11.6686396877       74.9940586606  TIP3      8287            0.0000000000
     47114      8480  TIP3      OH2            12.1010730265       14.1449928614       57.5098611437  TIP3      8288            0.0000000000
     47115      8480  TIP3      H1             11.8522791504       14.1919896220       58.4432855938  TIP3      8288            0.0000000000
     47116      8480  TIP3      H2             11.9541498745       13.1712927659       57.3592951957  TIP3      8288            0.0000000000
     47117      8481  TIP3      OH2            14.7879728062       12.5335733741       72.6214269322  TIP3      8289            0.0000000000
     47118      8481  TIP3      H1             15.5280380332       13.1365756333       72.3894330982  TIP3      8289            0.0000000000
     47119      8481  TIP3      H2             14.0505702692       13.1659378693       72.5220082436  TIP3      8289            0.0000000000
     47120      8482  TIP3      OH2             3.2405698982        9.8915456584       75.1031217117  TIP3      8290            0.0000000000
     47121      8482  TIP3      H1              3.6815757961        9.0392643444       75.0171505724  TIP3      8290            0.0000000000
     47122      8482  TIP3      H2              3.0378443464        9.9092771259       76.0567384772  TIP3      8290            0.0000000000
     47123      8483  TIP3      OH2             7.9045523228       11.0278305545       60.1820978607  TIP3      8291            0.0000000000
     47124      8483  TIP3      H1              7.3900479002       10.4914479486       60.8037438309  TIP3      8291            0.0000000000
     47125      8483  TIP3      H2              8.1932277445       10.3569819255       59.5210827916  TIP3      8291            0.0000000000
     47126      8484  TIP3      OH2             7.1589797911        8.8390272427       72.4607648767  TIP3      8292            0.0000000000
     47127      8484  TIP3      H1              6.5635278393        9.5607597777       72.7178910504  TIP3      8292            0.0000000000
     47128      8484  TIP3      H2              7.5575687590        9.2061312661       71.6535120783  TIP3      8292            0.0000000000
     47129      8485  TIP3      OH2             8.9674985789        9.2496528805       58.3646805362  TIP3      8293            0.0000000000
     47130      8485  TIP3      H1              8.8300656141        9.1681351937       57.3985722813  TIP3      8293            0.0000000000
     47131      8485  TIP3      H2              9.9466038187        9.3085101226       58.4273539601  TIP3      8293            0.0000000000
     47132      8486  TIP3      OH2            12.2365834482       11.4087118656       75.8479484136  TIP3      8294            0.0000000000
     47133      8486  TIP3      H1             13.1801858245       11.3641259598       75.6915083082  TIP3      8294            0.0000000000
     47134      8486  TIP3      H2             12.0438915417       10.6265647777       76.3877367391  TIP3      8294            0.0000000000
     47135      8487  TIP3      OH2            18.3339999331       11.5674367871       57.7920287952  TIP3      8295            0.0000000000
     47136      8487  TIP3      H1             18.1129067772       11.1922709107       56.9264264159  TIP3      8295            0.0000000000
     47137      8487  TIP3      H2             18.3971084989       12.5312496123       57.6035668371  TIP3      8295            0.0000000000
     47138      8488  TIP3      OH2             7.5759102646        6.2286493160       73.5008614724  TIP3      8296            0.0000000000
     47139      8488  TIP3      H1              7.6838412017        5.5093122879       72.8516603726  TIP3      8296            0.0000000000
     47140      8488  TIP3      H2              7.5235748479        7.0364393673       72.9537094246  TIP3      8296            0.0000000000
     47141      8489  TIP3      OH2             7.9707276576        4.5999597612       71.0731459398  TIP3      8297            0.0000000000
     47142      8489  TIP3      H1              8.4786828815        5.0638347568       70.3654627612  TIP3      8297            0.0000000000
     47143      8489  TIP3      H2              7.0769913952        4.5165263736       70.6672014119  TIP3      8297            0.0000000000
     47144      8490  TIP3      OH2             9.5189397549       10.0927972335       71.3275139028  TIP3      8298            0.0000000000
     47145      8490  TIP3      H1             10.2764940747        9.9256471088       70.7576329761  TIP3      8298            0.0000000000
     47146      8490  TIP3      H2              9.1456739649       10.9189139968       70.9782526533  TIP3      8298            0.0000000000
     47147      8491  TIP3      OH2            13.8945294352        7.8355036876       76.2486941815  TIP3      8299            0.0000000000
     47148      8491  TIP3      H1             14.1080166986        6.8899175732       76.2007126406  TIP3      8299            0.0000000000
     47149      8491  TIP3      H2             14.7678302106        8.2366431277       76.3219277904  TIP3      8299            0.0000000000
     47150      8492  TIP3      OH2            15.0667000439       10.5466243312       74.3530311035  TIP3      8300            0.0000000000
     47151      8492  TIP3      H1             14.8109490819       11.2630055623       73.7121510863  TIP3      8300            0.0000000000
     47152      8492  TIP3      H2             15.9272220675       10.2632782606       74.0136053324  TIP3      8300            0.0000000000
     47153      8493  TIP3      OH2             6.0481656500        7.4622184416       75.4594863138  TIP3      8301            0.0000000000
     47154      8493  TIP3      H1              5.2620612910        6.9069440239       75.2646128875  TIP3      8301            0.0000000000
     47155      8493  TIP3      H2              6.6775936094        7.1040139317       74.8021619580  TIP3      8301            0.0000000000
     47156      8494  TIP3      OH2             8.7704023199        2.0459983610       71.4692091347  TIP3      8302            0.0000000000
     47157      8494  TIP3      H1              8.5761304934        3.0054017418       71.3628965880  TIP3      8302            0.0000000000
     47158      8494  TIP3      H2              8.0145522027        1.6597073153       70.9813935888  TIP3      8302            0.0000000000
     47159      8495  TIP3      OH2            10.0402353107        6.3610206138       75.0842137206  TIP3      8303            0.0000000000
     47160      8495  TIP3      H1              9.7148897886        6.1474447992       75.9822427371  TIP3      8303            0.0000000000
     47161      8495  TIP3      H2              9.2590887706        6.1684135085       74.5292332922  TIP3      8303            0.0000000000
     47162      8496  TIP3      OH2            12.7593525256        5.5204018240       74.1679827441  TIP3      8304            0.0000000000
     47163      8496  TIP3      H1             11.7984936302        5.5818876728       74.2954993350  TIP3      8304            0.0000000000
     47164      8496  TIP3      H2             13.0192252637        4.8756150581       74.8558475889  TIP3      8304            0.0000000000
     47165      8497  TIP3      OH2            14.2867251680        4.1335171513       76.0818283937  TIP3      8305            0.0000000000
     47166      8497  TIP3      H1             14.2851659989        3.1538904055       76.0995057902  TIP3      8305            0.0000000000
     47167      8497  TIP3      H2             14.0636210552        4.4144241930       76.9979082213  TIP3      8305            0.0000000000
     47168      8498  TIP3      OH2             4.1405929799        5.4078480142       75.1975552406  TIP3      8306            0.0000000000
     47169      8498  TIP3      H1              4.3580801795        4.6651782526       74.6108742913  TIP3      8306            0.0000000000
     47170      8498  TIP3      H2              4.0234752528        4.9594074133       76.0609936389  TIP3      8306            0.0000000000
     47171      8499  TIP3      OH2             8.9730217159        1.4217670906       74.1657109975  TIP3      8307            0.0000000000
     47172      8499  TIP3      H1              9.6595276714        0.7237043287       74.1387495910  TIP3      8307            0.0000000000
     47173      8499  TIP3      H2              8.8510372398        1.5592047169       73.2084264607  TIP3      8307            0.0000000000
     47174      8500  TIP3      OH2             9.3120892526        3.0207185852       76.2699581319  TIP3      8308            0.0000000000
     47175      8500  TIP3      H1              9.1614051947        2.5244886748       75.4255908251  TIP3      8308            0.0000000000
     47176      8500  TIP3      H2              8.7511783841        3.8107465144       76.1545699878  TIP3      8308            0.0000000000
     47177      8501  TIP3      OH2             8.7993426714       19.9566784852       59.4538832166  TIP3      8309            0.0000000000
     47178      8501  TIP3      H1              9.7681348791       20.0404654027       59.5199524245  TIP3      8309            0.0000000000
     47179      8501  TIP3      H2              8.6542580507       20.5572970787       58.7126998821  TIP3      8309            0.0000000000
     47180      8502  TIP3      OH2             2.3537710491       14.5277880258       58.9210112546  TIP3      8310            0.0000000000
     47181      8502  TIP3      H1              3.3208581339       14.6225506088       59.1011772014  TIP3      8310            0.0000000000
     47182      8502  TIP3      H2              2.4043853273       13.8846783847       58.1741961865  TIP3      8310            0.0000000000
     47183      8503  TIP3      OH2             1.1371823274       19.9125769642       63.8855748997  TIP3      8311            0.0000000000
     47184      8503  TIP3      H1              0.4164573040       19.4275363573       63.4269328807  TIP3      8311            0.0000000000
     47185      8503  TIP3      H2              1.4168764407       19.2593144241       64.5522857136  TIP3      8311            0.0000000000
     47186      8504  TIP3      OH2             1.9586201594       18.0497895263       65.7629128568  TIP3      8312            0.0000000000
     47187      8504  TIP3      H1              1.6058047856       17.1722272920       65.9660401577  TIP3      8312            0.0000000000
     47188      8504  TIP3      H2              2.1864667971       18.3812478161       66.6474136533  TIP3      8312            0.0000000000
     47189      8505  TIP3      OH2            19.4715182216       18.9314714228       68.6219126822  TIP3      8313            0.0000000000
     47190      8505  TIP3      H1             19.5056981330       18.9683936335       69.6091146675  TIP3      8313            0.0000000000
     47191      8505  TIP3      H2             20.2713182021       19.4351752579       68.4476365919  TIP3      8313            0.0000000000
     47192      8506  TIP3      OH2            19.0769591386       18.4407998898       71.6064281683  TIP3      8314            0.0000000000
     47193      8506  TIP3      H1             18.5909555373       17.6599597417       71.2720768892  TIP3      8314            0.0000000000
     47194      8506  TIP3      H2             19.5562914532       18.0117562162       72.3373846949  TIP3      8314            0.0000000000
     47195      8507  TIP3      OH2            17.4886158772       14.1197267006       76.3015194294  TIP3      8315            0.0000000000
     47196      8507  TIP3      H1             16.6070538574       14.1814889429       76.7236291259  TIP3      8315            0.0000000000
     47197      8507  TIP3      H2             17.8899238756       14.9315998859       76.7095051944  TIP3      8315            0.0000000000
     47198      8508  TIP3      OH2            18.8165010021       12.5100275507       61.7335568569  TIP3      8316            0.0000000000
     47199      8508  TIP3      H1             19.6989769272       12.8772835537       61.9249096399  TIP3      8316            0.0000000000
     47200      8508  TIP3      H2             18.8143077254       11.7833907906       62.4066015840  TIP3      8316            0.0000000000
     47201      8509  TIP3      OH2            18.9787767033       10.7106107521       63.6710010236  TIP3      8317            0.0000000000
     47202      8509  TIP3      H1             18.4293450686        9.9896813525       64.0291452265  TIP3      8317            0.0000000000
     47203      8509  TIP3      H2             19.7873884392       10.6861896675       64.2322172174  TIP3      8317            0.0000000000
     47204      8510  TIP3      OH2            18.9435216509       13.2464485213       68.6019695464  TIP3      8318            0.0000000000
     47205      8510  TIP3      H1             19.7592962238       12.8611242215       68.2286803270  TIP3      8318            0.0000000000
     47206      8510  TIP3      H2             19.1023501639       14.1969088959       68.4468873885  TIP3      8318            0.0000000000
     47207      8511  TIP3      OH2            17.5061828953       16.1754201665       70.8600646846  TIP3      8319            0.0000000000
     47208      8511  TIP3      H1             16.8237920134       16.5170766942       71.4585803541  TIP3      8319            0.0000000000
     47209      8511  TIP3      H2             16.9538050338       15.7395097267       70.1828883641  TIP3      8319            0.0000000000
     47210      8512  TIP3      OH2            19.5165471196       10.3969921068       60.0356877136  TIP3      8320            0.0000000000
     47211      8512  TIP3      H1             18.9231169048       10.7313537193       59.3245485224  TIP3      8320            0.0000000000
     47212      8512  TIP3      H2             19.3827642483       11.0961564273       60.7076225388  TIP3      8320            0.0000000000
     47213      8513  TIP3      OH2            17.8619981778        7.6293638262       58.5489180470  TIP3      8321            0.0000000000
     47214      8513  TIP3      H1             17.9396325819        8.2854668257       57.8440011276  TIP3      8321            0.0000000000
     47215      8513  TIP3      H2             17.6880733955        6.7994657209       58.0595250336  TIP3      8321            0.0000000000
     47216      8514  TIP3      OH2            16.9404663588        9.0490161288       64.2018596460  TIP3      8322            0.0000000000
     47217      8514  TIP3      H1             16.8977809688        8.0814762154       64.1645115324  TIP3      8322            0.0000000000
     47218      8514  TIP3      H2             16.7059531157        9.2368407611       65.1257909192  TIP3      8322            0.0000000000
     47219      8515  TIP3      OH2             2.0065689697       11.0817327845       68.2464875471  TIP3      8323            0.0000000000
     47220      8515  TIP3      H1              2.2297007370       11.0628414908       67.2909142468  TIP3      8323            0.0000000000
     47221      8515  TIP3      H2              2.9051687771       10.9617354970       68.6196996244  TIP3      8323            0.0000000000
     47222      8516  TIP3      OH2            17.9665067588       11.0027795881       73.8009930245  TIP3      8324            0.0000000000
     47223      8516  TIP3      H1             18.5612177632       10.2269223996       73.9507020525  TIP3      8324            0.0000000000
     47224      8516  TIP3      H2             18.6118276473       11.7505727905       73.7591128684  TIP3      8324            0.0000000000
     47225      8517  TIP3      OH2            19.3359576514        8.8943636193       74.5866649663  TIP3      8325            0.0000000000
     47226      8517  TIP3      H1             18.4933055132        8.4544544172       74.3504885597  TIP3      8325            0.0000000000
     47227      8517  TIP3      H2             19.9470321401        8.1424896734       74.4697971779  TIP3      8325            0.0000000000
     47228      8518  TIP3      OH2            17.1136047414        5.0969074042       57.6674683701  TIP3      8326            0.0000000000
     47229      8518  TIP3      H1             17.6964745531        4.6427748665       58.3025634042  TIP3      8326            0.0000000000
     47230      8518  TIP3      H2             16.2483375215        4.6784809201       57.8180897095  TIP3      8326            0.0000000000
     47231      8519  TIP3      OH2            16.6705170403        6.6280912689       62.6217297042  TIP3      8327            0.0000000000
     47232      8519  TIP3      H1             16.9829125113        5.7074380905       62.7758587947  TIP3      8327            0.0000000000
     47233      8519  TIP3      H2             17.4885714869        7.0423739498       62.3132485737  TIP3      8327            0.0000000000
     47234      8520  TIP3      OH2            17.3153542057        7.1695141018       68.1027203978  TIP3      8328            0.0000000000
     47235      8520  TIP3      H1             18.2750840574        7.3972905311       68.0873268649  TIP3      8328            0.0000000000
     47236      8520  TIP3      H2             17.1309903571        7.3052257037       69.0409141252  TIP3      8328            0.0000000000
     47237      8521  TIP3      OH2            17.3937236735        7.8912935936       70.8938603745  TIP3      8329            0.0000000000
     47238      8521  TIP3      H1             16.5043066873        8.1808156712       71.1778376994  TIP3      8329            0.0000000000
     47239      8521  TIP3      H2             17.8252576666        8.7436406746       70.6431922197  TIP3      8329            0.0000000000
     47240      8522  TIP3      OH2             1.6383339186        6.4100273249       74.3893270670  TIP3      8330            0.0000000000
     47241      8522  TIP3      H1              2.5721449340        6.2108709015       74.6046149984  TIP3      8330            0.0000000000
     47242      8522  TIP3      H2              1.1656663067        5.6031177308       74.6992755196  TIP3      8330            0.0000000000
     47243      8523  TIP3      OH2            19.6458040623        1.9534249962       76.2189972571  TIP3      8331            0.0000000000
     47244      8523  TIP3      H1             20.0016247237        1.2831205555       75.6114492662  TIP3      8331            0.0000000000
     47245      8523  TIP3      H2             19.7773630204        2.7637867238       75.7021459588  TIP3      8331            0.0000000000
     47246      8524  TIP3      OH2            17.3582439267        3.9182895889       62.6988819042  TIP3      8332            0.0000000000
     47247      8524  TIP3      H1             17.5664350637        3.4831151467       63.5536317339  TIP3      8332            0.0000000000
     47248      8524  TIP3      H2             16.7592965697        3.2807578440       62.2641566489  TIP3      8332            0.0000000000
     47249      8525  TIP3      OH2             2.8187226237        4.7312271228       67.2704259017  TIP3      8333            0.0000000000
     47250      8525  TIP3      H1              3.2825962556        3.9014138205       67.5090597831  TIP3      8333            0.0000000000
     47251      8525  TIP3      H2              3.4007609101        5.4092951083       67.6424603563  TIP3      8333            0.0000000000
     47252      8526  TIP3      OH2             1.0533331904        7.7846369160       68.2127730208  TIP3      8334            0.0000000000
     47253      8526  TIP3      H1              1.7068483266        7.4568242148       67.5549177955  TIP3      8334            0.0000000000
     47254      8526  TIP3      H2              1.5926379894        8.5089567309       68.5784945950  TIP3      8334            0.0000000000
     47255      8527  TIP3      OH2            19.1759055385        4.0550653456       74.5721527769  TIP3      8335            0.0000000000
     47256      8527  TIP3      H1             18.2370543313        4.3222048316       74.5193814496  TIP3      8335            0.0000000000
     47257      8527  TIP3      H2             19.2097096646        3.5020479839       73.7765846573  TIP3      8335            0.0000000000
     47258      8528  TIP3      OH2            19.1635699514        3.9294558100       59.2497029270  TIP3      8336            0.0000000000
     47259      8528  TIP3      H1             19.5788645406        3.2212885732       58.7096640446  TIP3      8336            0.0000000000
     47260      8528  TIP3      H2             19.8635385750        4.5981717888       59.3025353517  TIP3      8336            0.0000000000
     47261      8529  TIP3      OH2             1.4882170066        3.9952787552       62.3810307665  TIP3      8337            0.0000000000
     47262      8529  TIP3      H1              0.5448292386        4.1545173169       62.2169039474  TIP3      8337            0.0000000000
     47263      8529  TIP3      H2              1.9043446265        4.4712001585       61.6439589605  TIP3      8337            0.0000000000
     47264      8530  TIP3      OH2            16.2273397213       18.8982412726       64.3398931485  TIP3      8338            0.0000000000
     47265      8530  TIP3      H1             16.8829671964       18.6332938877       63.6661771237  TIP3      8338            0.0000000000
     47266      8530  TIP3      H2             16.6853910896       19.4869302406       64.9430962517  TIP3      8338            0.0000000000
     47267      8531  TIP3      OH2             1.4290453830        2.6499714092       70.6669987536  TIP3      8339            0.0000000000
     47268      8531  TIP3      H1              0.7695120256        2.4287885106       71.3486637135  TIP3      8339            0.0000000000
     47269      8531  TIP3      H2              0.9600820451        3.3057391531       70.1213719639  TIP3      8339            0.0000000000
     47270      8532  TIP3      OH2             3.6728304494       15.8545505257       74.8308670651  TIP3      8340            0.0000000000
     47271      8532  TIP3      H1              2.8277745194       16.0559818936       74.4002538947  TIP3      8340            0.0000000000
     47272      8532  TIP3      H2              3.3983295809       15.7725851263       75.7494375038  TIP3      8340            0.0000000000
     47273      8533  TIP3      OH2             6.5711835975       16.8378595126       71.1052439005  TIP3      8341            0.0000000000
     47274      8533  TIP3      H1              6.2426477782       17.7060438859       70.8332790872  TIP3      8341            0.0000000000
     47275      8533  TIP3      H2              7.4979776652       16.9226210511       70.8005811930  TIP3      8341            0.0000000000
     47276      8534  TIP3      OH2            10.8893297618       18.2510093743       74.0129595788  TIP3      8342            0.0000000000
     47277      8534  TIP3      H1             11.0235156101       17.9136838786       74.9292200347  TIP3      8342            0.0000000000
     47278      8534  TIP3      H2             11.7912367113       18.5621819320       73.7835986115  TIP3      8342            0.0000000000
     47279      8535  TIP3      OH2            13.1796003948       19.5279446887       73.3197582449  TIP3      8343            0.0000000000
     47280      8535  TIP3      H1             13.9093487741       18.9416501539       73.0825063869  TIP3      8343            0.0000000000
     47281      8535  TIP3      H2             13.5538640778       19.9672475203       74.1143031145  TIP3      8343            0.0000000000
     47282      8536  TIP3      OH2            18.2001766091        2.1388877226       72.4272364852  TIP3      8344            0.0000000000
     47283      8536  TIP3      H1             17.3718218792        2.4422671342       72.0159583670  TIP3      8344            0.0000000000
     47284      8536  TIP3      H2             18.3659781245        1.3181609603       71.9089118476  TIP3      8344            0.0000000000
     47285      8537  TIP3      OH2             3.9944778655       20.0728175153       71.0977319493  TIP3      8345            0.0000000000
     47286      8537  TIP3      H1              3.2648991662       20.5744388549       70.7037045635  TIP3      8345            0.0000000000
     47287      8537  TIP3      H2              3.6853964512       19.8836093425       71.9953443696  TIP3      8345            0.0000000000
     47288      8538  TIP3      OH2             6.4636902750       19.6505123433       70.1729188764  TIP3      8346            0.0000000000
     47289      8538  TIP3      H1              5.5718872474       19.8035692812       70.5660846561  TIP3      8346            0.0000000000
     47290      8538  TIP3      H2              6.4098160003       20.2412448765       69.3988227057  TIP3      8346            0.0000000000
     47291      8539  TIP3      OH2            11.1740169263       19.5671437757       69.3406898205  TIP3      8347            0.0000000000
     47292      8539  TIP3      H1             10.7085034997       20.1224226439       68.6961309223  TIP3      8347            0.0000000000
     47293      8539  TIP3      H2             11.3036214828       20.1991336266       70.0819995912  TIP3      8347            0.0000000000
     47294      8540  TIP3      OH2            13.4600468763       18.3659788845       70.3758424091  TIP3      8348            0.0000000000
     47295      8540  TIP3      H1             12.6069505135       18.6472803289       70.0036402496  TIP3      8348            0.0000000000
     47296      8540  TIP3      H2             13.9430263388       19.2061224067       70.2821939943  TIP3      8348            0.0000000000
     47297      8541  TIP3      OH2            16.0546013569       19.9358363610       70.5886883574  TIP3      8349            0.0000000000
     47298      8541  TIP3      H1             15.9777639058       20.8999561916       70.3792729699  TIP3      8349            0.0000000000
     47299      8541  TIP3      H2             16.2473253549       19.5701339937       69.7117651183  TIP3      8349            0.0000000000
     47300      8542  TIP3      OH2             3.4569731561       18.7230190819       68.0431690742  TIP3      8350            0.0000000000
     47301      8542  TIP3      H1              3.3735303228       18.2610498744       68.9047524640  TIP3      8350            0.0000000000
     47302      8542  TIP3      H2              4.2709215486       18.3432233326       67.6547764397  TIP3      8350            0.0000000000
     47303      8543  TIP3      OH2             5.5321356076       17.4345413682       66.6958779810  TIP3      8351            0.0000000000
     47304      8543  TIP3      H1              5.3670164619       16.5011991725       66.9299663892  TIP3      8351            0.0000000000
     47305      8543  TIP3      H2              6.3869976656       17.5898321433       67.1493767466  TIP3      8351            0.0000000000
     47306      8544  TIP3      OH2             8.1412580556       17.9230040432       67.5762490452  TIP3      8352            0.0000000000
     47307      8544  TIP3      H1              8.2899195237       16.9964468853       67.3124342663  TIP3      8352            0.0000000000
     47308      8544  TIP3      H2              8.1800567247       17.8628442921       68.5417360922  TIP3      8352            0.0000000000
     47309      8545  TIP3      OH2            11.5938531628        3.5788050018       66.7053591789  TIP3      8353            0.0000000000
     47310      8545  TIP3      H1             10.9181709282        2.9373615841       66.9897784092  TIP3      8353            0.0000000000
     47311      8545  TIP3      H2             12.1438825983        3.0404376349       66.1240252900  TIP3      8353            0.0000000000
     47312      8546  TIP3      OH2            16.7235820502        1.6190428261       66.7743586303  TIP3      8354            0.0000000000
     47313      8546  TIP3      H1             17.3374758319        2.2078816054       66.2671583876  TIP3      8354            0.0000000000
     47314      8546  TIP3      H2             15.8416124643        1.9784623576       66.5440351446  TIP3      8354            0.0000000000
     47315      8547  TIP3      OH2            18.3811723176        2.8526418935       65.0556325226  TIP3      8355            0.0000000000
     47316      8547  TIP3      H1             19.0768617779        2.3114156269       64.6191059959  TIP3      8355            0.0000000000
     47317      8547  TIP3      H2             18.8879500474        3.6942628033       65.1645215004  TIP3      8355            0.0000000000
     47318      8548  TIP3      OH2             3.9614620923        2.1942249248       64.5595811637  TIP3      8356            0.0000000000
     47319      8548  TIP3      H1              3.1646117791        2.0002083870       64.0297148532  TIP3      8356            0.0000000000
     47320      8548  TIP3      H2              4.4197856427        1.3332445520       64.4991562074  TIP3      8356            0.0000000000
     47321      8549  TIP3      OH2             2.7261476826        1.9473765596       60.2806064953  TIP3      8357            0.0000000000
     47322      8549  TIP3      H1              3.2190366119        2.5976287171       59.7461255246  TIP3      8357            0.0000000000
     47323      8549  TIP3      H2              2.1590341126        2.5231597358       60.8191565566  TIP3      8357            0.0000000000
     47324      8550  TIP3      OH2             8.4290838126        2.1207735265       64.3451086783  TIP3      8358            0.0000000000
     47325      8550  TIP3      H1              9.3297165960        2.4778747813       64.2696651849  TIP3      8358            0.0000000000
     47326      8550  TIP3      H2              8.3964742208        1.9015560831       65.2756390265  TIP3      8358            0.0000000000
     47327      8551  TIP3      OH2            14.1458212939        2.1387243698       65.9694330986  TIP3      8359            0.0000000000
     47328      8551  TIP3      H1             14.0930766747        2.2514075932       65.0112740423  TIP3      8359            0.0000000000
     47329      8551  TIP3      H2             13.7581321206        1.2383368363       66.1030897465  TIP3      8359            0.0000000000
     47330      8552  TIP3      OH2            15.4112114706        2.1682186796       61.6547062489  TIP3      8360            0.0000000000
     47331      8552  TIP3      H1             14.6630799614        2.7628222510       61.4954187008  TIP3      8360            0.0000000000
     47332      8552  TIP3      H2             14.9676236729        1.3171572790       61.8854235547  TIP3      8360            0.0000000000
     47333      8553  TIP3      OH2             2.6406791849       17.8958867811       61.3108863014  TIP3      8361            0.0000000000
     47334      8553  TIP3      H1              1.9839582209       17.8819526892       60.5905496665  TIP3      8361            0.0000000000
     47335      8553  TIP3      H2              2.6381658510       18.8510600713       61.4820318303  TIP3      8361            0.0000000000
     47336      8554  TIP3      OH2             4.5550369591        3.8915503367       58.7923308068  TIP3      8362            0.0000000000
     47337      8554  TIP3      H1              5.0868025345        3.2736493306       58.2641931379  TIP3      8362            0.0000000000
     47338      8554  TIP3      H2              5.2209008295        4.2136154841       59.4273993383  TIP3      8362            0.0000000000
     47339      8555  TIP3      OH2             9.5809825474        4.1343492106       61.1953854491  TIP3      8363            0.0000000000
     47340      8555  TIP3      H1              9.8322819943        3.5567618063       61.9350130252  TIP3      8363            0.0000000000
     47341      8555  TIP3      H2              9.6520307810        5.0013590743       61.6520396251  TIP3      8363            0.0000000000
     47342      8556  TIP3      OH2            11.5146579274       19.2090349181       59.6439134073  TIP3      8364            0.0000000000
     47343      8556  TIP3      H1             12.4326540864       19.4339595842       59.4222575994  TIP3      8364            0.0000000000
     47344      8556  TIP3      H2             11.2949106790       18.6881764623       58.8425137859  TIP3      8364            0.0000000000
     47345      8557  TIP3      OH2            18.2177616651       18.7141660884       62.3800510963  TIP3      8365            0.0000000000
     47346      8557  TIP3      H1             18.0164938675       17.9329295520       61.8021460108  TIP3      8365            0.0000000000
     47347      8557  TIP3      H2             18.1397378552       19.4379691375       61.7170980121  TIP3      8365            0.0000000000
     47348      8558  TIP3      OH2             3.8225155843        2.7327732254       74.0025138934  TIP3      8366            0.0000000000
     47349      8558  TIP3      H1              3.4485275625        1.9179861730       74.3940450542  TIP3      8366            0.0000000000
     47350      8558  TIP3      H2              4.7415044686        2.6734748163       74.3562258371  TIP3      8366            0.0000000000
     47351      8559  TIP3      OH2             5.8618849329        2.1238162256       75.6430988231  TIP3      8367            0.0000000000
     47352      8559  TIP3      H1              6.7278109072        1.7513086285       75.3851600397  TIP3      8367            0.0000000000
     47353      8559  TIP3      H2              5.4611989515        1.3078890744       76.0127672967  TIP3      8367            0.0000000000
     47354      8560  TIP3      OH2             4.4345279723       18.8837239254       58.2509962410  TIP3      8368            0.0000000000
     47355      8560  TIP3      H1              4.1755572435       19.1419533056       59.1473993612  TIP3      8368            0.0000000000
     47356      8560  TIP3      H2              5.2182282169       18.3199195778       58.4060012385  TIP3      8368            0.0000000000
     47357      8561  TIP3      OH2            14.2498667981        1.3971855979       75.8070375442  TIP3      8369            0.0000000000
     47358      8561  TIP3      H1             14.3521259475        0.9352728047       76.6604388095  TIP3      8369            0.0000000000
     47359      8561  TIP3      H2             15.1673369598        1.3771867215       75.4608224890  TIP3      8369            0.0000000000
     47360      8562  TIP3      OH2            17.4475694914       17.4381268303       74.4603363273  TIP3      8370            0.0000000000
     47361      8562  TIP3      H1             16.6566498629       17.3356740187       73.8868540901  TIP3      8370            0.0000000000
     47362      8562  TIP3      H2             17.3504503026       18.3900134106       74.6707209000  TIP3      8370            0.0000000000
     47363      8563  TIP3      OH2            31.9017743316       11.3200147201       64.4164437301  TIP3      8371            0.0000000000
     47364      8563  TIP3      H1             31.9047592452       12.3039718249       64.3910881063  TIP3      8371            0.0000000000
     47365      8563  TIP3      H2             31.1733523389       11.0986010771       63.8154481022  TIP3      8371            0.0000000000
     47366      8564  TIP3      OH2            30.7610573223       10.5874660647       67.9147734573  TIP3      8372            0.0000000000
     47367      8564  TIP3      H1             30.7411857256        9.9411439744       68.6360125884  TIP3      8372            0.0000000000
     47368      8564  TIP3      H2             30.4259755576       10.0759821985       67.1572209792  TIP3      8372            0.0000000000
     47369      8565  TIP3      OH2            23.1260882686       10.2576904918       69.4614081347  TIP3      8373            0.0000000000
     47370      8565  TIP3      H1             23.1988417169        9.5803479278       70.1659777001  TIP3      8373            0.0000000000
     47371      8565  TIP3      H2             23.8643320343       10.8396461688       69.6914664331  TIP3      8373            0.0000000000
     47372      8566  TIP3      OH2            34.4644730796       13.5150850455       66.2135236578  TIP3      8374            0.0000000000
     47373      8566  TIP3      H1             34.0389419087       12.8059788758       66.7035268665  TIP3      8374            0.0000000000
     47374      8566  TIP3      H2             34.4674253627       14.2352813275       66.8651899831  TIP3      8374            0.0000000000
     47375      8567  TIP3      OH2            24.0358468471       14.7088011643       67.9615337349  TIP3      8375            0.0000000000
     47376      8567  TIP3      H1             23.7276271648       13.8343748839       67.6394233035  TIP3      8375            0.0000000000
     47377      8567  TIP3      H2             24.9902236035       14.5183270232       68.0209622904  TIP3      8375            0.0000000000
     47378      8568  TIP3      OH2            20.3845853907        7.8722000125       63.4692882512  TIP3      8376            0.0000000000
     47379      8568  TIP3      H1             20.3569915044        8.8481842299       63.4154570871  TIP3      8376            0.0000000000
     47380      8568  TIP3      H2             19.9145343838        7.6310099781       62.6642578183  TIP3      8376            0.0000000000
     47381      8569  TIP3      OH2            21.6028686982       10.6746116484       66.1293740182  TIP3      8377            0.0000000000
     47382      8569  TIP3      H1             21.6219946030        9.7102142439       66.0891952198  TIP3      8377            0.0000000000
     47383      8569  TIP3      H2             22.0546354994       10.8736474626       65.2849956280  TIP3      8377            0.0000000000
     47384      8570  TIP3      OH2            31.5588917481       18.6966274667       66.4292476821  TIP3      8378            0.0000000000
     47385      8570  TIP3      H1             32.2003584619       18.0013027056       66.1467110263  TIP3      8378            0.0000000000
     47386      8570  TIP3      H2             31.3341098660       18.3562162866       67.2991964618  TIP3      8378            0.0000000000
     47387      8571  TIP3      OH2            29.1389882321       12.9868485680       68.3937492981  TIP3      8379            0.0000000000
     47388      8571  TIP3      H1             29.4703640362       12.3607041226       67.7297505826  TIP3      8379            0.0000000000
     47389      8571  TIP3      H2             29.9515325771       13.1453833392       68.9051114296  TIP3      8379            0.0000000000
     47390      8572  TIP3      OH2            32.3122183346        7.4639521142       68.6983384797  TIP3      8380            0.0000000000
     47391      8572  TIP3      H1             32.4754582487        6.5035244762       68.6909180603  TIP3      8380            0.0000000000
     47392      8572  TIP3      H2             32.2101340942        7.6081705685       67.7378654921  TIP3      8380            0.0000000000
     47393      8573  TIP3      OH2            25.3972491444        5.5601040892       65.9116871025  TIP3      8381            0.0000000000
     47394      8573  TIP3      H1             25.5026675061        6.3938054250       65.4131673891  TIP3      8381            0.0000000000
     47395      8573  TIP3      H2             25.0148759555        4.9741711580       65.2251425590  TIP3      8381            0.0000000000
     47396      8574  TIP3      OH2            33.1806545288        5.6671836172       64.3016063204  TIP3      8382            0.0000000000
     47397      8574  TIP3      H1             33.8190242735        5.3065211344       64.9648772144  TIP3      8382            0.0000000000
     47398      8574  TIP3      H2             33.7736471953        6.1925130681       63.7609302224  TIP3      8382            0.0000000000
     47399      8575  TIP3      OH2            22.0087952972        7.9064388989       66.6715784703  TIP3      8383            0.0000000000
     47400      8575  TIP3      H1             22.7190279378        7.3995908667       67.1055392683  TIP3      8383            0.0000000000
     47401      8575  TIP3      H2             22.1503674963        7.6858512854       65.7356235006  TIP3      8383            0.0000000000
     47402      8576  TIP3      OH2            27.2147948475        9.5108941605       65.9764449852  TIP3      8384            0.0000000000
     47403      8576  TIP3      H1             27.8751878536        8.9178933055       66.3744896411  TIP3      8384            0.0000000000
     47404      8576  TIP3      H2             26.6756776178        8.8689937220       65.4673405000  TIP3      8384            0.0000000000
     47405      8577  TIP3      OH2            24.3217101626        4.4442527353       69.9576817662  TIP3      8385            0.0000000000
     47406      8577  TIP3      H1             24.0412939716        5.0178841317       69.2124604439  TIP3      8385            0.0000000000
     47407      8577  TIP3      H2             23.6473500041        4.6802290513       70.6415082859  TIP3      8385            0.0000000000
     47408      8578  TIP3      OH2            31.5943520742       13.9170412396       63.4974812291  TIP3      8386            0.0000000000
     47409      8578  TIP3      H1             31.3408582566       13.6494306120       62.6065455405  TIP3      8386            0.0000000000
     47410      8578  TIP3      H2             31.2965350206       14.8536014367       63.5560230145  TIP3      8386            0.0000000000
     47411      8579  TIP3      OH2            26.8350402257       12.0875349078       70.1962013073  TIP3      8387            0.0000000000
     47412      8579  TIP3      H1             26.1323893678       12.7330918506       70.4161624690  TIP3      8387            0.0000000000
     47413      8579  TIP3      H2             27.5419459360       12.6863505429       69.9062884113  TIP3      8387            0.0000000000
     47414      8580  TIP3      OH2            34.6615175523        4.9473008981       66.3966774853  TIP3      8388            0.0000000000
     47415      8580  TIP3      H1             34.6900653014        4.1264142560       66.8962189574  TIP3      8388            0.0000000000
     47416      8580  TIP3      H2             35.4281018953        5.4113804052       66.7982564038  TIP3      8388            0.0000000000
     47417      8581  TIP3      OH2            23.8954629022        6.2964951511       67.9971202511  TIP3      8389            0.0000000000
     47418      8581  TIP3      H1             24.5201490894        6.9875677793       68.3094787617  TIP3      8389            0.0000000000
     47419      8581  TIP3      H2             24.4100161070        5.8917685272       67.2552608101  TIP3      8389            0.0000000000
     47420      8582  TIP3      OH2            25.2895233993       14.0956138452       71.0237979710  TIP3      8390            0.0000000000
     47421      8582  TIP3      H1             25.2382939427       15.0074800093       70.6770918289  TIP3      8390            0.0000000000
     47422      8582  TIP3      H2             24.4044968784       14.0147738869       71.4609514202  TIP3      8390            0.0000000000
     47423      8583  TIP3      OH2            21.3827146280       13.6931110949       61.7787569694  TIP3      8391            0.0000000000
     47424      8583  TIP3      H1             21.1037426486       14.0608917401       60.9235146874  TIP3      8391            0.0000000000
     47425      8583  TIP3      H2             21.4338805741       14.4979215813       62.3338496868  TIP3      8391            0.0000000000
     47426      8584  TIP3      OH2            34.7728920051       15.3010753162       68.6628140779  TIP3      8392            0.0000000000
     47427      8584  TIP3      H1             33.8150448095       15.5147552985       68.7060982561  TIP3      8392            0.0000000000
     47428      8584  TIP3      H2             35.1564858108       16.1458378737       68.3598425709  TIP3      8392            0.0000000000
     47429      8585  TIP3      OH2            35.0913786866        3.7900669200       69.6994201103  TIP3      8393            0.0000000000
     47430      8585  TIP3      H1             34.4010574564        4.4695161555       69.8171242493  TIP3      8393            0.0000000000
     47431      8585  TIP3      H2             35.8582947162        4.2841305795       69.3864029879  TIP3      8393            0.0000000000
     47432      8586  TIP3      OH2            28.2607863372        1.7824289220       67.4175515475  TIP3      8394            0.0000000000
     47433      8586  TIP3      H1             28.1294772977        0.8166768097       67.3487524617  TIP3      8394            0.0000000000
     47434      8586  TIP3      H2             27.3808345824        2.0822654624       67.7275506301  TIP3      8394            0.0000000000
     47435      8587  TIP3      OH2            33.1500608647       17.0891929580       65.1764406328  TIP3      8395            0.0000000000
     47436      8587  TIP3      H1             33.6370416297       16.4091466668       64.6677412515  TIP3      8395            0.0000000000
     47437      8587  TIP3      H2             33.5983763084       17.8904809612       64.8229549013  TIP3      8395            0.0000000000
     47438      8588  TIP3      OH2            34.4299321606       15.0751350522       63.6784687945  TIP3      8396            0.0000000000
     47439      8588  TIP3      H1             34.1827691083       14.3642599315       63.0671875100  TIP3      8396            0.0000000000
     47440      8588  TIP3      H2             34.4929125495       14.5687497375       64.5139889955  TIP3      8396            0.0000000000
     47441      8589  TIP3      OH2            35.8018660563       13.8201406936       72.2802278067  TIP3      8397            0.0000000000
     47442      8589  TIP3      H1             36.0805033821       13.1178407254       71.6586654276  TIP3      8397            0.0000000000
     47443      8589  TIP3      H2             36.2120649204       14.5798411126       71.8297633384  TIP3      8397            0.0000000000
     47444      8590  TIP3      OH2            30.5505769898       10.5672340900       61.9262886050  TIP3      8398            0.0000000000
     47445      8590  TIP3      H1             29.8605448230       11.1505651987       61.5648040240  TIP3      8398            0.0000000000
     47446      8590  TIP3      H2             31.2672203025       10.6619072773       61.2722101584  TIP3      8398            0.0000000000
     47447      8591  TIP3      OH2            30.6353734717        9.1397265594       58.9413622552  TIP3      8399            0.0000000000
     47448      8591  TIP3      H1             31.3519792894        9.1194484733       59.5949269406  TIP3      8399            0.0000000000
     47449      8591  TIP3      H2             30.9404838826        8.4230334235       58.3699268516  TIP3      8399            0.0000000000
     47450      8592  TIP3      OH2            33.9775402000       10.7867872805       62.8191458600  TIP3      8400            0.0000000000
     47451      8592  TIP3      H1             33.2568253913       11.0386326138       63.4404292035  TIP3      8400            0.0000000000
     47452      8592  TIP3      H2             34.4577736599       10.1469187272       63.3877998664  TIP3      8400            0.0000000000
     47453      8593  TIP3      OH2            33.9508973302        8.9620506334       71.9491878425  TIP3      8401            0.0000000000
     47454      8593  TIP3      H1             33.9035764915        9.7608699468       72.4984621565  TIP3      8401            0.0000000000
     47455      8593  TIP3      H2             33.3106539532        9.2296871003       71.2639711011  TIP3      8401            0.0000000000
     47456      8594  TIP3      OH2            25.6221622231       11.4464431575       64.7732339022  TIP3      8402            0.0000000000
     47457      8594  TIP3      H1             25.2692484671       11.0398709919       63.9622446996  TIP3      8402            0.0000000000
     47458      8594  TIP3      H2             26.2192903053       10.7449172357       65.1177013050  TIP3      8402            0.0000000000
     47459      8595  TIP3      OH2            26.9371197588       14.8254659520       67.4508247870  TIP3      8403            0.0000000000
     47460      8595  TIP3      H1             26.9315468315       14.3005934846       66.6410695329  TIP3      8403            0.0000000000
     47461      8595  TIP3      H2             27.7193274438       14.4690449479       67.9102760043  TIP3      8403            0.0000000000
     47462      8596  TIP3      OH2            25.9484094556       10.1748677336       68.4304908091  TIP3      8404            0.0000000000
     47463      8596  TIP3      H1             26.5034094916       10.2894304612       67.6363802147  TIP3      8404            0.0000000000
     47464      8596  TIP3      H2             26.3131699457       10.8549888887       69.0355792585  TIP3      8404            0.0000000000
     47465      8597  TIP3      OH2            32.2857057526       15.7770019190       69.1214016054  TIP3      8405            0.0000000000
     47466      8597  TIP3      H1             32.0886570889       16.4005698171       69.8233731646  TIP3      8405            0.0000000000
     47467      8597  TIP3      H2             32.1086466247       14.9079545064       69.5559569022  TIP3      8405            0.0000000000
     47468      8598  TIP3      OH2            26.8967040900       14.6235710460       73.1236598076  TIP3      8406            0.0000000000
     47469      8598  TIP3      H1             26.4825967608       15.3590662421       73.6190949689  TIP3      8406            0.0000000000
     47470      8598  TIP3      H2             26.2243640571       14.4194954676       72.4290133335  TIP3      8406            0.0000000000
     47471      8599  TIP3      OH2            32.8726781493        9.9622524688       60.5287979086  TIP3      8407            0.0000000000
     47472      8599  TIP3      H1             33.4276136750       10.1814375622       61.3180802231  TIP3      8407            0.0000000000
     47473      8599  TIP3      H2             33.2743951630       10.4902452741       59.8090365491  TIP3      8407            0.0000000000
     47474      8600  TIP3      OH2            23.8391989311       10.7816494942       72.2785257353  TIP3      8408            0.0000000000
     47475      8600  TIP3      H1             23.8794943948       11.4449309609       72.9933786217  TIP3      8408            0.0000000000
     47476      8600  TIP3      H2             22.9018532425       10.8692275712       72.0637450424  TIP3      8408            0.0000000000
     47477      8601  TIP3      OH2            30.5879073284       16.7072773446       63.9808952245  TIP3      8409            0.0000000000
     47478      8601  TIP3      H1             31.0176723096       17.0058573094       64.7933582730  TIP3      8409            0.0000000000
     47479      8601  TIP3      H2             30.0263885121       17.4542978570       63.7502763281  TIP3      8409            0.0000000000
     47480      8602  TIP3      OH2            25.1482475219       16.6539694137       73.8737510023  TIP3      8410            0.0000000000
     47481      8602  TIP3      H1             25.0850401582       16.5527924875       72.9089156511  TIP3      8410            0.0000000000
     47482      8602  TIP3      H2             24.2193355120       16.5186376624       74.1442453695  TIP3      8410            0.0000000000
     47483      8603  TIP3      OH2            24.6987407007       10.3683149095       62.0670394515  TIP3      8411            0.0000000000
     47484      8603  TIP3      H1             24.3099453191       11.2714011386       61.9761017420  TIP3      8411            0.0000000000
     47485      8603  TIP3      H2             23.8972816377        9.9102795840       62.4146273188  TIP3      8411            0.0000000000
     47486      8604  TIP3      OH2            20.6496206173       12.9087675520       71.3311694525  TIP3      8412            0.0000000000
     47487      8604  TIP3      H1             20.2374338223       12.8292580335       70.4505993635  TIP3      8412            0.0000000000
     47488      8604  TIP3      H2             20.7777959917       11.9502856543       71.4770000248  TIP3      8412            0.0000000000
     47489      8605  TIP3      OH2            20.4350354139       15.6708442166       68.0011643861  TIP3      8413            0.0000000000
     47490      8605  TIP3      H1             21.3862758357       15.4863183763       68.0555705792  TIP3      8413            0.0000000000
     47491      8605  TIP3      H2             20.3617310462       16.4277530603       68.5931127881  TIP3      8413            0.0000000000
     47492      8606  TIP3      OH2            29.6334234719       15.8730572085       72.6158984510  TIP3      8414            0.0000000000
     47493      8606  TIP3      H1             29.6896415964       16.7099963396       73.1349539045  TIP3      8414            0.0000000000
     47494      8606  TIP3      H2             28.7601374370       15.5121788600       72.8621117378  TIP3      8414            0.0000000000
     47495      8607  TIP3      OH2            30.0775020150       19.6347881267       62.4330243400  TIP3      8415            0.0000000000
     47496      8607  TIP3      H1             29.9911823227       19.5303532164       61.4663138991  TIP3      8415            0.0000000000
     47497      8607  TIP3      H2             30.1218297650       20.5981651623       62.5348679034  TIP3      8415            0.0000000000
     47498      8608  TIP3      OH2            23.6955983583       18.5322332742       64.2447119243  TIP3      8416            0.0000000000
     47499      8608  TIP3      H1             23.8736020179       18.0696940217       65.0953727767  TIP3      8416            0.0000000000
     47500      8608  TIP3      H2             22.8875663145       18.0692708422       63.9674201073  TIP3      8416            0.0000000000
     47501      8609  TIP3      OH2            33.1466990798       18.8378646855       59.3718598726  TIP3      8417            0.0000000000
     47502      8609  TIP3      H1             33.5783231371       18.0683872968       58.9345250200  TIP3      8417            0.0000000000
     47503      8609  TIP3      H2             33.1658071071       18.5664239341       60.3115403079  TIP3      8417            0.0000000000
     47504      8610  TIP3      OH2            32.8043985443       18.7470945208       62.1731156467  TIP3      8418            0.0000000000
     47505      8610  TIP3      H1             31.8430997824       18.8316343635       62.3434238336  TIP3      8418            0.0000000000
     47506      8610  TIP3      H2             33.0421258930       18.0030378749       62.7469335602  TIP3      8418            0.0000000000
     47507      8611  TIP3      OH2            35.3331181702        7.9742655613       74.2321183004  TIP3      8419            0.0000000000
     47508      8611  TIP3      H1             35.2909778724        8.3217413368       73.3396479338  TIP3      8419            0.0000000000
     47509      8611  TIP3      H2             35.8677199028        7.1450513883       74.0908235398  TIP3      8419            0.0000000000
     47510      8612  TIP3      OH2            22.9595555134       14.2003601516       72.2233833935  TIP3      8420            0.0000000000
     47511      8612  TIP3      H1             23.1657430291       13.8210447976       73.1025191750  TIP3      8420            0.0000000000
     47512      8612  TIP3      H2             22.0886951296       13.8132361044       72.0044538663  TIP3      8420            0.0000000000
     47513      8613  TIP3      OH2            25.6384995569        2.6706088207       68.1763180122  TIP3      8421            0.0000000000
     47514      8613  TIP3      H1             24.7352759873        2.5702546509       67.8044463006  TIP3      8421            0.0000000000
     47515      8613  TIP3      H2             25.5171250679        3.5044579466       68.6550390455  TIP3      8421            0.0000000000
     47516      8614  TIP3      OH2            30.2909909054        2.3437715192       71.5390118040  TIP3      8422            0.0000000000
     47517      8614  TIP3      H1             30.6825591697        1.9244960659       72.3270762531  TIP3      8422            0.0000000000
     47518      8614  TIP3      H2             29.3173425631        2.2285490561       71.6754956086  TIP3      8422            0.0000000000
     47519      8615  TIP3      OH2            33.5032437910        6.1570066817       72.3741298297  TIP3      8423            0.0000000000
     47520      8615  TIP3      H1             33.0179615833        5.9850751979       73.2157347046  TIP3      8423            0.0000000000
     47521      8615  TIP3      H2             33.4259501993        7.1123624618       72.2414087198  TIP3      8423            0.0000000000
     47522      8616  TIP3      OH2            34.3773774675       10.9205520235       58.3359491936  TIP3      8424            0.0000000000
     47523      8616  TIP3      H1             34.3046023769       10.7697187338       57.3659068413  TIP3      8424            0.0000000000
     47524      8616  TIP3      H2             35.1470157813       11.4891562673       58.3645790128  TIP3      8424            0.0000000000
     47525      8617  TIP3      OH2            29.9339338925        4.9364763794       58.8442931068  TIP3      8425            0.0000000000
     47526      8617  TIP3      H1             29.6125071452        4.8763161601       59.7625520092  TIP3      8425            0.0000000000
     47527      8617  TIP3      H2             29.6280176745        4.0580512561       58.5399634634  TIP3      8425            0.0000000000
     47528      8618  TIP3      OH2            25.7513632264        7.6627705911       69.4361682282  TIP3      8426            0.0000000000
     47529      8618  TIP3      H1             25.0080566373        7.6475712601       70.0665774282  TIP3      8426            0.0000000000
     47530      8618  TIP3      H2             25.6970218485        8.5682545266       69.0555112171  TIP3      8426            0.0000000000
     47531      8619  TIP3      OH2            25.7226834097        7.7715091931       64.2814961538  TIP3      8427            0.0000000000
     47532      8619  TIP3      H1             24.7693124707        7.5408964004       64.1709042159  TIP3      8427            0.0000000000
     47533      8619  TIP3      H2             26.0919035092        7.4584545451       63.4337921131  TIP3      8427            0.0000000000
     47534      8620  TIP3      OH2            31.2284061387        8.2842980781       63.0658220305  TIP3      8428            0.0000000000
     47535      8620  TIP3      H1             30.8285595340        9.1048499956       62.6962007780  TIP3      8428            0.0000000000
     47536      8620  TIP3      H2             31.9202891237        8.1145317605       62.4073069110  TIP3      8428            0.0000000000
     47537      8621  TIP3      OH2            30.2787620978        8.4965028800       74.5026006250  TIP3      8429            0.0000000000
     47538      8621  TIP3      H1             29.7802363893        7.6999757194       74.8004317455  TIP3      8429            0.0000000000
     47539      8621  TIP3      H2             31.1331170432        8.3723993062       74.9519644923  TIP3      8429            0.0000000000
     47540      8622  TIP3      OH2            32.2290417788        7.7839445565       65.9251684202  TIP3      8430            0.0000000000
     47541      8622  TIP3      H1             31.9953591327        8.3307793181       65.1563930163  TIP3      8430            0.0000000000
     47542      8622  TIP3      H2             32.3545201330        6.9266491263       65.4695839366  TIP3      8430            0.0000000000
     47543      8623  TIP3      OH2            23.3791148636        7.8964759100       71.1203827808  TIP3      8431            0.0000000000
     47544      8623  TIP3      H1             23.4514120082        8.3116258180       71.9949774586  TIP3      8431            0.0000000000
     47545      8623  TIP3      H2             22.9265961792        7.0626923612       71.3226006372  TIP3      8431            0.0000000000
     47546      8624  TIP3      OH2            26.7441785092        5.3398205653       57.9809776351  TIP3      8432            0.0000000000
     47547      8624  TIP3      H1             26.2911159980        4.8713324456       58.7142127395  TIP3      8432            0.0000000000
     47548      8624  TIP3      H2             26.0285515145        5.7111152157       57.4506656019  TIP3      8432            0.0000000000
     47549      8625  TIP3      OH2            20.0057422245        4.9730467021       65.1096361261  TIP3      8433            0.0000000000
     47550      8625  TIP3      H1             20.7108016063        5.0052817566       65.7877340950  TIP3      8433            0.0000000000
     47551      8625  TIP3      H2             20.4777454141        4.6723654556       64.3126303004  TIP3      8433            0.0000000000
     47552      8626  TIP3      OH2            21.2820903130        5.7262291247       60.4315534149  TIP3      8434            0.0000000000
     47553      8626  TIP3      H1             21.7904147213        6.3467244498       59.8834045712  TIP3      8434            0.0000000000
     47554      8626  TIP3      H2             20.6001572913        6.3431179372       60.7774515605  TIP3      8434            0.0000000000
     47555      8627  TIP3      OH2            31.4428183096        9.3412997163       70.4558587709  TIP3      8435            0.0000000000
     47556      8627  TIP3      H1             31.8358105036        8.6492789112       69.8818060507  TIP3      8435            0.0000000000
     47557      8627  TIP3      H2             30.9782788104        8.8184735735       71.1327616448  TIP3      8435            0.0000000000
     47558      8628  TIP3      OH2            28.2533098568        5.3326593211       65.3015517326  TIP3      8436            0.0000000000
     47559      8628  TIP3      H1             27.3164614818        5.3330081347       65.6004946759  TIP3      8436            0.0000000000
     47560      8628  TIP3      H2             28.7523132126        5.1572477050       66.1165836148  TIP3      8436            0.0000000000
     47561      8629  TIP3      OH2            23.0835168769        6.8812240576       64.1490769678  TIP3      8437            0.0000000000
     47562      8629  TIP3      H1             22.1750340034        7.0345222689       63.8083613717  TIP3      8437            0.0000000000
     47563      8629  TIP3      H2             23.3268619938        6.0232052805       63.7650228347  TIP3      8437            0.0000000000
     47564      8630  TIP3      OH2            26.7161363565        6.9220616116       61.7781885335  TIP3      8438            0.0000000000
     47565      8630  TIP3      H1             27.6731251597        7.0172429355       61.9628297666  TIP3      8438            0.0000000000
     47566      8630  TIP3      H2             26.5007936435        7.6244217564       61.1473020042  TIP3      8438            0.0000000000
     47567      8631  TIP3      OH2            32.5955911106        4.5340300702       68.5509675752  TIP3      8439            0.0000000000
     47568      8631  TIP3      H1             31.9267808811        4.6047793318       69.2556261455  TIP3      8439            0.0000000000
     47569      8631  TIP3      H2             32.1003225195        4.3206587711       67.7458698788  TIP3      8439            0.0000000000
     47570      8632  TIP3      OH2            25.3255753756        8.2102110280       59.3238061255  TIP3      8440            0.0000000000
     47571      8632  TIP3      H1             24.9263810322        7.6661039199       58.6212115791  TIP3      8440            0.0000000000
     47572      8632  TIP3      H2             26.2277378675        8.2937206794       58.9304349624  TIP3      8440            0.0000000000
     47573      8633  TIP3      OH2            35.7468127031       20.2799400027       74.9348470889  TIP3      8441            0.0000000000
     47574      8633  TIP3      H1             36.0848956442       20.5552331415       74.0601850204  TIP3      8441            0.0000000000
     47575      8633  TIP3      H2             36.5501046903       20.5039559261       75.4345450376  TIP3      8441            0.0000000000
     47576      8634  TIP3      OH2            23.5492685704       12.6686951300       74.4516032452  TIP3      8442            0.0000000000
     47577      8634  TIP3      H1             24.2655393371       12.9198239135       75.0618169305  TIP3      8442            0.0000000000
     47578      8634  TIP3      H2             22.7719515390       12.7531381507       75.0402949758  TIP3      8442            0.0000000000
     47579      8635  TIP3      OH2            29.5399247954        8.0816371552       67.1903370043  TIP3      8443            0.0000000000
     47580      8635  TIP3      H1             30.1460544584        7.5521585540       66.6572272123  TIP3      8443            0.0000000000
     47581      8635  TIP3      H2             29.3979538213        7.5344165947       67.9740039263  TIP3      8443            0.0000000000
     47582      8636  TIP3      OH2            24.5562636864        4.2424502993       63.6273656226  TIP3      8444            0.0000000000
     47583      8636  TIP3      H1             24.2305318358        3.3291250131       63.6071730243  TIP3      8444            0.0000000000
     47584      8636  TIP3      H2             25.3461572258        4.1660586938       63.0791043066  TIP3      8444            0.0000000000
     47585      8637  TIP3      OH2            28.1804617881        6.4084199523       69.6049390808  TIP3      8445            0.0000000000
     47586      8637  TIP3      H1             27.3572772235        6.9298079708       69.6919300328  TIP3      8445            0.0000000000
     47587      8637  TIP3      H2             28.7369472581        6.7623905714       70.3252357635  TIP3      8445            0.0000000000
     47588      8638  TIP3      OH2            28.7764433493       12.6386142210       61.3059900788  TIP3      8446            0.0000000000
     47589      8638  TIP3      H1             27.9819230980       12.1768117080       60.9652201525  TIP3      8446            0.0000000000
     47590      8638  TIP3      H2             28.5463958148       12.7566857911       62.2484214986  TIP3      8446            0.0000000000
     47591      8639  TIP3      OH2            35.6411273661       11.8557723333       70.0986348449  TIP3      8447            0.0000000000
     47592      8639  TIP3      H1             36.3666000354       11.9851725332       69.4482744759  TIP3      8447            0.0000000000
     47593      8639  TIP3      H2             34.8779193230       11.8602727904       69.4903668029  TIP3      8447            0.0000000000
     47594      8640  TIP3      OH2            32.6312780718        5.4600798547       59.4696475330  TIP3      8448            0.0000000000
     47595      8640  TIP3      H1             31.6724939488        5.5799655630       59.3292896685  TIP3      8448            0.0000000000
     47596      8640  TIP3      H2             32.9122962926        6.3212703136       59.8409170990  TIP3      8448            0.0000000000
     47597      8641  TIP3      OH2            30.2736308788       12.9031727956       72.5456464175  TIP3      8449            0.0000000000
     47598      8641  TIP3      H1             29.9074338613       12.4771549419       73.3264208881  TIP3      8449            0.0000000000
     47599      8641  TIP3      H2             30.0319055674       13.8287005556       72.6513722265  TIP3      8449            0.0000000000
     47600      8642  TIP3      OH2            33.3325322536        7.3854549427       61.0737421761  TIP3      8450            0.0000000000
     47601      8642  TIP3      H1             34.2015475975        7.2442017039       61.5050461886  TIP3      8450            0.0000000000
     47602      8642  TIP3      H2             33.4354164890        8.2241270552       60.5932305517  TIP3      8450            0.0000000000
     47603      8643  TIP3      OH2            23.9614284197       12.0691499212       67.1631351496  TIP3      8451            0.0000000000
     47604      8643  TIP3      H1             24.5296443388       11.9313420447       66.3798575064  TIP3      8451            0.0000000000
     47605      8643  TIP3      H2             23.9135313372       11.1761708945       67.5397883862  TIP3      8451            0.0000000000
     47606      8644  TIP3      OH2            30.8422534026       14.1031348908       60.3274443173  TIP3      8452            0.0000000000
     47607      8644  TIP3      H1             30.5221147892       14.9535016072       60.6962852578  TIP3      8452            0.0000000000
     47608      8644  TIP3      H2             30.1183319556       13.4850290296       60.5619211963  TIP3      8452            0.0000000000
     47609      8645  TIP3      OH2            20.7990932109       10.4586279815       72.4126652474  TIP3      8453            0.0000000000
     47610      8645  TIP3      H1             21.0784265548        9.9720543395       73.2113355282  TIP3      8453            0.0000000000
     47611      8645  TIP3      H2             20.2617911086        9.8096117846       71.9215345844  TIP3      8453            0.0000000000
     47612      8646  TIP3      OH2            27.8748054083        9.9892440335       74.5495562132  TIP3      8454            0.0000000000
     47613      8646  TIP3      H1             27.5598638739        9.6839295786       73.6868377984  TIP3      8454            0.0000000000
     47614      8646  TIP3      H2             28.8014339447        9.6733546272       74.5389791816  TIP3      8454            0.0000000000
     47615      8647  TIP3      OH2            32.5716883898       15.3375978307       72.4954554487  TIP3      8455            0.0000000000
     47616      8647  TIP3      H1             31.6482872933       15.4989877768       72.2559902830  TIP3      8455            0.0000000000
     47617      8647  TIP3      H2             32.5360579586       15.6180607055       73.4286000075  TIP3      8455            0.0000000000
     47618      8648  TIP3      OH2            33.6758208604       11.1283856811       68.3890359297  TIP3      8456            0.0000000000
     47619      8648  TIP3      H1             32.7397864402       10.9090790792       68.2487265675  TIP3      8456            0.0000000000
     47620      8648  TIP3      H2             34.1562519801       10.3923832588       67.9694897393  TIP3      8456            0.0000000000
     47621      8649  TIP3      OH2            26.2554147756       15.4898732647       64.4863788897  TIP3      8457            0.0000000000
     47622      8649  TIP3      H1             26.7552496589       16.2930103767       64.2810166417  TIP3      8457            0.0000000000
     47623      8649  TIP3      H2             25.3790224682       15.7229929681       64.1531765873  TIP3      8457            0.0000000000
     47624      8650  TIP3      OH2            21.8829855392       10.4930808885       58.8634275689  TIP3      8458            0.0000000000
     47625      8650  TIP3      H1             22.3970685507       11.1850782743       59.3100287762  TIP3      8458            0.0000000000
     47626      8650  TIP3      H2             20.9960170742       10.6709861445       59.2764035714  TIP3      8458            0.0000000000
     47627      8651  TIP3      OH2            27.6479626388       13.1474501931       64.0059836308  TIP3      8459            0.0000000000
     47628      8651  TIP3      H1             27.3478126141       14.0699058633       64.1008389791  TIP3      8459            0.0000000000
     47629      8651  TIP3      H2             26.9211810564       12.6492262119       64.4391514250  TIP3      8459            0.0000000000
     47630      8652  TIP3      OH2            28.1142054593       17.3343855767       70.4161850417  TIP3      8460            0.0000000000
     47631      8652  TIP3      H1             28.5796847523       18.1366538218       70.1301230963  TIP3      8460            0.0000000000
     47632      8652  TIP3      H2             28.7345339758       16.9885151820       71.0831037804  TIP3      8460            0.0000000000
     47633      8653  TIP3      OH2            26.3286600650       18.1354542718       63.5381505361  TIP3      8461            0.0000000000
     47634      8653  TIP3      H1             25.3657939137       18.2699688908       63.6621344563  TIP3      8461            0.0000000000
     47635      8653  TIP3      H2             26.7023882293       18.9631439445       63.8804372437  TIP3      8461            0.0000000000
     47636      8654  TIP3      OH2            31.6652336164       13.3321025885       70.0399963204  TIP3      8462            0.0000000000
     47637      8654  TIP3      H1             31.3176622772       13.1327140164       70.9354409847  TIP3      8462            0.0000000000
     47638      8654  TIP3      H2             32.2871253519       12.6089006746       69.8646756709  TIP3      8462            0.0000000000
     47639      8655  TIP3      OH2            33.9587692200       14.3833520961       59.1134741079  TIP3      8463            0.0000000000
     47640      8655  TIP3      H1             34.2820328597       13.9530192983       59.9298753671  TIP3      8463            0.0000000000
     47641      8655  TIP3      H2             33.0086208619       14.2135122398       59.2045546494  TIP3      8463            0.0000000000
     47642      8656  TIP3      OH2            34.4635696857       17.8914247476       72.5143136977  TIP3      8464            0.0000000000
     47643      8656  TIP3      H1             33.7428815803       17.4206969856       72.0412230486  TIP3      8464            0.0000000000
     47644      8656  TIP3      H2             34.6686901078       18.6062548782       71.8698405688  TIP3      8464            0.0000000000
     47645      8657  TIP3      OH2            22.5217784115        5.1690789678       71.9141520019  TIP3      8465            0.0000000000
     47646      8657  TIP3      H1             21.6141636247        5.5151964084       71.8900963913  TIP3      8465            0.0000000000
     47647      8657  TIP3      H2             22.4084492955        4.3247006124       72.3775964169  TIP3      8465            0.0000000000
     47648      8658  TIP3      OH2            34.7610070493       12.9928609095       61.3401939525  TIP3      8466            0.0000000000
     47649      8658  TIP3      H1             34.5340806837       12.2269934712       61.9139728077  TIP3      8466            0.0000000000
     47650      8658  TIP3      H2             35.6985407151       13.1136422642       61.5697094775  TIP3      8466            0.0000000000
     47651      8659  TIP3      OH2            22.1289755201       16.9579407113       70.3227345907  TIP3      8467            0.0000000000
     47652      8659  TIP3      H1             22.4434288044       16.0421389411       70.3382917866  TIP3      8467            0.0000000000
     47653      8659  TIP3      H2             22.3872572183       17.2488836935       71.2059605543  TIP3      8467            0.0000000000
     47654      8660  TIP3      OH2            28.1076981011       15.4779497396       57.6170933884  TIP3      8468            0.0000000000
     47655      8660  TIP3      H1             28.2066748977       14.7122298700       57.0282757783  TIP3      8468            0.0000000000
     47656      8660  TIP3      H2             27.6671538878       15.0484597821       58.3824229015  TIP3      8468            0.0000000000
     47657      8661  TIP3      OH2            26.8769769146       15.0100964485       60.0744326805  TIP3      8469            0.0000000000
     47658      8661  TIP3      H1             27.1501233242       14.4908049463       60.8397693506  TIP3      8469            0.0000000000
     47659      8661  TIP3      H2             26.9729478966       15.9359254822       60.3959005799  TIP3      8469            0.0000000000
     47660      8662  TIP3      OH2            23.3810460802       12.1979628904       60.5240401637  TIP3      8470            0.0000000000
     47661      8662  TIP3      H1             22.7078140691       12.6119204178       61.1189240335  TIP3      8470            0.0000000000
     47662      8662  TIP3      H2             23.9071335260       12.9922185928       60.2821437511  TIP3      8470            0.0000000000
     47663      8663  TIP3      OH2            31.2209999047        4.9343443235       70.8848892995  TIP3      8471            0.0000000000
     47664      8663  TIP3      H1             31.9720226977        4.9997086349       71.4899984014  TIP3      8471            0.0000000000
     47665      8663  TIP3      H2             30.8569705047        4.0523402175       71.0892265470  TIP3      8471            0.0000000000
     47666      8664  TIP3      OH2            32.0559386950        4.4905651567       61.9629791104  TIP3      8472            0.0000000000
     47667      8664  TIP3      H1             32.2334464712        4.9756836086       61.1357300573  TIP3      8472            0.0000000000
     47668      8664  TIP3      H2             32.6046281863        4.9621899343       62.6027665593  TIP3      8472            0.0000000000
     47669      8665  TIP3      OH2            29.6866781281       16.6791199253       60.7769827213  TIP3      8473            0.0000000000
     47670      8665  TIP3      H1             28.8640608155       17.2034023698       60.8357517421  TIP3      8473            0.0000000000
     47671      8665  TIP3      H2             30.2230005534       17.2179367992       60.1769187046  TIP3      8473            0.0000000000
     47672      8666  TIP3      OH2            29.2272005974        6.2609683647       62.7831218476  TIP3      8474            0.0000000000
     47673      8666  TIP3      H1             30.0090515028        6.8471452183       62.8277701813  TIP3      8474            0.0000000000
     47674      8666  TIP3      H2             28.9693668543        6.1385440416       63.7173899834  TIP3      8474            0.0000000000
     47675      8667  TIP3      OH2            29.8100114299        7.2933922061       71.9710452633  TIP3      8475            0.0000000000
     47676      8667  TIP3      H1             29.8887370888        7.8492837171       72.7705376860  TIP3      8475            0.0000000000
     47677      8667  TIP3      H2             30.4569288093        6.5795692291       72.0627642557  TIP3      8475            0.0000000000
     47678      8668  TIP3      OH2            30.0331708321        3.3261818537       63.6420795304  TIP3      8476            0.0000000000
     47679      8668  TIP3      H1             29.7585714349        3.9701552916       64.3135248599  TIP3      8476            0.0000000000
     47680      8668  TIP3      H2             30.7521257033        3.8551579793       63.2163037385  TIP3      8476            0.0000000000
     47681      8669  TIP3      OH2            27.0789518107       17.6929399275       60.7829994649  TIP3      8477            0.0000000000
     47682      8669  TIP3      H1             27.1783014652       18.5155760313       60.2445858411  TIP3      8477            0.0000000000
     47683      8669  TIP3      H2             26.8118636902       18.0495730287       61.6566968792  TIP3      8477            0.0000000000
     47684      8670  TIP3      OH2            25.7293849975        4.4305277140       60.3639193536  TIP3      8478            0.0000000000
     47685      8670  TIP3      H1             25.6917648775        5.3149048692       60.7709082108  TIP3      8478            0.0000000000
     47686      8670  TIP3      H2             26.6347564041        4.1763406362       60.6311731820  TIP3      8478            0.0000000000
     47687      8671  TIP3      OH2            35.8354468612        4.9260671808       72.6202878618  TIP3      8479            0.0000000000
     47688      8671  TIP3      H1             35.0012801887        5.4547291942       72.6553755401  TIP3      8479            0.0000000000
     47689      8671  TIP3      H2             36.2324074388        5.2112327265       71.7966663558  TIP3      8479            0.0000000000
     47690      8672  TIP3      OH2            34.5671006437        8.9427246499       66.8693902714  TIP3      8480            0.0000000000
     47691      8672  TIP3      H1             33.7469785751        8.5084212982       66.5571426647  TIP3      8480            0.0000000000
     47692      8672  TIP3      H2             34.9967521278        8.2298368120       67.3509373600  TIP3      8480            0.0000000000
     47693      8673  TIP3      OH2            23.9618400232       14.8423599410       59.4213864099  TIP3      8481            0.0000000000
     47694      8673  TIP3      H1             24.6133022862       15.4933665036       59.7266365536  TIP3      8481            0.0000000000
     47695      8673  TIP3      H2             24.4879174245       14.4190157886       58.7152057854  TIP3      8481            0.0000000000
     47696      8674  TIP3      OH2            22.3150740264        7.5689845259       58.5730424741  TIP3      8482            0.0000000000
     47697      8674  TIP3      H1             22.2287486202        8.5168715856       58.6749651773  TIP3      8482            0.0000000000
     47698      8674  TIP3      H2             21.4446664086        7.3139313734       58.2438591261  TIP3      8482            0.0000000000
     47699      8675  TIP3      OH2            35.6979157035       18.2302246668       68.4825629364  TIP3      8483            0.0000000000
     47700      8675  TIP3      H1             35.5426210428       18.9013146052       67.7910940932  TIP3      8483            0.0000000000
     47701      8675  TIP3      H2             36.6427334361       18.3170603100       68.6471257692  TIP3      8483            0.0000000000
     47702      8676  TIP3      OH2            23.1430201045        2.2958500779       67.2989107645  TIP3      8484            0.0000000000
     47703      8676  TIP3      H1             22.9283917583        2.3621571582       66.3399774798  TIP3      8484            0.0000000000
     47704      8676  TIP3      H2             22.6822755743        1.4808414283       67.5564876672  TIP3      8484            0.0000000000
     47705      8677  TIP3      OH2            22.0863849237       16.2896649370       63.4821074783  TIP3      8485            0.0000000000
     47706      8677  TIP3      H1             21.2196349761       16.6925191005       63.3567819491  TIP3      8485            0.0000000000
     47707      8677  TIP3      H2             22.5663298650       16.6881968506       62.7439426860  TIP3      8485            0.0000000000
     47708      8678  TIP3      OH2            21.2825771865       18.8828149636       74.7237887644  TIP3      8486            0.0000000000
     47709      8678  TIP3      H1             21.8808542264       18.6995350803       75.4775816740  TIP3      8486            0.0000000000
     47710      8678  TIP3      H2             20.8739319837       18.0172784579       74.5627294679  TIP3      8486            0.0000000000
     47711      8679  TIP3      OH2            25.9501533462       17.7652836330       76.3580350529  TIP3      8487            0.0000000000
     47712      8679  TIP3      H1             26.7389174408       17.3076972746       76.6659998787  TIP3      8487            0.0000000000
     47713      8679  TIP3      H2             25.9368080738       17.5303627090       75.4103483185  TIP3      8487            0.0000000000
     47714      8680  TIP3      OH2            30.1089965243       17.3272306588       57.7385217691  TIP3      8488            0.0000000000
     47715      8680  TIP3      H1             29.4132345835       16.6719217945       57.9676371208  TIP3      8488            0.0000000000
     47716      8680  TIP3      H2             30.8285337901       16.7252085150       57.4959694053  TIP3      8488            0.0000000000
     47717      8681  TIP3      OH2            32.5202149458       16.1816570963       75.0613746202  TIP3      8489            0.0000000000
     47718      8681  TIP3      H1             32.1657007822       15.3206431620       75.3646329318  TIP3      8489            0.0000000000
     47719      8681  TIP3      H2             33.2904642579       16.2780615735       75.6459802101  TIP3      8489            0.0000000000
     47720      8682  TIP3      OH2            34.6335068370       17.0905441540       57.9785009064  TIP3      8490            0.0000000000
     47721      8682  TIP3      H1             34.9412795541       16.2898152077       58.4293951745  TIP3      8490            0.0000000000
     47722      8682  TIP3      H2             35.3809665673       17.2717581121       57.3778835228  TIP3      8490            0.0000000000
     47723      8683  TIP3      OH2            21.1532316234       12.6264206130       75.7351648160  TIP3      8491            0.0000000000
     47724      8683  TIP3      H1             21.3916359081       11.7479189009       75.3806536482  TIP3      8491            0.0000000000
     47725      8683  TIP3      H2             20.5002811188       12.9561580945       75.0999629379  TIP3      8491            0.0000000000
     47726      8684  TIP3      OH2            25.5323319058       12.9907976513       57.7495998228  TIP3      8492            0.0000000000
     47727      8684  TIP3      H1             25.7214010674       12.2478610936       58.3328208277  TIP3      8492            0.0000000000
     47728      8684  TIP3      H2             26.2901412379       12.9091452021       57.1359215553  TIP3      8492            0.0000000000
     47729      8685  TIP3      OH2            27.9095023899       12.6446259286       75.1105583382  TIP3      8493            0.0000000000
     47730      8685  TIP3      H1             27.5820832971       12.9691197979       74.2506023046  TIP3      8493            0.0000000000
     47731      8685  TIP3      H2             27.9825291741       11.6688414180       74.9951146912  TIP3      8493            0.0000000000
     47732      8686  TIP3      OH2            30.9708380536       14.1216988382       57.5236412934  TIP3      8494            0.0000000000
     47733      8686  TIP3      H1             30.6992599416       14.2037817866       58.4515969433  TIP3      8494            0.0000000000
     47734      8686  TIP3      H2             30.7793615037       13.1644106860       57.3794410330  TIP3      8494            0.0000000000
     47735      8687  TIP3      OH2            33.5783681882       12.4776026291       72.5018991955  TIP3      8495            0.0000000000
     47736      8687  TIP3      H1             34.3715834541       13.0721967431       72.4508735669  TIP3      8495            0.0000000000
     47737      8687  TIP3      H2             32.9073965153       13.1678760754       72.5490829114  TIP3      8495            0.0000000000
     47738      8688  TIP3      OH2            22.0688805771        9.8969218128       75.1095159820  TIP3      8496            0.0000000000
     47739      8688  TIP3      H1             22.5253981631        9.0528137425       75.0079809341  TIP3      8496            0.0000000000
     47740      8688  TIP3      H2             21.9063728871        9.9062400901       76.0698332186  TIP3      8496            0.0000000000
     47741      8689  TIP3      OH2            26.7277592894       11.0199736391       60.1593814939  TIP3      8497            0.0000000000
     47742      8689  TIP3      H1             26.2728871932       10.4873547506       60.8348457370  TIP3      8497            0.0000000000
     47743      8689  TIP3      H2             27.0738506725       10.3523240019       59.5210750163  TIP3      8497            0.0000000000
     47744      8690  TIP3      OH2            26.0157310562        8.8379798628       72.4598816559  TIP3      8498            0.0000000000
     47745      8690  TIP3      H1             25.4218691004        9.5601783125       72.7174642425  TIP3      8498            0.0000000000
     47746      8690  TIP3      H2             26.4154128440        9.2058485869       71.6531181369  TIP3      8498            0.0000000000
     47747      8691  TIP3      OH2            27.7821372605        9.2654275415       58.3777140711  TIP3      8499            0.0000000000
     47748      8691  TIP3      H1             27.6693366638        9.1665456899       57.4102563437  TIP3      8499            0.0000000000
     47749      8691  TIP3      H2             28.7650913780        9.3076542554       58.4525038849  TIP3      8499            0.0000000000
     47750      8692  TIP3      OH2            31.0758429947       11.4304644359       75.8429181391  TIP3      8500            0.0000000000
     47751      8692  TIP3      H1             32.0235338484       11.3924238329       75.6584656914  TIP3      8500            0.0000000000
     47752      8692  TIP3      H2             30.9335449523       10.6388884721       76.3851225109  TIP3      8500            0.0000000000
     47753      8693  TIP3      OH2            26.4365544848        6.2289227114       73.5007549850  TIP3      8501            0.0000000000
     47754      8693  TIP3      H1             26.5403110189        5.5093834156       72.8513709499  TIP3      8501            0.0000000000
     47755      8693  TIP3      H2             26.3797681854        7.0364495533       72.9535108792  TIP3      8501            0.0000000000
     47756      8694  TIP3      OH2            26.8269032894        4.5940088769       71.0718550641  TIP3      8502            0.0000000000
     47757      8694  TIP3      H1             27.3354066167        5.0643121291       70.3672574168  TIP3      8502            0.0000000000
     47758      8694  TIP3      H2             25.9329421519        4.5216909130       70.6672187449  TIP3      8502            0.0000000000
     47759      8695  TIP3      OH2            28.3656204317       10.0903840264       71.3211460125  TIP3      8503            0.0000000000
     47760      8695  TIP3      H1             29.1172911403        9.9220341072       70.7458514139  TIP3      8503            0.0000000000
     47761      8695  TIP3      H2             28.0044344556       10.9233835286       70.9809100356  TIP3      8503            0.0000000000
     47762      8696  TIP3      OH2            32.8040097200        7.8511366626       76.3089781461  TIP3      8504            0.0000000000
     47763      8696  TIP3      H1             33.0335770657        6.9174467247       76.1816598882  TIP3      8504            0.0000000000
     47764      8696  TIP3      H2             33.6692333406        8.2759176263       76.2523137238  TIP3      8504            0.0000000000
     47765      8697  TIP3      OH2            34.1253527867       10.6887738706       74.4500733463  TIP3      8505            0.0000000000
     47766      8697  TIP3      H1             33.8301213896       11.3626549421       73.7967066242  TIP3      8505            0.0000000000
     47767      8697  TIP3      H2             35.0516713596       10.5616320094       74.2325591523  TIP3      8505            0.0000000000
     47768      8698  TIP3      OH2            24.9061851085        7.4599247373       75.4610898169  TIP3      8506            0.0000000000
     47769      8698  TIP3      H1             24.1193531443        6.9082765127       75.2653465679  TIP3      8506            0.0000000000
     47770      8698  TIP3      H2             25.5351335346        7.1036865769       74.8013820008  TIP3      8506            0.0000000000
     47771      8699  TIP3      OH2            27.6061980388        2.0289111376       71.4793052693  TIP3      8507            0.0000000000
     47772      8699  TIP3      H1             27.4351107405        2.9935433869       71.3696456776  TIP3      8507            0.0000000000
     47773      8699  TIP3      H2             26.8690588096        1.6660507978       70.9599672154  TIP3      8507            0.0000000000
     47774      8700  TIP3      OH2            28.8944236715        6.3621825471       75.0846980580  TIP3      8508            0.0000000000
     47775      8700  TIP3      H1             28.5704101245        6.1483492805       75.9824710688  TIP3      8508            0.0000000000
     47776      8700  TIP3      H2             28.1152584105        6.1696625783       74.5292171547  TIP3      8508            0.0000000000
     47777      8701  TIP3      OH2            31.5649812070        5.5119368965       74.1807578704  TIP3      8509            0.0000000000
     47778      8701  TIP3      H1             30.6055625698        5.5512407075       74.3166537640  TIP3      8509            0.0000000000
     47779      8701  TIP3      H2             31.8807381435        4.8621574172       74.8441487971  TIP3      8509            0.0000000000
     47780      8702  TIP3      OH2            33.2064593935        4.1122792031       76.1066405147  TIP3      8510            0.0000000000
     47781      8702  TIP3      H1             33.1324518716        3.1280018523       76.1118524440  TIP3      8510            0.0000000000
     47782      8702  TIP3      H2             32.9161628981        4.4078981546       76.9986067203  TIP3      8510            0.0000000000
     47783      8703  TIP3      OH2            22.9719327074        5.4070155468       75.1982384588  TIP3      8511            0.0000000000
     47784      8703  TIP3      H1             23.2151186963        4.6692541249       74.6120707426  TIP3      8511            0.0000000000
     47785      8703  TIP3      H2             22.8798022869        4.9562563651       76.0621673547  TIP3      8511            0.0000000000
     47786      8704  TIP3      OH2            27.8306964315        1.4199866627       74.1704900693  TIP3      8512            0.0000000000
     47787      8704  TIP3      H1             28.5184604578        0.7237190347       74.1417645444  TIP3      8512            0.0000000000
     47788      8704  TIP3      H2             27.7266769186        1.5780493199       73.2146135347  TIP3      8512            0.0000000000
     47789      8705  TIP3      OH2            28.1700843337        3.0205135024       76.2693934664  TIP3      8513            0.0000000000
     47790      8705  TIP3      H1             28.0180379380        2.5226490782       75.4262453075  TIP3      8513            0.0000000000
     47791      8705  TIP3      H2             27.6132459107        3.8105418182       76.1527095599  TIP3      8513            0.0000000000
     47792      8706  TIP3      OH2            27.6610869188       19.9535835012       59.4493251626  TIP3      8514            0.0000000000
     47793      8706  TIP3      H1             28.6272913339       20.0410192258       59.5193879504  TIP3      8514            0.0000000000
     47794      8706  TIP3      H2             27.5100829294       20.5576732054       58.7128292734  TIP3      8514            0.0000000000
     47795      8707  TIP3      OH2            21.2152553311       14.5001752076       58.9400939560  TIP3      8515            0.0000000000
     47796      8707  TIP3      H1             22.1820899801       14.6343942802       59.0948596915  TIP3      8515            0.0000000000
     47797      8707  TIP3      H2             21.2570700418       13.8975006323       58.1604851405  TIP3      8515            0.0000000000
     47798      8708  TIP3      OH2            19.9270691896       19.9076475456       63.9555717990  TIP3      8516            0.0000000000
     47799      8708  TIP3      H1             19.3107704311       19.4224826994       63.3538742891  TIP3      8516            0.0000000000
     47800      8708  TIP3      H2             20.3919470525       19.2071542147       64.4379969259  TIP3      8516            0.0000000000
     47801      8709  TIP3      OH2            20.7175486534       18.0808833519       65.8005563657  TIP3      8517            0.0000000000
     47802      8709  TIP3      H1             20.5501928918       17.1282700870       65.9435140825  TIP3      8517            0.0000000000
     47803      8709  TIP3      H2             21.1627932694       18.3208278442       66.6450396264  TIP3      8517            0.0000000000
     47804      8710  TIP3      OH2            36.2812150007       16.1067955686       70.9408352278  TIP3      8518            0.0000000000
     47805      8710  TIP3      H1             35.6196804412       16.5390975249       71.4988864798  TIP3      8518            0.0000000000
     47806      8710  TIP3      H2             35.7546169401       15.7405808438       70.2060619257  TIP3      8518            0.0000000000
     47807      8711  TIP3      OH2            35.3655607234        9.1103996843       64.2919167070  TIP3      8519            0.0000000000
     47808      8711  TIP3      H1             35.6208296457        8.1833096531       64.3249891981  TIP3      8519            0.0000000000
     47809      8711  TIP3      H2             35.4817889005        9.3599091943       65.2318498287  TIP3      8519            0.0000000000
     47810      8712  TIP3      OH2            20.8259264935       11.1601673360       68.4752764930  TIP3      8520            0.0000000000
     47811      8712  TIP3      H1             20.9459015957       11.0647832135       67.4895589371  TIP3      8520            0.0000000000
     47812      8712  TIP3      H2             21.7622529843       10.9637460195       68.6847692738  TIP3      8520            0.0000000000
     47813      8713  TIP3      OH2            35.9487410555        5.0533590445       57.6621581308  TIP3      8521            0.0000000000
     47814      8713  TIP3      H1             36.5366666410        4.6363465615       58.2929403282  TIP3      8521            0.0000000000
     47815      8713  TIP3      H2             35.0870840434        4.6456706021       57.8538719846  TIP3      8521            0.0000000000
     47816      8714  TIP3      OH2            35.5029325289        6.5605702850       62.4916373364  TIP3      8522            0.0000000000
     47817      8714  TIP3      H1             35.7879535804        5.7203616616       62.8953989646  TIP3      8522            0.0000000000
     47818      8714  TIP3      H2             36.3527855901        6.9100709530       62.1984418592  TIP3      8522            0.0000000000
     47819      8715  TIP3      OH2           -37.0503123853        6.3324811510       68.0990587183  TIP3      8523            0.0000000000
     47820      8715  TIP3      H1            -36.1640240897        6.6835263618       67.9565180621  TIP3      8523            0.0000000000
     47821      8715  TIP3      H2            -37.2707741787        6.9753932746       68.7943883243  TIP3      8523            0.0000000000
     47822      8716  TIP3      OH2            36.2597143525        7.9470222942       71.1349229226  TIP3      8524            0.0000000000
     47823      8716  TIP3      H1             35.3226923338        8.2120753917       71.2238557681  TIP3      8524            0.0000000000
     47824      8716  TIP3      H2             36.6195049742        8.6342417151       70.5416915550  TIP3      8524            0.0000000000
     47825      8717  TIP3      OH2            20.4989572064        6.4091677415       74.3860500634  TIP3      8525            0.0000000000
     47826      8717  TIP3      H1             21.4326888643        6.2159376610       74.6046110380  TIP3      8525            0.0000000000
     47827      8717  TIP3      H2             20.0423609297        5.5931994514       74.6917607234  TIP3      8525            0.0000000000
     47828      8718  TIP3      OH2            35.3090894764        3.6054292703       63.3525379432  TIP3      8526            0.0000000000
     47829      8718  TIP3      H1             36.2408659284        3.4293462189       63.5727319630  TIP3      8526            0.0000000000
     47830      8718  TIP3      H2             35.3266023291        3.1832744817       62.4674182403  TIP3      8526            0.0000000000
     47831      8719  TIP3      OH2            21.6907630726        4.7343815072       67.2526700708  TIP3      8527            0.0000000000
     47832      8719  TIP3      H1             22.1457837045        3.9100223071       67.5099791483  TIP3      8527            0.0000000000
     47833      8719  TIP3      H2             22.2411872949        5.4171794675       67.6534804250  TIP3      8527            0.0000000000
     47834      8720  TIP3      OH2            19.9801956295        7.7195968830       68.3078740227  TIP3      8528            0.0000000000
     47835      8720  TIP3      H1             20.5348775226        7.4760577855       67.5329480480  TIP3      8528            0.0000000000
     47836      8720  TIP3      H2             20.4479808041        8.5307611572       68.5457802170  TIP3      8528            0.0000000000
     47837      8721  TIP3      OH2            20.3477531859        3.9908674512       62.3751043828  TIP3      8529            0.0000000000
     47838      8721  TIP3      H1             19.4034993206        4.1552193125       62.2195772603  TIP3      8529            0.0000000000
     47839      8721  TIP3      H2             20.7614198290        4.4748199169       61.6428761540  TIP3      8529            0.0000000000
     47840      8722  TIP3      OH2            34.8744150115       18.7658362144       64.4072963424  TIP3      8530            0.0000000000
     47841      8722  TIP3      H1             35.5548409128       18.4225340538       63.8065860154  TIP3      8530            0.0000000000
     47842      8722  TIP3      H2             35.4092608060       19.3301857494       64.9919404540  TIP3      8530            0.0000000000
     47843      8723  TIP3      OH2            20.2881805138        2.6379114960       70.6683773743  TIP3      8531            0.0000000000
     47844      8723  TIP3      H1             19.6189933377        2.4412315328       71.3462467691  TIP3      8531            0.0000000000
     47845      8723  TIP3      H2             19.8318305317        3.3063465096       70.1192169950  TIP3      8531            0.0000000000
     47846      8724  TIP3      OH2            22.5261221537       15.8520077441       74.8295026810  TIP3      8532            0.0000000000
     47847      8724  TIP3      H1             21.6824928073       16.0616056356       74.3983885294  TIP3      8532            0.0000000000
     47848      8724  TIP3      H2             22.2542223200       15.7744446009       75.7493951787  TIP3      8532            0.0000000000
     47849      8725  TIP3      OH2            25.4272960215       16.8391108295       71.1041993428  TIP3      8533            0.0000000000
     47850      8725  TIP3      H1             25.0989112408       17.7075408928       70.8331179596  TIP3      8533            0.0000000000
     47851      8725  TIP3      H2             26.3534389074       16.9220914923       70.8011082897  TIP3      8533            0.0000000000
     47852      8726  TIP3      OH2            29.7459247991       18.2513501702       74.0135307297  TIP3      8534            0.0000000000
     47853      8726  TIP3      H1             29.8819844356       17.9150752121       74.9294353236  TIP3      8534            0.0000000000
     47854      8726  TIP3      H2             30.6461970363       18.5615544258       73.7775081408  TIP3      8534            0.0000000000
     47855      8727  TIP3      OH2            32.0532913983       19.5198752141       73.3238276111  TIP3      8535            0.0000000000
     47856      8727  TIP3      H1             32.7981883358       18.9512285951       73.0828990295  TIP3      8535            0.0000000000
     47857      8727  TIP3      H2             32.4346284577       19.9813228960       74.0941713538  TIP3      8535            0.0000000000
     47858      8728  TIP3      OH2            22.8536826267       20.0732705021       71.1013250063  TIP3      8536            0.0000000000
     47859      8728  TIP3      H1             22.1274343966       20.5855012204       70.7186420018  TIP3      8536            0.0000000000
     47860      8728  TIP3      H2             22.5432116468       19.8800891971       71.9977224913  TIP3      8536            0.0000000000
     47861      8729  TIP3      OH2            25.3207403631       19.6556207120       70.1720133856  TIP3      8537            0.0000000000
     47862      8729  TIP3      H1             24.4294009978       19.8044769056       70.5686226031  TIP3      8537            0.0000000000
     47863      8729  TIP3      H2             25.2585597020       20.2380052148       69.3999131260  TIP3      8537            0.0000000000
     47864      8730  TIP3      OH2            29.9894554253       19.5381572418       69.3601271307  TIP3      8538            0.0000000000
     47865      8730  TIP3      H1             29.5716765633       20.1120775991       68.7069824783  TIP3      8538            0.0000000000
     47866      8730  TIP3      H2             30.1591133703       20.1833483405       70.0812330425  TIP3      8538            0.0000000000
     47867      8731  TIP3      OH2            32.3139845703       18.3694790890       70.3767799857  TIP3      8539            0.0000000000
     47868      8731  TIP3      H1             31.4581692241       18.6397128484       70.0066157125  TIP3      8539            0.0000000000
     47869      8731  TIP3      H2             32.7743432193       19.2254556206       70.3029333221  TIP3      8539            0.0000000000
     47870      8732  TIP3      OH2            34.7602384486       19.9413754558       70.5835555230  TIP3      8540            0.0000000000
     47871      8732  TIP3      H1             34.7590944916       20.8916610216       70.3692444172  TIP3      8540            0.0000000000
     47872      8732  TIP3      H2             35.1032931707       19.5707711659       69.7483868729  TIP3      8540            0.0000000000
     47873      8733  TIP3      OH2            22.2694679085       18.6908543305       68.0147685638  TIP3      8541            0.0000000000
     47874      8733  TIP3      H1             22.2427165307       18.2688991277       68.9043494410  TIP3      8541            0.0000000000
     47875      8733  TIP3      H2             23.1263715820       18.3550256390       67.6614572885  TIP3      8541            0.0000000000
     47876      8734  TIP3      OH2            24.3600418286       17.4479273131       66.7009305387  TIP3      8542            0.0000000000
     47877      8734  TIP3      H1             24.2217747691       16.5084067453       66.9199825186  TIP3      8542            0.0000000000
     47878      8734  TIP3      H2             25.2266929423       17.5980407703       67.1385507313  TIP3      8542            0.0000000000
     47879      8735  TIP3      OH2            26.9765511783       17.9379211056       67.5585834285  TIP3      8543            0.0000000000
     47880      8735  TIP3      H1             27.1379078186       17.0110940660       67.3034647214  TIP3      8543            0.0000000000
     47881      8735  TIP3      H2             27.0306942414       17.8757739292       68.5246819256  TIP3      8543            0.0000000000
     47882      8736  TIP3      OH2            30.4238084583        3.5709810451       66.7131788922  TIP3      8544            0.0000000000
     47883      8736  TIP3      H1             29.7606729122        2.9206658735       66.9940472501  TIP3      8544            0.0000000000
     47884      8736  TIP3      H2             30.9913904017        3.0450943448       66.1341952559  TIP3      8544            0.0000000000
     47885      8737  TIP3      OH2            35.5903484723        1.6075750847       66.7888792872  TIP3      8545            0.0000000000
     47886      8737  TIP3      H1             36.1682648519        2.2321276267       66.3422528033  TIP3      8545            0.0000000000
     47887      8737  TIP3      H2             34.6985416460        1.9658549985       66.5731400729  TIP3      8545            0.0000000000
     47888      8738  TIP3      OH2            22.7938816957        2.1822407962       64.5896736038  TIP3      8546            0.0000000000
     47889      8738  TIP3      H1             22.0202132679        2.0231435191       64.0156671595  TIP3      8546            0.0000000000
     47890      8738  TIP3      H2             23.2902803645        1.3519917286       64.4730987365  TIP3      8546            0.0000000000
     47891      8739  TIP3      OH2            21.5813803957        1.9470908544       60.2817723746  TIP3      8547            0.0000000000
     47892      8739  TIP3      H1             22.0704043154        2.6029929816       59.7502427358  TIP3      8547            0.0000000000
     47893      8739  TIP3      H2             21.0142487314        2.5181482355       60.8212789665  TIP3      8547            0.0000000000
     47894      8740  TIP3      OH2            27.2843376944        2.1134386625       64.3451504144  TIP3      8548            0.0000000000
     47895      8740  TIP3      H1             28.1832585584        2.4789636933       64.2690585863  TIP3      8548            0.0000000000
     47896      8740  TIP3      H2             27.2522199722        1.9028251219       65.2765955996  TIP3      8548            0.0000000000
     47897      8741  TIP3      OH2            33.0207322847        2.0953943356       65.9720052432  TIP3      8549            0.0000000000
     47898      8741  TIP3      H1             32.9637149845        2.2779014503       65.0258346376  TIP3      8549            0.0000000000
     47899      8741  TIP3      H2             32.5880634667        1.2143583416       66.0832250109  TIP3      8549            0.0000000000
     47900      8742  TIP3      OH2            34.2278169472        2.0814936245       61.5366488113  TIP3      8550            0.0000000000
     47901      8742  TIP3      H1             33.5295002531        2.7491824631       61.4915308887  TIP3      8550            0.0000000000
     47902      8742  TIP3      H2             33.7632537685        1.2841378808       61.8628284328  TIP3      8550            0.0000000000
     47903      8743  TIP3      OH2            21.4629051566       17.8995938251       61.3484284503  TIP3      8551            0.0000000000
     47904      8743  TIP3      H1             20.8507501326       17.8769894523       60.5878383424  TIP3      8551            0.0000000000
     47905      8743  TIP3      H2             21.5198238924       18.8614092142       61.4479577415  TIP3      8551            0.0000000000
     47906      8744  TIP3      OH2            23.4174804768        3.9227074701       58.7870839583  TIP3      8552            0.0000000000
     47907      8744  TIP3      H1             23.9320279813        3.2835631521       58.2671232861  TIP3      8552            0.0000000000
     47908      8744  TIP3      H2             24.0872499113        4.1957646701       59.4374730361  TIP3      8552            0.0000000000
     47909      8745  TIP3      OH2            28.4365841894        4.1355885558       61.1951603216  TIP3      8553            0.0000000000
     47910      8745  TIP3      H1             28.6857614235        3.5605223553       61.9382731654  TIP3      8553            0.0000000000
     47911      8745  TIP3      H2             28.5079845762        5.0019108843       61.6526858615  TIP3      8553            0.0000000000
     47912      8746  TIP3      OH2            30.3674259736       19.1972553000       59.6358618189  TIP3      8554            0.0000000000
     47913      8746  TIP3      H1             31.2856287785       19.4310668931       59.4129784926  TIP3      8554            0.0000000000
     47914      8746  TIP3      H2             30.1495729490       18.6818481177       58.8328616198  TIP3      8554            0.0000000000
     47915      8747  TIP3      OH2            22.6901180741        2.7256123384       73.9898378694  TIP3      8555            0.0000000000
     47916      8747  TIP3      H1             22.3035802718        1.9365158333       74.4172799053  TIP3      8555            0.0000000000
     47917      8747  TIP3      H2             23.5993294061        2.6912650005       74.3741846738  TIP3      8555            0.0000000000
     47918      8748  TIP3      OH2            24.7083390950        2.1226605558       75.6301187149  TIP3      8556            0.0000000000
     47919      8748  TIP3      H1             25.5914709841        1.7671386618       75.4063139712  TIP3      8556            0.0000000000
     47920      8748  TIP3      H2             24.3196280092        1.3313781793       76.0614155289  TIP3      8556            0.0000000000
     47921      8749  TIP3      OH2            23.2903329548       18.8798794581       58.2555048234  TIP3      8557            0.0000000000
     47922      8749  TIP3      H1             23.0357584513       19.1451653647       59.1477774624  TIP3      8557            0.0000000000
     47923      8749  TIP3      H2             24.0764388576       18.3203684414       58.4076983234  TIP3      8557            0.0000000000
     47924      8750  TIP3      OH2            33.1003935449        1.5012399069       75.6724034950  TIP3      8558            0.0000000000
     47925      8750  TIP3      H1             33.1518566913        1.0035393500       76.5362526471  TIP3      8558            0.0000000000
     47926      8750  TIP3      H2             34.0437816953        1.4131219420       75.4194054214  TIP3      8558            0.0000000000
     47927      8751  TIP3      OH2            36.1077670398       17.3284676865       74.5581430928  TIP3      8559            0.0000000000
     47928      8751  TIP3      H1             35.4477886129       17.2775031605       73.8374331199  TIP3      8559            0.0000000000
     47929      8751  TIP3      H2             36.1340024711       18.3104330485       74.6474849716  TIP3      8559            0.0000000000
     47930      8752  TIP3      OH2           -24.6694886066       30.1649994477       64.4027189570  TIP3      8560            0.0000000000
     47931      8752  TIP3      H1            -24.6853372464       31.1502936312       64.3953016723  TIP3      8560            0.0000000000
     47932      8752  TIP3      H2            -25.4025575337       29.9484548904       63.8073419818  TIP3      8560            0.0000000000
     47933      8753  TIP3      OH2           -25.8129628238       29.4403638437       67.9159852071  TIP3      8561            0.0000000000
     47934      8753  TIP3      H1            -25.8236372736       28.7956334105       68.6352380672  TIP3      8561            0.0000000000
     47935      8753  TIP3      H2            -26.1606511470       28.9330420396       67.1640881571  TIP3      8561            0.0000000000
     47936      8754  TIP3      OH2           -33.4049186361       29.1101324497       69.4343014801  TIP3      8562            0.0000000000
     47937      8754  TIP3      H1            -33.3467237101       28.4380736851       70.1472285505  TIP3      8562            0.0000000000
     47938      8754  TIP3      H2            -32.7035881170       29.7156956121       69.7107671019  TIP3      8562            0.0000000000
     47939      8755  TIP3      OH2           -22.1265066646       32.3807327004       66.2139536441  TIP3      8563            0.0000000000
     47940      8755  TIP3      H1            -22.5468879447       31.6675263987       66.7015702396  TIP3      8563            0.0000000000
     47941      8755  TIP3      H2            -22.0861239163       33.0998171427       66.8716398851  TIP3      8563            0.0000000000
     47942      8756  TIP3      OH2           -32.5237458059       33.5606115412       68.0188946142  TIP3      8564            0.0000000000
     47943      8756  TIP3      H1            -32.8616628046       32.7207658258       67.6512498658  TIP3      8564            0.0000000000
     47944      8756  TIP3      H2            -31.5678756062       33.3805114894       67.9968424917  TIP3      8564            0.0000000000
     47945      8757  TIP3      OH2           -35.6219090575       27.1215023486       63.0436594075  TIP3      8565            0.0000000000
     47946      8757  TIP3      H1            -36.0665174155       27.9177524262       63.4195021956  TIP3      8565            0.0000000000
     47947      8757  TIP3      H2            -36.4136362729       26.5883956439       63.0419132291  TIP3      8565            0.0000000000
     47948      8758  TIP3      OH2           -35.2114567274       29.2764400191       65.5627066263  TIP3      8566            0.0000000000
     47949      8758  TIP3      H1            -34.9122990994       28.5190101220       66.0865118342  TIP3      8566            0.0000000000
     47950      8758  TIP3      H2            -34.4772539283       29.4549429269       64.9596694922  TIP3      8566            0.0000000000
     47951      8759  TIP3      OH2           -27.4518018283       31.8194674837       68.3981992579  TIP3      8567            0.0000000000
     47952      8759  TIP3      H1            -27.0974869698       31.2143956850       67.7307359172  TIP3      8567            0.0000000000
     47953      8759  TIP3      H2            -26.6369296719       32.0198755339       68.8945855665  TIP3      8567            0.0000000000
     47954      8760  TIP3      OH2           -18.8424417450       23.5091053459       69.1114770379  TIP3      8568            0.0000000000
     47955      8760  TIP3      H1            -18.6621021986       24.0935587730       69.8792359952  TIP3      8568            0.0000000000
     47956      8760  TIP3      H2            -18.2704785730       23.9258753068       68.4510283373  TIP3      8568            0.0000000000
     47957      8761  TIP3      OH2           -24.2685977835       26.3138915464       68.7033788468  TIP3      8569            0.0000000000
     47958      8761  TIP3      H1            -24.1005608636       25.3550709520       68.7082298459  TIP3      8569            0.0000000000
     47959      8761  TIP3      H2            -24.3711250746       26.4539956096       67.7421818379  TIP3      8569            0.0000000000
     47960      8762  TIP3      OH2           -31.1523179581       24.4046440746       65.9254851863  TIP3      8570            0.0000000000
     47961      8762  TIP3      H1            -31.0372548408       25.2325555585       65.4242111391  TIP3      8570            0.0000000000
     47962      8762  TIP3      H2            -31.5345411180       23.8274018899       65.2300429039  TIP3      8570            0.0000000000
     47963      8763  TIP3      OH2           -23.4178138424       24.4788434975       64.2893086516  TIP3      8571            0.0000000000
     47964      8763  TIP3      H1            -22.7668301806       24.1660898391       64.9593587612  TIP3      8571            0.0000000000
     47965      8763  TIP3      H2            -22.8537365866       25.0600129116       63.7582897235  TIP3      8571            0.0000000000
     47966      8764  TIP3      OH2           -34.5636488076       26.7276897655       66.5943878410  TIP3      8572            0.0000000000
     47967      8764  TIP3      H1            -33.8355837758       26.2618038857       67.0574325837  TIP3      8572            0.0000000000
     47968      8764  TIP3      H2            -34.3819702237       26.4519928155       65.6862169191  TIP3      8572            0.0000000000
     47969      8765  TIP3      OH2           -29.3778726072       28.3680626682       65.9723392556  TIP3      8573            0.0000000000
     47970      8765  TIP3      H1            -28.7015522105       27.7889214246       66.3663328555  TIP3      8573            0.0000000000
     47971      8765  TIP3      H2            -29.8879628169       27.7112358333       65.4603456334  TIP3      8573            0.0000000000
     47972      8766  TIP3      OH2           -18.3977639761       24.9085755376       71.3931872384  TIP3      8574            0.0000000000
     47973      8766  TIP3      H1            -19.0016218255       25.6766021872       71.2807186682  TIP3      8574            0.0000000000
     47974      8766  TIP3      H2            -18.3643598924       24.8302504528       72.3543605608  TIP3      8574            0.0000000000
     47975      8767  TIP3      OH2           -32.2032569970       23.3038102011       69.9518860453  TIP3      8575            0.0000000000
     47976      8767  TIP3      H1            -32.5141294319       23.8720895715       69.2161298960  TIP3      8575            0.0000000000
     47977      8767  TIP3      H2            -32.8879701546       23.5243037623       70.6329859076  TIP3      8575            0.0000000000
     47978      8768  TIP3      OH2           -24.9750173296       32.7549056885       63.5037879829  TIP3      8576            0.0000000000
     47979      8768  TIP3      H1            -25.2092194975       32.5208148853       62.5992111668  TIP3      8576            0.0000000000
     47980      8768  TIP3      H2            -25.2608733745       33.6899842205       63.5702527127  TIP3      8576            0.0000000000
     47981      8769  TIP3      OH2           -29.7099925141       30.9246631549       70.2083172184  TIP3      8577            0.0000000000
     47982      8769  TIP3      H1            -30.4251209022       31.5639441624       70.4208513477  TIP3      8577            0.0000000000
     47983      8769  TIP3      H2            -29.0098809289       31.5263932694       69.9094885255  TIP3      8577            0.0000000000
     47984      8770  TIP3      OH2           -21.6040529790       23.8305507470       66.2807711954  TIP3      8578            0.0000000000
     47985      8770  TIP3      H1            -21.8258629779       23.0612591765       66.8131296379  TIP3      8578            0.0000000000
     47986      8770  TIP3      H2            -20.9342005467       24.2653935625       66.8356035816  TIP3      8578            0.0000000000
     47987      8771  TIP3      OH2           -32.6988595656       25.1399482931       67.9917520120  TIP3      8579            0.0000000000
     47988      8771  TIP3      H1            -32.0816186627       25.8369677568       68.3161442902  TIP3      8579            0.0000000000
     47989      8771  TIP3      H2            -32.1532518500       24.7525473603       67.2576215615  TIP3      8579            0.0000000000
     47990      8772  TIP3      OH2           -31.2768292610       32.9315805388       70.9875084002  TIP3      8580            0.0000000000
     47991      8772  TIP3      H1            -31.3385121628       33.8441774676       70.6557299569  TIP3      8580            0.0000000000
     47992      8772  TIP3      H2            -32.1619832985       32.8473023127       71.4213144563  TIP3      8580            0.0000000000
     47993      8773  TIP3      OH2           -35.2287116094       32.6217495232       61.7782850352  TIP3      8581            0.0000000000
     47994      8773  TIP3      H1            -35.4567132261       32.9531377137       60.8950897087  TIP3      8581            0.0000000000
     47995      8773  TIP3      H2            -35.1219490695       33.4360209039       62.3071846367  TIP3      8581            0.0000000000
     47996      8774  TIP3      OH2           -21.5932515291       34.2447179788       68.5705391771  TIP3      8582            0.0000000000
     47997      8774  TIP3      H1            -22.5619768772       34.3344345037       68.7296828392  TIP3      8582            0.0000000000
     47998      8774  TIP3      H2            -21.3013109968       35.1531027404       68.3776816599  TIP3      8582            0.0000000000
     47999      8775  TIP3      OH2           -21.2730075468       22.5140388531       69.9568373677  TIP3      8583            0.0000000000
     48000      8775  TIP3      H1            -21.9971059478       23.1480464125       69.8645966524  TIP3      8583            0.0000000000
     48001      8775  TIP3      H2            -20.5592749680       22.9327919822       69.4350427100  TIP3      8583            0.0000000000
     48002      8776  TIP3      OH2           -28.3046784299       20.6421064634       67.4172178852  TIP3      8584            0.0000000000
     48003      8776  TIP3      H1            -28.4375132233       19.6769538767       67.3471536384  TIP3      8584            0.0000000000
     48004      8776  TIP3      H2            -29.1848697290       20.9408774220       67.7288816728  TIP3      8584            0.0000000000
     48005      8777  TIP3      OH2           -23.3041466602       35.7089259081       64.9771676757  TIP3      8585            0.0000000000
     48006      8777  TIP3      H1            -22.7379333971       35.0951076087       64.4711746765  TIP3      8585            0.0000000000
     48007      8777  TIP3      H2            -22.9044183872       36.5401826875       64.7349512717  TIP3      8585            0.0000000000
     48008      8778  TIP3      OH2           -22.0843925643       33.8438910966       63.6670999329  TIP3      8586            0.0000000000
     48009      8778  TIP3      H1            -22.4424510490       33.1836297033       63.0664487727  TIP3      8586            0.0000000000
     48010      8778  TIP3      H2            -22.0901424541       33.3924921159       64.5333105821  TIP3      8586            0.0000000000
     48011      8779  TIP3      OH2           -20.2924946995       32.3562370068       72.0589069138  TIP3      8587            0.0000000000
     48012      8779  TIP3      H1            -20.3505290953       31.8235715013       71.2599891794  TIP3      8587            0.0000000000
     48013      8779  TIP3      H2            -20.3475110941       33.2932926524       71.7893605751  TIP3      8587            0.0000000000
     48014      8780  TIP3      OH2           -26.0089286777       29.4213041920       61.9297473720  TIP3      8588            0.0000000000
     48015      8780  TIP3      H1            -26.7040908952       30.0016092786       61.5716951433  TIP3      8588            0.0000000000
     48016      8780  TIP3      H2            -25.2992984126       29.5211742929       61.2686004454  TIP3      8588            0.0000000000
     48017      8781  TIP3      OH2           -25.9283604183       27.9963547583       58.9410234712  TIP3      8589            0.0000000000
     48018      8781  TIP3      H1            -25.2234606070       27.9775415904       59.6070478356  TIP3      8589            0.0000000000
     48019      8781  TIP3      H2            -25.6223857074       27.2804079373       58.3722615191  TIP3      8589            0.0000000000
     48020      8782  TIP3      OH2           -18.6119383881       28.8466162242       70.2141164196  TIP3      8590            0.0000000000
     48021      8782  TIP3      H1            -19.2775887122       29.5660759928       70.2469021644  TIP3      8590            0.0000000000
     48022      8782  TIP3      H2            -18.1232402678       29.0836931532       69.4055865940  TIP3      8590            0.0000000000
     48023      8783  TIP3      OH2           -22.5535151664       29.6340779022       62.8540347967  TIP3      8591            0.0000000000
     48024      8783  TIP3      H1            -23.3046325959       29.8764194486       63.4493748408  TIP3      8591            0.0000000000
     48025      8783  TIP3      H2            -22.0856615726       28.9584032757       63.3758763940  TIP3      8591            0.0000000000
     48026      8784  TIP3      OH2           -22.6279240538       27.8188764267       71.9814577743  TIP3      8592            0.0000000000
     48027      8784  TIP3      H1            -22.6243505075       28.6432510532       72.4953935541  TIP3      8592            0.0000000000
     48028      8784  TIP3      H2            -23.2627363751       28.0928496254       71.2865572024  TIP3      8592            0.0000000000
     48029      8785  TIP3      OH2           -30.9290510417       30.3071144134       64.7730164921  TIP3      8593            0.0000000000
     48030      8785  TIP3      H1            -31.2827167486       29.9043989531       63.9427400998  TIP3      8593            0.0000000000
     48031      8785  TIP3      H2            -30.3276751349       29.6042587353       65.1042538020  TIP3      8593            0.0000000000
     48032      8786  TIP3      OH2           -29.6235230128       33.6977964076       67.4369405035  TIP3      8594            0.0000000000
     48033      8786  TIP3      H1            -29.6234134449       33.1527509971       66.6420907924  TIP3      8594            0.0000000000
     48034      8786  TIP3      H2            -28.8564167109       33.3327761702       67.9180109755  TIP3      8594            0.0000000000
     48035      8787  TIP3      OH2           -30.5907543021       29.0382034417       68.4312409774  TIP3      8595            0.0000000000
     48036      8787  TIP3      H1            -30.0573731549       29.1498036039       67.6229829553  TIP3      8595            0.0000000000
     48037      8787  TIP3      H2            -30.2292235121       29.7186974835       69.0431003804  TIP3      8595            0.0000000000
     48038      8788  TIP3      OH2           -24.2028229224       34.6107118922       69.1344757917  TIP3      8596            0.0000000000
     48039      8788  TIP3      H1            -24.5155898998       35.2350336520       69.7820887890  TIP3      8596            0.0000000000
     48040      8788  TIP3      H2            -24.4533526284       33.7558185883       69.5623174910  TIP3      8596            0.0000000000
     48041      8789  TIP3      OH2           -29.6880489547       33.4670785736       73.1310579374  TIP3      8597            0.0000000000
     48042      8789  TIP3      H1            -30.1063377809       34.2231700251       73.6037085382  TIP3      8597            0.0000000000
     48043      8789  TIP3      H2            -30.3417164441       33.2486088986       72.4212792177  TIP3      8597            0.0000000000
     48044      8790  TIP3      OH2           -23.6873924447       28.8388013540       60.5176289337  TIP3      8598            0.0000000000
     48045      8790  TIP3      H1            -23.1298678062       29.0070823943       61.3171927622  TIP3      8598            0.0000000000
     48046      8790  TIP3      H2            -23.2337313509       29.3280869449       59.7947833644  TIP3      8598            0.0000000000
     48047      8791  TIP3      OH2           -32.7304445124       29.6470997384       72.3087994092  TIP3      8599            0.0000000000
     48048      8791  TIP3      H1            -32.6818614834       30.3294150903       72.9998774247  TIP3      8599            0.0000000000
     48049      8791  TIP3      H2            -33.6702542438       29.7339606247       72.0766796036  TIP3      8599            0.0000000000
     48050      8792  TIP3      OH2           -26.0165446411       35.5298539530       63.9987851648  TIP3      8600            0.0000000000
     48051      8792  TIP3      H1            -25.5213029663       35.8505038636       64.7604407586  TIP3      8600            0.0000000000
     48052      8792  TIP3      H2            -26.5250367733       36.3009438595       63.7282185076  TIP3      8600            0.0000000000
     48053      8793  TIP3      OH2           -31.4439158749       35.4299318567       73.8544407706  TIP3      8601            0.0000000000
     48054      8793  TIP3      H1            -31.5268402488       35.3986480360       72.8801648587  TIP3      8601            0.0000000000
     48055      8793  TIP3      H2            -32.3833474984       35.3562873670       74.1198153161  TIP3      8601            0.0000000000
     48056      8794  TIP3      OH2           -19.9605703432       20.5705414721       60.4232113566  TIP3      8602            0.0000000000
     48057      8794  TIP3      H1            -20.9073943472       20.6856404064       60.6625493858  TIP3      8602            0.0000000000
     48058      8794  TIP3      H2            -19.7581806740       21.4107512879       59.9783819586  TIP3      8602            0.0000000000
     48059      8795  TIP3      OH2           -31.9675561855       29.3103178511       62.3979966257  TIP3      8603            0.0000000000
     48060      8795  TIP3      H1            -32.2533976411       30.0925560998       61.8831603618  TIP3      8603            0.0000000000
     48061      8795  TIP3      H2            -32.6225456400       28.6493843903       62.1617906640  TIP3      8603            0.0000000000
     48062      8796  TIP3      OH2           -18.8026141378       34.8919276156       58.7626364734  TIP3      8604            0.0000000000
     48063      8796  TIP3      H1            -18.7165175012       35.8508778776       58.9193299703  TIP3      8604            0.0000000000
     48064      8796  TIP3      H2            -17.8696606018       34.6144885082       58.7813621653  TIP3      8604            0.0000000000
     48065      8797  TIP3      OH2           -35.2922508175       31.6107393152       71.0365269552  TIP3      8605            0.0000000000
     48066      8797  TIP3      H1            -36.0580060040       31.7356197780       70.4357917254  TIP3      8605            0.0000000000
     48067      8797  TIP3      H2            -35.6712208714       30.8264569103       71.4942595448  TIP3      8605            0.0000000000
     48068      8798  TIP3      OH2           -35.8367610995       34.6843492278       67.8295643849  TIP3      8606            0.0000000000
     48069      8798  TIP3      H1            -34.9853623348       34.3508572790       68.1018041154  TIP3      8606            0.0000000000
     48070      8798  TIP3      H2            -36.0706079622       35.2562589784       68.5687664678  TIP3      8606            0.0000000000
     48071      8799  TIP3      OH2           -17.9058724649       35.1758580552       73.8147202453  TIP3      8607            0.0000000000
     48072      8799  TIP3      H1            -18.0465278501       34.2245290640       73.6974451368  TIP3      8607            0.0000000000
     48073      8799  TIP3      H2            -18.8018480353       35.4441898263       74.1331074374  TIP3      8607            0.0000000000
     48074      8800  TIP3      OH2           -26.9920416367       34.7602711283       72.5864550761  TIP3      8608            0.0000000000
     48075      8800  TIP3      H1            -26.8252179759       35.5304261402       73.1393264811  TIP3      8608            0.0000000000
     48076      8800  TIP3      H2            -27.8163196332       34.3481487886       72.9008146150  TIP3      8608            0.0000000000
     48077      8801  TIP3      OH2           -20.7383326656       26.6574863772       74.1861454377  TIP3      8609            0.0000000000
     48078      8801  TIP3      H1            -21.2312886639       27.1078926377       73.4820578999  TIP3      8609            0.0000000000
     48079      8801  TIP3      H2            -20.7670417248       25.7318260410       73.9047024504  TIP3      8609            0.0000000000
     48080      8802  TIP3      OH2           -33.5614981215       33.1293866738       72.2891200425  TIP3      8610            0.0000000000
     48081      8802  TIP3      H1            -33.4077968696       32.6894393165       73.1459699703  TIP3      8610            0.0000000000
     48082      8802  TIP3      H2            -34.4014836190       32.7143563026       71.9875087978  TIP3      8610            0.0000000000
     48083      8803  TIP3      OH2           -30.9165834037       21.5494240129       68.1732232413  TIP3      8611            0.0000000000
     48084      8803  TIP3      H1            -31.8185654900       21.4253406787       67.8017742795  TIP3      8611            0.0000000000
     48085      8803  TIP3      H2            -31.0572372302       22.3749277921       68.6650622756  TIP3      8611            0.0000000000
     48086      8804  TIP3      OH2           -26.2805317623       21.2042276850       71.5324560564  TIP3      8612            0.0000000000
     48087      8804  TIP3      H1            -25.8886267485       20.7833575730       72.3207212208  TIP3      8612            0.0000000000
     48088      8804  TIP3      H2            -27.2518175093       21.0853971362       71.6752702188  TIP3      8612            0.0000000000
     48089      8805  TIP3      OH2           -22.9899996965       25.0590011481       72.4420146488  TIP3      8613            0.0000000000
     48090      8805  TIP3      H1            -23.5598208808       24.8409287886       73.2190889765  TIP3      8613            0.0000000000
     48091      8805  TIP3      H2            -23.1793377914       25.9825538095       72.2091471221  TIP3      8613            0.0000000000
     48092      8806  TIP3      OH2           -22.2293220841       29.8601536700       58.3373143953  TIP3      8614            0.0000000000
     48093      8806  TIP3      H1            -22.2576405967       29.6747502356       57.3681050905  TIP3      8614            0.0000000000
     48094      8806  TIP3      H2            -21.3765509177       30.3144947023       58.3861946086  TIP3      8614            0.0000000000
     48095      8807  TIP3      OH2           -26.6390466771       23.7931459580       58.8440009459  TIP3      8615            0.0000000000
     48096      8807  TIP3      H1            -26.9618200515       23.7299299830       59.7608532295  TIP3      8615            0.0000000000
     48097      8807  TIP3      H2            -26.9477773398       22.9163648144       58.5374813607  TIP3      8615            0.0000000000
     48098      8808  TIP3      OH2           -30.8374674975       26.5137915226       69.4228576138  TIP3      8616            0.0000000000
     48099      8808  TIP3      H1            -31.5636501481       26.5124642705       70.0765520432  TIP3      8616            0.0000000000
     48100      8808  TIP3      H2            -30.8568134512       27.4257625608       69.0576119485  TIP3      8616            0.0000000000
     48101      8809  TIP3      OH2           -30.8408993693       26.6364575555       64.2904658762  TIP3      8617            0.0000000000
     48102      8809  TIP3      H1            -31.7806160595       26.3889142138       64.1511706083  TIP3      8617            0.0000000000
     48103      8809  TIP3      H2            -30.4678987506       26.3366158911       63.4399166432  TIP3      8617            0.0000000000
     48104      8810  TIP3      OH2           -25.3430426902       27.1333879596       63.0700007542  TIP3      8618            0.0000000000
     48105      8810  TIP3      H1            -25.7364404961       27.9571528652       62.6982885645  TIP3      8618            0.0000000000
     48106      8810  TIP3      H2            -24.6558743119       26.9638114644       62.4039097142  TIP3      8618            0.0000000000
     48107      8811  TIP3      OH2           -26.3013197874       27.3512076674       74.4970224306  TIP3      8619            0.0000000000
     48108      8811  TIP3      H1            -26.8068368107       26.5602696391       74.8019258512  TIP3      8619            0.0000000000
     48109      8811  TIP3      H2            -25.4506601096       27.2285056501       74.9516738203  TIP3      8619            0.0000000000
     48110      8812  TIP3      OH2           -24.3068866119       26.6252019871       65.9067212362  TIP3      8620            0.0000000000
     48111      8812  TIP3      H1            -24.5925518677       27.1871524650       65.1665953783  TIP3      8620            0.0000000000
     48112      8812  TIP3      H2            -24.2129985150       25.7741932143       65.4382508575  TIP3      8620            0.0000000000
     48113      8813  TIP3      OH2           -33.1846366584       26.7468262487       71.1101865038  TIP3      8621            0.0000000000
     48114      8813  TIP3      H1            -33.1671541358       27.1713978645       71.9827713731  TIP3      8621            0.0000000000
     48115      8813  TIP3      H2            -33.6742559602       25.9344580836       71.3055286108  TIP3      8621            0.0000000000
     48116      8814  TIP3      OH2           -29.8241704989       24.1803569141       57.9744554604  TIP3      8622            0.0000000000
     48117      8814  TIP3      H1            -30.2781408652       23.7388986492       58.7197851322  TIP3      8622            0.0000000000
     48118      8814  TIP3      H2            -30.5430834269       24.5576784403       57.4481205171  TIP3      8622            0.0000000000
     48119      8815  TIP3      OH2           -36.1640718608       24.1951070224       64.9039588403  TIP3      8623            0.0000000000
     48120      8815  TIP3      H1            -35.8331555732       23.8473802405       65.7598278004  TIP3      8623            0.0000000000
     48121      8815  TIP3      H2            -36.0306414415       23.4390706057       64.3342828907  TIP3      8623            0.0000000000
     48122      8816  TIP3      OH2           -35.2895578131       24.7349082265       60.4177154503  TIP3      8624            0.0000000000
     48123      8816  TIP3      H1            -34.7306337467       25.2766931711       59.8206165257  TIP3      8624            0.0000000000
     48124      8816  TIP3      H2            -36.0137956254       25.3013839830       60.6584893826  TIP3      8624            0.0000000000
     48125      8817  TIP3      OH2           -25.1107680007       28.2052003366       70.4613122899  TIP3      8625            0.0000000000
     48126      8817  TIP3      H1            -24.7301403880       27.5197515216       69.8755811939  TIP3      8625            0.0000000000
     48127      8817  TIP3      H2            -25.5792039812       27.6777266106       71.1325147030  TIP3      8625            0.0000000000
     48128      8818  TIP3      OH2           -28.3079457734       24.1882801993       65.2971092953  TIP3      8626            0.0000000000
     48129      8818  TIP3      H1            -29.2415263155       24.1878547004       65.5908050669  TIP3      8626            0.0000000000
     48130      8818  TIP3      H2            -27.8258622457       24.0130983912       66.1195915988  TIP3      8626            0.0000000000
     48131      8819  TIP3      OH2           -33.4851855513       25.7267191061       64.1608095039  TIP3      8627            0.0000000000
     48132      8819  TIP3      H1            -34.3570663004       25.9044163337       63.7645392945  TIP3      8627            0.0000000000
     48133      8819  TIP3      H2            -33.2485722081       24.8788946779       63.7446937545  TIP3      8627            0.0000000000
     48134      8820  TIP3      OH2           -29.8568503841       25.7793277252       61.7910591386  TIP3      8628            0.0000000000
     48135      8820  TIP3      H1            -28.9010674214       25.8950213497       61.9493664412  TIP3      8628            0.0000000000
     48136      8820  TIP3      H2            -30.1090389414       26.4655945475       61.1451118887  TIP3      8628            0.0000000000
     48137      8821  TIP3      OH2           -23.9035516024       23.4184635583       68.5353666303  TIP3      8629            0.0000000000
     48138      8821  TIP3      H1            -24.5849321354       23.4676431937       69.2413078362  TIP3      8629            0.0000000000
     48139      8821  TIP3      H2            -24.4125033610       23.1629305671       67.7532744605  TIP3      8629            0.0000000000
     48140      8822  TIP3      OH2           -31.1369641002       26.9505541711       59.3688479926  TIP3      8630            0.0000000000
     48141      8822  TIP3      H1            -31.6758785303       26.5862310014       58.6489761699  TIP3      8630            0.0000000000
     48142      8822  TIP3      H2            -30.3152649022       27.1678678531       58.9020647427  TIP3      8630            0.0000000000
     48143      8823  TIP3      OH2           -33.0462402753       31.5415588560       74.4536656407  TIP3      8631            0.0000000000
     48144      8823  TIP3      H1            -32.3123546475       31.7624937525       75.0621603335  TIP3      8631            0.0000000000
     48145      8823  TIP3      H2            -33.7972803323       31.6194156512       75.0599531731  TIP3      8631            0.0000000000
     48146      8824  TIP3      OH2           -27.0350199299       26.9366828536       67.1886328580  TIP3      8632            0.0000000000
     48147      8824  TIP3      H1            -26.4269818566       26.4087598247       66.6568014255  TIP3      8632            0.0000000000
     48148      8824  TIP3      H2            -27.1711948612       26.3898652514       67.9736914817  TIP3      8632            0.0000000000
     48149      8825  TIP3      OH2           -32.0264399883       23.0953027445       63.6209574512  TIP3      8633            0.0000000000
     48150      8825  TIP3      H1            -32.3358020704       22.1733098139       63.6204980793  TIP3      8633            0.0000000000
     48151      8825  TIP3      H2            -31.2269665408       23.0152939358       63.0859650136  TIP3      8633            0.0000000000
     48152      8826  TIP3      OH2           -28.3881437502       25.2678867979       69.6034312140  TIP3      8634            0.0000000000
     48153      8826  TIP3      H1            -29.2125468525       25.7856898536       69.6926324189  TIP3      8634            0.0000000000
     48154      8826  TIP3      H2            -27.8326532280       25.6193543356       70.3261218380  TIP3      8634            0.0000000000
     48155      8827  TIP3      OH2           -27.8050519616       31.4748528970       61.3090072308  TIP3      8635            0.0000000000
     48156      8827  TIP3      H1            -28.6047409517       31.0127052846       60.9728996488  TIP3      8635            0.0000000000
     48157      8827  TIP3      H2            -28.0242783961       31.6008208481       62.2525684718  TIP3      8635            0.0000000000
     48158      8828  TIP3      OH2           -20.5971742884       30.6189188754       70.0460706193  TIP3      8636            0.0000000000
     48159      8828  TIP3      H1            -20.0507897424       31.1990500195       69.4841851882  TIP3      8636            0.0000000000
     48160      8828  TIP3      H2            -21.4782650162       30.7525452987       69.6479371501  TIP3      8636            0.0000000000
     48161      8829  TIP3      OH2           -23.9702514045       24.3032523317       59.4769399222  TIP3      8637            0.0000000000
     48162      8829  TIP3      H1            -24.9212085629       24.4577101800       59.3415294394  TIP3      8637            0.0000000000
     48163      8829  TIP3      H2            -23.6290582462       25.1545405356       59.8268061198  TIP3      8637            0.0000000000
     48164      8830  TIP3      OH2           -26.3466628770       31.7730498903       72.5203703861  TIP3      8638            0.0000000000
     48165      8830  TIP3      H1            -26.6442345247       31.3486191898       73.3302971488  TIP3      8638            0.0000000000
     48166      8830  TIP3      H2            -26.5200215432       32.7075230578       72.6630489660  TIP3      8638            0.0000000000
     48167      8831  TIP3      OH2           -23.2323465967       26.2257629067       61.0999100255  TIP3      8639            0.0000000000
     48168      8831  TIP3      H1            -22.3510199606       26.0922300221       61.5096033041  TIP3      8639            0.0000000000
     48169      8831  TIP3      H2            -23.1270167755       27.0464027371       60.5903325615  TIP3      8639            0.0000000000
     48170      8832  TIP3      OH2           -32.7029840747       30.8808002572       67.0872865471  TIP3      8640            0.0000000000
     48171      8832  TIP3      H1            -32.0129873121       30.8141935123       66.4054561665  TIP3      8640            0.0000000000
     48172      8832  TIP3      H2            -32.5975401833       30.0430987828       67.5692581729  TIP3      8640            0.0000000000
     48173      8833  TIP3      OH2           -25.7123562997       32.9398291007       60.3272082908  TIP3      8641            0.0000000000
     48174      8833  TIP3      H1            -26.0386303709       33.7987752165       60.6626721163  TIP3      8641            0.0000000000
     48175      8833  TIP3      H2            -26.4453609517       32.3391380703       60.5650604946  TIP3      8641            0.0000000000
     48176      8834  TIP3      OH2           -35.7304938865       29.2674172531       72.3640879010  TIP3      8642            0.0000000000
     48177      8834  TIP3      H1            -35.4715521540       28.8282478434       73.1971093588  TIP3      8642            0.0000000000
     48178      8834  TIP3      H2            -36.3183505362       28.6262304432       71.9403646255  TIP3      8642            0.0000000000
     48179      8835  TIP3      OH2           -28.6938863226       28.8492423691       74.5474442269  TIP3      8643            0.0000000000
     48180      8835  TIP3      H1            -29.0088998026       28.5380999776       73.6866919553  TIP3      8643            0.0000000000
     48181      8835  TIP3      H2            -27.7667801073       28.5303433453       74.5391753264  TIP3      8643            0.0000000000
     48182      8836  TIP3      OH2           -24.1275684203       34.2247532681       72.3636287691  TIP3      8644            0.0000000000
     48183      8836  TIP3      H1            -25.0590284116       34.3601991609       72.2812172712  TIP3      8644            0.0000000000
     48184      8836  TIP3      H2            -23.9920721410       34.4178157670       73.3309724769  TIP3      8644            0.0000000000
     48185      8837  TIP3      OH2           -18.3281465896       26.3559426619       60.8772564785  TIP3      8645            0.0000000000
     48186      8837  TIP3      H1            -18.9000734856       26.0754545438       60.1389696660  TIP3      8645            0.0000000000
     48187      8837  TIP3      H2            -18.2543658285       27.3062835146       60.6290848275  TIP3      8645            0.0000000000
     48188      8838  TIP3      OH2           -18.3016754464       32.1906887156       73.6970534234  TIP3      8646            0.0000000000
     48189      8838  TIP3      H1            -19.2108811510       32.4574465526       73.3689948877  TIP3      8646            0.0000000000
     48190      8838  TIP3      H2            -17.8131609862       32.1834943122       72.8540936500  TIP3      8646            0.0000000000
     48191      8839  TIP3      OH2           -19.9031430233       34.9453163986       61.4896420806  TIP3      8647            0.0000000000
     48192      8839  TIP3      H1            -20.4697425132       34.2011365809       61.6166783469  TIP3      8647            0.0000000000
     48193      8839  TIP3      H2            -19.7945202645       35.0305056167       60.5259322224  TIP3      8647            0.0000000000
     48194      8840  TIP3      OH2           -22.8360643024       30.0040252548       68.3887924142  TIP3      8648            0.0000000000
     48195      8840  TIP3      H1            -23.7765377026       29.7916990461       68.2747211513  TIP3      8648            0.0000000000
     48196      8840  TIP3      H2            -22.4014376883       29.2486383765       67.9500131227  TIP3      8648            0.0000000000
     48197      8841  TIP3      OH2           -30.2880767710       34.3034464184       64.4067441759  TIP3      8649            0.0000000000
     48198      8841  TIP3      H1            -29.8188501615       35.1425331073       64.3197256186  TIP3      8649            0.0000000000
     48199      8841  TIP3      H2            -31.2021855689       34.5411114511       64.2094512883  TIP3      8649            0.0000000000
     48200      8842  TIP3      OH2           -34.6019489347       29.1785111477       59.0946798661  TIP3      8650            0.0000000000
     48201      8842  TIP3      H1            -33.9555801727       29.8271893471       59.4597213822  TIP3      8650            0.0000000000
     48202      8842  TIP3      H2            -35.4533857953       29.5401108428       59.3579949929  TIP3      8650            0.0000000000
     48203      8843  TIP3      OH2           -28.8775762213       31.9951912508       64.0032008608  TIP3      8651            0.0000000000
     48204      8843  TIP3      H1            -29.1966986296       32.9147929308       64.0935980276  TIP3      8651            0.0000000000
     48205      8843  TIP3      H2            -29.6108451329       31.5131859225       64.4376607830  TIP3      8651            0.0000000000
     48206      8844  TIP3      OH2           -28.1429987258       35.8690650159       70.0988563447  TIP3      8652            0.0000000000
     48207      8844  TIP3      H1            -27.9968065083       36.8203581925       70.0284383325  TIP3      8652            0.0000000000
     48208      8844  TIP3      H2            -27.8333022921       35.7142504762       71.0047958380  TIP3      8652            0.0000000000
     48209      8845  TIP3      OH2           -24.9598764361       32.1629428644       70.0002365230  TIP3      8653            0.0000000000
     48210      8845  TIP3      H1            -25.2435619105       31.9931018756       70.9245165204  TIP3      8653            0.0000000000
     48211      8845  TIP3      H2            -24.2726809865       31.4928039968       69.8741407958  TIP3      8653            0.0000000000
     48212      8846  TIP3      OH2           -22.5871542493       33.2399038933       59.1081741591  TIP3      8654            0.0000000000
     48213      8846  TIP3      H1            -22.2904197236       32.8030850933       59.9338909761  TIP3      8654            0.0000000000
     48214      8846  TIP3      H2            -23.5419373549       33.0875704671       59.2049745220  TIP3      8654            0.0000000000
     48215      8847  TIP3      OH2           -34.0492863818       24.0261394738       71.8648449852  TIP3      8655            0.0000000000
     48216      8847  TIP3      H1            -34.9350449419       24.3996783083       71.9607636112  TIP3      8655            0.0000000000
     48217      8847  TIP3      H2            -34.1609144947       23.1911319371       72.3545520134  TIP3      8655            0.0000000000
     48218      8848  TIP3      OH2           -21.8174012959       31.8341136540       61.3449074538  TIP3      8656            0.0000000000
     48219      8848  TIP3      H1            -22.0455555624       31.0844211085       61.9303739642  TIP3      8656            0.0000000000
     48220      8848  TIP3      H2            -20.8739800429       31.9534209071       61.5460422846  TIP3      8656            0.0000000000
     48221      8849  TIP3      OH2           -34.1893074946       35.8162115472       70.2600277899  TIP3      8657            0.0000000000
     48222      8849  TIP3      H1            -34.1530443567       34.8651620736       70.3559655463  TIP3      8657            0.0000000000
     48223      8849  TIP3      H2            -34.2551390125       36.1190230256       71.1785858917  TIP3      8657            0.0000000000
     48224      8850  TIP3      OH2           -28.4505425480       34.3121348044       57.6006185876  TIP3      8658            0.0000000000
     48225      8850  TIP3      H1            -28.3716262262       33.5392835995       57.0214470834  TIP3      8658            0.0000000000
     48226      8850  TIP3      H2            -28.8880265104       33.8993301098       58.3791212416  TIP3      8658            0.0000000000
     48227      8851  TIP3      OH2           -29.7096181971       33.8166765213       60.0571190130  TIP3      8659            0.0000000000
     48228      8851  TIP3      H1            -29.4285211766       33.3281866822       60.8418859638  TIP3      8659            0.0000000000
     48229      8851  TIP3      H2            -29.5846530027       34.7525712247       60.3293520012  TIP3      8659            0.0000000000
     48230      8852  TIP3      OH2           -33.1967307290       31.1116408560       60.5409652127  TIP3      8660            0.0000000000
     48231      8852  TIP3      H1            -33.9059330960       31.5043536606       61.0933274058  TIP3      8660            0.0000000000
     48232      8852  TIP3      H2            -32.6742691089       31.8951308988       60.2734415186  TIP3      8660            0.0000000000
     48233      8853  TIP3      OH2           -25.3167091927       23.7951097072       70.8747623820  TIP3      8661            0.0000000000
     48234      8853  TIP3      H1            -24.6062897271       23.8572079618       71.5208945789  TIP3      8661            0.0000000000
     48235      8853  TIP3      H2            -25.7000064978       22.9191582955       71.0796833717  TIP3      8661            0.0000000000
     48236      8854  TIP3      OH2           -24.5748479017       23.3634707498       61.9613995551  TIP3      8662            0.0000000000
     48237      8854  TIP3      H1            -24.3419484441       23.8265562385       61.1319984904  TIP3      8662            0.0000000000
     48238      8854  TIP3      H2            -23.9955968173       23.8065371039       62.5943734063  TIP3      8662            0.0000000000
     48239      8855  TIP3      OH2           -26.8395779800       35.5567192459       60.7902558979  TIP3      8663            0.0000000000
     48240      8855  TIP3      H1            -27.6924758042       36.0291433901       60.8339127158  TIP3      8663            0.0000000000
     48241      8855  TIP3      H2            -26.3682230500       36.0615494108       60.1113089896  TIP3      8663            0.0000000000
     48242      8856  TIP3      OH2           -27.3403979780       25.1155689776       62.7808778070  TIP3      8664            0.0000000000
     48243      8856  TIP3      H1            -26.5591144342       25.6994163166       62.8272033591  TIP3      8664            0.0000000000
     48244      8856  TIP3      H2            -27.6057344647       24.9971519722       63.7119914788  TIP3      8664            0.0000000000
     48245      8857  TIP3      OH2           -26.7872359497       26.1434101403       71.9737001298  TIP3      8665            0.0000000000
     48246      8857  TIP3      H1            -26.7125397447       26.6956300816       72.7751941052  TIP3      8665            0.0000000000
     48247      8857  TIP3      H2            -26.1266869516       25.4458656076       72.0681157252  TIP3      8665            0.0000000000
     48248      8858  TIP3      OH2           -26.4952121149       22.1719956461       63.6596605358  TIP3      8666            0.0000000000
     48249      8858  TIP3      H1            -26.8164135732       22.8195856218       64.3111348003  TIP3      8666            0.0000000000
     48250      8858  TIP3      H2            -25.7996676323       22.7188633935       63.2200387564  TIP3      8666            0.0000000000
     48251      8859  TIP3      OH2           -29.4339918958      -36.4701805509       60.8226936671  TIP3      8667            0.0000000000
     48252      8859  TIP3      H1            -29.4032190934      -35.6813065310       60.2484895492  TIP3      8667            0.0000000000
     48253      8859  TIP3      H2            -29.7271200090      -36.0987558112       61.6689187293  TIP3      8667            0.0000000000
     48254      8860  TIP3      OH2           -30.8245177172       23.2789348941       60.3701929507  TIP3      8668            0.0000000000
     48255      8860  TIP3      H1            -30.8835707155       24.1753241819       60.7584421379  TIP3      8668            0.0000000000
     48256      8860  TIP3      H2            -29.9193478951       23.0361705184       60.6347283944  TIP3      8668            0.0000000000
     48257      8861  TIP3      OH2           -20.6134249427       24.0046081208       72.8158636065  TIP3      8669            0.0000000000
     48258      8861  TIP3      H1            -21.5387426867       24.3262567379       72.6875938974  TIP3      8669            0.0000000000
     48259      8861  TIP3      H2            -20.3103702527       23.9963647897       71.8927774874  TIP3      8669            0.0000000000
     48260      8862  TIP3      OH2           -21.9939785591       27.7964310887       66.8192608150  TIP3      8670            0.0000000000
     48261      8862  TIP3      H1            -22.8211567202       27.3491714201       66.5552771028  TIP3      8670            0.0000000000
     48262      8862  TIP3      H2            -21.5144480454       27.1126817483       67.3397054494  TIP3      8670            0.0000000000
     48263      8863  TIP3      OH2           -32.6110259351       33.7449930899       59.3929705753  TIP3      8671            0.0000000000
     48264      8863  TIP3      H1            -31.9265789395       34.3648455523       59.6884729775  TIP3      8671            0.0000000000
     48265      8863  TIP3      H2            -32.0877728875       33.2506344548       58.7342264114  TIP3      8671            0.0000000000
     48266      8864  TIP3      OH2           -34.3077533357       26.3860914334       58.5680258176  TIP3      8672            0.0000000000
     48267      8864  TIP3      H1            -34.2339178384       27.3435664813       58.7499594448  TIP3      8672            0.0000000000
     48268      8864  TIP3      H2            -35.1834417287       26.2142219961       58.2060439256  TIP3      8672            0.0000000000
     48269      8865  TIP3      OH2           -33.4131703642       21.1649380670       67.2816542729  TIP3      8673            0.0000000000
     48270      8865  TIP3      H1            -33.6336789158       21.1984869619       66.3239721330  TIP3      8673            0.0000000000
     48271      8865  TIP3      H2            -33.8616077855       20.3354711712       67.5485797420  TIP3      8673            0.0000000000
     48272      8866  TIP3      OH2           -34.4501972961       35.0995372046       63.3935163817  TIP3      8674            0.0000000000
     48273      8866  TIP3      H1            -35.3144558062       35.5122661982       63.4214331387  TIP3      8674            0.0000000000
     48274      8866  TIP3      H2            -33.9663629252       35.6118168266       62.7424453757  TIP3      8674            0.0000000000
     48275      8867  TIP3      OH2           -30.3001102826       36.3840769265       76.5839302755  TIP3      8675            0.0000000000
     48276      8867  TIP3      H1            -29.4634746002       35.9295541720       76.7232997666  TIP3      8675            0.0000000000
     48277      8867  TIP3      H2            -30.3998278497       36.2193245103       75.6193910313  TIP3      8675            0.0000000000
     48278      8868  TIP3      OH2           -26.4432823998       36.1155416821       57.8456769618  TIP3      8676            0.0000000000
     48279      8868  TIP3      H1            -27.1852027278       35.4916700777       57.9271454539  TIP3      8676            0.0000000000
     48280      8868  TIP3      H2            -25.7396741640       35.5840289881       57.4706136213  TIP3      8676            0.0000000000
     48281      8869  TIP3      OH2           -24.2546551917       34.8285561675       75.0430240887  TIP3      8677            0.0000000000
     48282      8869  TIP3      H1            -24.4675023382       33.9682952312       75.4271039373  TIP3      8677            0.0000000000
     48283      8869  TIP3      H2            -23.4008798091       35.0207497734       75.4752634452  TIP3      8677            0.0000000000
     48284      8870  TIP3      OH2           -21.7621141254       35.8751675098       58.0633290961  TIP3      8678            0.0000000000
     48285      8870  TIP3      H1            -21.4926647721       35.0403472053       58.4590356412  TIP3      8678            0.0000000000
     48286      8870  TIP3      H2            -21.0403006902       36.0916002357       57.4403594713  TIP3      8678            0.0000000000
     48287      8871  TIP3      OH2           -35.4454177912       31.4662820645       75.7337607359  TIP3      8679            0.0000000000
     48288      8871  TIP3      H1            -35.1723901815       30.6154361996       75.3432307640  TIP3      8679            0.0000000000
     48289      8871  TIP3      H2            -36.0929802270       31.7996136523       75.1007691619  TIP3      8679            0.0000000000
     48290      8872  TIP3      OH2           -31.0233039377       31.8440208773       57.7420896841  TIP3      8680            0.0000000000
     48291      8872  TIP3      H1            -30.8770831473       31.0888042862       58.3293851311  TIP3      8680            0.0000000000
     48292      8872  TIP3      H2            -30.2671424538       31.7448422469       57.1315303586  TIP3      8680            0.0000000000
     48293      8873  TIP3      OH2           -28.6512346298       31.4897526597       75.1036670410  TIP3      8681            0.0000000000
     48294      8873  TIP3      H1            -28.9928965651       31.8068997576       74.2450847134  TIP3      8681            0.0000000000
     48295      8873  TIP3      H2            -28.5861424008       30.5114205860       74.9943626959  TIP3      8681            0.0000000000
     48296      8874  TIP3      OH2           -25.5756051007       32.9957783973       57.5234669914  TIP3      8682            0.0000000000
     48297      8874  TIP3      H1            -25.8808359532       33.0831504751       58.4399630827  TIP3      8682            0.0000000000
     48298      8874  TIP3      H2            -25.7771168532       32.0419851747       57.3789974804  TIP3      8682            0.0000000000
     48299      8875  TIP3      OH2           -22.9429363066       31.3854506503       72.4702283360  TIP3      8683            0.0000000000
     48300      8875  TIP3      H1            -22.1627402688       31.9844927555       72.4851307154  TIP3      8683            0.0000000000
     48301      8875  TIP3      H2            -23.6354555113       32.0548168101       72.5583259260  TIP3      8683            0.0000000000
     48302      8876  TIP3      OH2           -34.5020490308       28.7641836887       75.0917124945  TIP3      8684            0.0000000000
     48303      8876  TIP3      H1            -34.0335456956       27.9144093676       75.0022592387  TIP3      8684            0.0000000000
     48304      8876  TIP3      H2            -34.6682859756       28.7604377121       76.0487326268  TIP3      8684            0.0000000000
     48305      8877  TIP3      OH2           -29.8183537870       29.8920997057       60.1783786617  TIP3      8685            0.0000000000
     48306      8877  TIP3      H1            -30.3210410156       29.3493602829       60.8041692466  TIP3      8685            0.0000000000
     48307      8877  TIP3      H2            -29.5198024209       29.2176372161       59.5227949161  TIP3      8685            0.0000000000
     48308      8878  TIP3      OH2           -30.5538528986       27.6931399000       72.4627315642  TIP3      8686            0.0000000000
     48309      8878  TIP3      H1            -31.1579622974       28.4065641138       72.7243136434  TIP3      8686            0.0000000000
     48310      8878  TIP3      H2            -30.1550571327       28.0636696285       71.6560101030  TIP3      8686            0.0000000000
     48311      8879  TIP3      OH2           -28.7439729429       28.1103396600       58.3790542326  TIP3      8687            0.0000000000
     48312      8879  TIP3      H1            -28.8956272410       28.0226595261       57.4168260584  TIP3      8687            0.0000000000
     48313      8879  TIP3      H2            -27.7655477635       28.1622341220       58.4416298659  TIP3      8687            0.0000000000
     48314      8880  TIP3      OH2           -25.4804993435       30.2716170514       75.8444616809  TIP3      8688            0.0000000000
     48315      8880  TIP3      H1            -24.5247466796       30.2484804396       75.6735659652  TIP3      8688            0.0000000000
     48316      8880  TIP3      H2            -25.6463121204       29.4907653460       76.3917636027  TIP3      8688            0.0000000000
     48317      8881  TIP3      OH2           -19.4031797331       30.4215378957       57.7847843803  TIP3      8689            0.0000000000
     48318      8881  TIP3      H1            -19.6035296008       30.0465038557       56.9115807673  TIP3      8689            0.0000000000
     48319      8881  TIP3      H2            -19.3360182974       31.3890836043       57.5978559164  TIP3      8689            0.0000000000
     48320      8882  TIP3      OH2           -30.1078989770       25.0856346996       73.5007894501  TIP3      8690            0.0000000000
     48321      8882  TIP3      H1            -30.0270202698       24.3654069823       72.8506221694  TIP3      8690            0.0000000000
     48322      8882  TIP3      H2            -30.2109307859       25.8908830669       72.9569002240  TIP3      8690            0.0000000000
     48323      8883  TIP3      OH2           -29.7366222030       23.4535484896       71.0749088223  TIP3      8691            0.0000000000
     48324      8883  TIP3      H1            -29.2276077886       23.9203813839       70.3694887816  TIP3      8691            0.0000000000
     48325      8883  TIP3      H2            -30.6313477352       23.3758312466       70.6675562181  TIP3      8691            0.0000000000
     48326      8884  TIP3      OH2           -28.2032171024       28.9415636168       71.3231147680  TIP3      8692            0.0000000000
     48327      8884  TIP3      H1            -27.4507370390       28.7780079953       70.7453108154  TIP3      8692            0.0000000000
     48328      8884  TIP3      H2            -28.5685202552       29.7742909436       70.9807263639  TIP3      8692            0.0000000000
     48329      8885  TIP3      OH2           -23.8247758660       26.6833277896       76.2613586870  TIP3      8693            0.0000000000
     48330      8885  TIP3      H1            -23.5697862402       25.7545040928       76.1848811913  TIP3      8693            0.0000000000
     48331      8885  TIP3      H2            -22.9614309911       27.1278685658       76.3056962061  TIP3      8693            0.0000000000
     48332      8886  TIP3      OH2           -22.4681486225       29.4919554846       74.4459439611  TIP3      8694            0.0000000000
     48333      8886  TIP3      H1            -22.7102394734       30.2273044466       73.8375631941  TIP3      8694            0.0000000000
     48334      8886  TIP3      H2            -21.5096429857       29.4784185841       74.2463554288  TIP3      8694            0.0000000000
     48335      8887  TIP3      OH2           -31.6932402224       26.3263140720       75.4585536397  TIP3      8695            0.0000000000
     48336      8887  TIP3      H1            -32.4711669930       25.7517012114       75.2711806226  TIP3      8695            0.0000000000
     48337      8887  TIP3      H2            -31.0566797365       25.9643291405       74.8108235367  TIP3      8695            0.0000000000
     48338      8888  TIP3      OH2           -28.9616870963       20.8859540832       71.4794525622  TIP3      8696            0.0000000000
     48339      8888  TIP3      H1            -29.1346419894       21.8499335360       71.3672745682  TIP3      8696            0.0000000000
     48340      8888  TIP3      H2            -29.7011176219       20.5215089576       70.9613363285  TIP3      8696            0.0000000000
     48341      8889  TIP3      OH2           -27.6709362605       25.2173555991       75.0841277628  TIP3      8697            0.0000000000
     48342      8889  TIP3      H1            -27.9970889694       25.0036759441       75.9818790204  TIP3      8697            0.0000000000
     48343      8889  TIP3      H2            -28.4534398194       25.0252009510       74.5290576302  TIP3      8697            0.0000000000
     48344      8890  TIP3      OH2           -24.9663533566       24.3529005030       74.1617932193  TIP3      8698            0.0000000000
     48345      8890  TIP3      H1            -25.9266935670       24.4193751520       74.2964469944  TIP3      8698            0.0000000000
     48346      8890  TIP3      H2            -24.7003098416       23.7176695861       74.8559455330  TIP3      8698            0.0000000000
     48347      8891  TIP3      OH2           -23.4260988312       22.9898940900       76.0815244579  TIP3      8699            0.0000000000
     48348      8891  TIP3      H1            -23.4266283563       22.0102754987       76.0996617576  TIP3      8699            0.0000000000
     48349      8891  TIP3      H2            -23.6488314665       23.2706132457       76.9977738633  TIP3      8699            0.0000000000
     48350      8892  TIP3      OH2           -33.4434888540       24.2406146297       75.2405452650  TIP3      8700            0.0000000000
     48351      8892  TIP3      H1            -33.3512540663       23.5074099721       74.6052483781  TIP3      8700            0.0000000000
     48352      8892  TIP3      H2            -33.6715887111       23.7798076455       76.0718274887  TIP3      8700            0.0000000000
     48353      8893  TIP3      OH2           -28.7361988826       20.2771699491       74.1710030742  TIP3      8701            0.0000000000
     48354      8893  TIP3      H1            -28.0509129458       19.5795890411       74.1402104197  TIP3      8701            0.0000000000
     48355      8893  TIP3      H2            -28.8427095771       20.4336697889       73.2147024246  TIP3      8701            0.0000000000
     48356      8894  TIP3      OH2           -28.3998361882       21.8765181749       76.2697143631  TIP3      8702            0.0000000000
     48357      8894  TIP3      H1            -28.5510076670       21.3807924291       75.4254853534  TIP3      8702            0.0000000000
     48358      8894  TIP3      H2            -28.9606667511       22.6673067163       76.1547869054  TIP3      8702            0.0000000000
     48359      8895  TIP3      OH2           -35.3141116886       33.3975306891       58.9171496431  TIP3      8703            0.0000000000
     48360      8895  TIP3      H1            -34.3636931157       33.5114455742       59.1237341648  TIP3      8703            0.0000000000
     48361      8895  TIP3      H2            -35.2677188455       32.7395233098       58.2012853387  TIP3      8703            0.0000000000
     48362      8896  TIP3      OH2           -20.1392410424       32.9364249915       76.4390383214  TIP3      8704            0.0000000000
     48363      8896  TIP3      H1            -21.0931535521       33.0036753118       76.6355384821  TIP3      8704            0.0000000000
     48364      8896  TIP3      H2            -19.8098182073       33.8043227757       76.7672770478  TIP3      8704            0.0000000000
     48365      8897  TIP3      OH2           -18.8750314236       31.3170831508       61.7293801889  TIP3      8705            0.0000000000
     48366      8897  TIP3      H1            -18.0306120017       31.7497030129       61.9357683183  TIP3      8705            0.0000000000
     48367      8897  TIP3      H2            -18.8928457075       30.6187659317       62.4171854087  TIP3      8705            0.0000000000
     48368      8898  TIP3      OH2           -18.5199634418       29.4233772770       63.6321980444  TIP3      8706            0.0000000000
     48369      8898  TIP3      H1            -19.2693307486       28.9185565857       64.0238705406  TIP3      8706            0.0000000000
     48370      8898  TIP3      H2            -17.9186480879       29.5485763119       64.3956539645  TIP3      8706            0.0000000000
     48371      8899  TIP3      OH2           -18.7672498843       32.1188418965       68.6396107810  TIP3      8707            0.0000000000
     48372      8899  TIP3      H1            -17.9626361293       31.7411997410       68.2403609591  TIP3      8707            0.0000000000
     48373      8899  TIP3      H2            -18.6166512255       33.0705965835       68.4616038582  TIP3      8707            0.0000000000
     48374      8900  TIP3      OH2           -20.2489153543       35.0501972472       70.8740346206  TIP3      8708            0.0000000000
     48375      8900  TIP3      H1            -20.9233731685       35.2994840710       71.5279320262  TIP3      8708            0.0000000000
     48376      8900  TIP3      H2            -20.7815754554       34.6283142779       70.1708740845  TIP3      8708            0.0000000000
     48377      8901  TIP3      OH2           -18.2093913228       29.2390242845       60.0191424955  TIP3      8709            0.0000000000
     48378      8901  TIP3      H1            -18.7825124055       29.5978263310       59.3053751017  TIP3      8709            0.0000000000
     48379      8901  TIP3      H2            -18.3142131872       29.9530193460       60.6797922880  TIP3      8709            0.0000000000
     48380      8902  TIP3      OH2           -19.8446157294       26.4742480400       58.5305754015  TIP3      8710            0.0000000000
     48381      8902  TIP3      H1            -19.7685563268       27.1405342788       57.8369582523  TIP3      8710            0.0000000000
     48382      8902  TIP3      H2            -20.0309993469       25.6521983780       58.0363106258  TIP3      8710            0.0000000000
     48383      8903  TIP3      OH2           -20.6988786900       27.8951335617       64.1978469491  TIP3      8711            0.0000000000
     48384      8903  TIP3      H1            -20.8472554701       26.9407946972       64.1582878728  TIP3      8711            0.0000000000
     48385      8903  TIP3      H2            -21.0296668904       28.1110423006       65.0899112696  TIP3      8711            0.0000000000
     48386      8904  TIP3      OH2           -35.6758251060       29.9710151677       68.1782886379  TIP3      8712            0.0000000000
     48387      8904  TIP3      H1            -35.4741577001       29.9263946433       67.2203181657  TIP3      8712            0.0000000000
     48388      8904  TIP3      H2            -34.7944893273       29.8561018182       68.5971340347  TIP3      8712            0.0000000000
     48389      8905  TIP3      OH2           -19.8469206170       29.8558518219       73.9066607463  TIP3      8713            0.0000000000
     48390      8905  TIP3      H1            -19.2147887418       29.1177893120       74.0140383103  TIP3      8713            0.0000000000
     48391      8905  TIP3      H2            -19.2648438403       30.6483966985       73.8683660486  TIP3      8713            0.0000000000
     48392      8906  TIP3      OH2           -18.3469416951       27.7471683467       74.5547102776  TIP3      8714            0.0000000000
     48393      8906  TIP3      H1            -19.2212945638       27.3454574582       74.3620100421  TIP3      8714            0.0000000000
     48394      8906  TIP3      H2            -17.7694243273       26.9710784969       74.4659476784  TIP3      8714            0.0000000000
     48395      8907  TIP3      OH2           -20.5955374318       23.9514402311       57.6673544633  TIP3      8715            0.0000000000
     48396      8907  TIP3      H1            -20.0083351385       23.5109859392       58.3105199992  TIP3      8715            0.0000000000
     48397      8907  TIP3      H2            -21.4609802444       23.5335114878       57.8197182248  TIP3      8715            0.0000000000
     48398      8908  TIP3      OH2           -21.0545080727       25.4778851654       62.6110019034  TIP3      8716            0.0000000000
     48399      8908  TIP3      H1            -20.7350896510       24.5592249029       62.7721272546  TIP3      8716            0.0000000000
     48400      8908  TIP3      H2            -20.2358021416       25.8906784680       62.3020300324  TIP3      8716            0.0000000000
     48401      8909  TIP3      OH2           -20.3920727039       26.0230040465       68.0988903406  TIP3      8717            0.0000000000
     48402      8909  TIP3      H1            -19.4321385431       26.2549947039       68.0815372080  TIP3      8717            0.0000000000
     48403      8909  TIP3      H2            -20.5793705386       26.1653580529       69.0385584628  TIP3      8717            0.0000000000
     48404      8910  TIP3      OH2           -20.3246813499       26.7455232441       70.8717250699  TIP3      8718            0.0000000000
     48405      8910  TIP3      H1            -21.2063341765       27.0338823195       71.1940615134  TIP3      8718            0.0000000000
     48406      8910  TIP3      H2            -19.8910715466       27.6062308830       70.6560498215  TIP3      8718            0.0000000000
     48407      8911  TIP3      OH2           -35.7945916545       25.1552608205       74.3881170603  TIP3      8719            0.0000000000
     48408      8911  TIP3      H1            -34.9147522972       24.9620371764       74.7369443497  TIP3      8719            0.0000000000
     48409      8911  TIP3      H2            -36.3743892527       24.4759723553       74.8085842435  TIP3      8719            0.0000000000
     48410      8912  TIP3      OH2           -18.0625579450       20.8182849758       76.2177261578  TIP3      8720            0.0000000000
     48411      8912  TIP3      H1            -17.7115919964       20.1434368714       75.6119228414  TIP3      8720            0.0000000000
     48412      8912  TIP3      H2            -17.9466318314       21.6287459651       75.6899817893  TIP3      8720            0.0000000000
     48413      8913  TIP3      OH2           -20.3574013841       22.7684307066       62.7014144715  TIP3      8721            0.0000000000
     48414      8913  TIP3      H1            -20.1455799771       22.3318431853       63.5546316374  TIP3      8721            0.0000000000
     48415      8913  TIP3      H2            -20.9583031531       22.1290612838       62.2643318022  TIP3      8721            0.0000000000
     48416      8914  TIP3      OH2           -34.8337439434       23.5285027465       67.2187002204  TIP3      8722            0.0000000000
     48417      8914  TIP3      H1            -34.3746813479       22.7341896737       67.5455201334  TIP3      8722            0.0000000000
     48418      8914  TIP3      H2            -34.3334484720       24.2361280279       67.6627684697  TIP3      8722            0.0000000000
     48419      8915  TIP3      OH2           -36.0168296477       27.3305419113       68.6562559135  TIP3      8723            0.0000000000
     48420      8915  TIP3      H1            -35.9821730944       26.9014207327       67.7754759655  TIP3      8723            0.0000000000
     48421      8915  TIP3      H2            -35.9394981431       28.2456819310       68.3769262396  TIP3      8723            0.0000000000
     48422      8916  TIP3      OH2           -18.5361239583       22.9103597787       74.5722165368  TIP3      8724            0.0000000000
     48423      8916  TIP3      H1            -19.4746257364       23.1790356884       74.5197824784  TIP3      8724            0.0000000000
     48424      8916  TIP3      H2            -18.5021603790       22.3574933350       73.7766797445  TIP3      8724            0.0000000000
     48425      8917  TIP3      OH2           -18.5432088023       22.8031891370       59.2552320858  TIP3      8725            0.0000000000
     48426      8917  TIP3      H1            -18.1317000199       22.0898422889       58.7176032699  TIP3      8725            0.0000000000
     48427      8917  TIP3      H2            -17.8367081956       23.4639301916       59.3053724345  TIP3      8725            0.0000000000
     48428      8918  TIP3      OH2           -35.7608637525       22.7877554064       61.9364620730  TIP3      8726            0.0000000000
     48429      8918  TIP3      H1            -36.7053196598       22.9746229371       62.0607898425  TIP3      8726            0.0000000000
     48430      8918  TIP3      H2            -35.5363189391       23.5481407250       61.3616106960  TIP3      8726            0.0000000000
     48431      8919  TIP3      OH2            37.0289308846       21.4558280516       70.8779170115  TIP3      8727            0.0000000000
     48432      8919  TIP3      H1             36.2414955198       21.2462827421       71.4041965220  TIP3      8727            0.0000000000
     48433      8919  TIP3      H2             36.5490761955       21.9705838049       70.2063353244  TIP3      8727            0.0000000000
     48434      8920  TIP3      OH2           -34.0950390050       34.7800126037       74.8228061957  TIP3      8728            0.0000000000
     48435      8920  TIP3      H1            -34.9682705620       34.8975489736       74.4372693574  TIP3      8728            0.0000000000
     48436      8920  TIP3      H2            -34.3076226487       34.5895733304       75.7439074066  TIP3      8728            0.0000000000
     48437      8921  TIP3      OH2           -31.0517206348       35.7139154791       71.2028896780  TIP3      8729            0.0000000000
     48438      8921  TIP3      H1            -31.5545869297       36.4418820427       70.8049266337  TIP3      8729            0.0000000000
     48439      8921  TIP3      H2            -30.2201727032       35.6766679500       70.7171921638  TIP3      8729            0.0000000000
     48440      8922  TIP3      OH2           -19.5150730950       20.9964229718       72.4309579963  TIP3      8730            0.0000000000
     48441      8922  TIP3      H1            -20.3416949115       21.2977617702       72.0158362555  TIP3      8730            0.0000000000
     48442      8922  TIP3      H2            -19.3454976723       20.1761352135       71.9101841182  TIP3      8730            0.0000000000
     48443      8923  TIP3      OH2           -31.9149463755       36.0160851038       66.4671789283  TIP3      8731            0.0000000000
     48444      8923  TIP3      H1            -32.3481331920       35.2854153076       66.9402781782  TIP3      8731            0.0000000000
     48445      8923  TIP3      H2            -31.3533990445       36.3940740115       67.1673724981  TIP3      8731            0.0000000000
     48446      8924  TIP3      OH2           -26.1236207147       22.4240321565       66.7129654473  TIP3      8732            0.0000000000
     48447      8924  TIP3      H1            -26.8004025782       21.7839985389       66.9923433017  TIP3      8732            0.0000000000
     48448      8924  TIP3      H2            -25.5716829324       21.8912763747       66.1281293124  TIP3      8732            0.0000000000
     48449      8925  TIP3      OH2           -20.9864998520       20.4695376869       66.7762632323  TIP3      8733            0.0000000000
     48450      8925  TIP3      H1            -20.3759489537       21.0640074725       66.2689182984  TIP3      8733            0.0000000000
     48451      8925  TIP3      H2            -21.8683222780       20.8327729044       66.5458144995  TIP3      8733            0.0000000000
     48452      8926  TIP3      OH2           -19.3194930638       21.7219680762       65.0510897976  TIP3      8734            0.0000000000
     48453      8926  TIP3      H1            -18.6321408456       21.1473641015       64.6369745017  TIP3      8734            0.0000000000
     48454      8926  TIP3      H2            -18.8121819022       22.5588184270       65.1589745462  TIP3      8734            0.0000000000
     48455      8927  TIP3      OH2           -33.7432400902       21.0423381838       64.5872715297  TIP3      8735            0.0000000000
     48456      8927  TIP3      H1            -34.5232491784       20.8428516066       64.0231444031  TIP3      8735            0.0000000000
     48457      8927  TIP3      H2            -33.2537907858       20.2031146550       64.4872410413  TIP3      8735            0.0000000000
     48458      8928  TIP3      OH2           -34.9674845962       20.7820214082       60.2362672729  TIP3      8736            0.0000000000
     48459      8928  TIP3      H1            -34.4545965655       21.4526586215       59.7525291591  TIP3      8736            0.0000000000
     48460      8928  TIP3      H2            -35.5284149373       21.3519401108       60.7977507668  TIP3      8736            0.0000000000
     48461      8929  TIP3      OH2           -29.2828774652       20.9769956469       64.3451269232  TIP3      8737            0.0000000000
     48462      8929  TIP3      H1            -28.3816280189       21.3341580670       64.2678240479  TIP3      8737            0.0000000000
     48463      8929  TIP3      H2            -29.3154768418       20.7576568324       65.2756078566  TIP3      8737            0.0000000000
     48464      8930  TIP3      OH2           -23.5662337099       20.9945830774       65.9689916448  TIP3      8738            0.0000000000
     48465      8930  TIP3      H1            -23.6188759160       21.1084217512       65.0112353533  TIP3      8738            0.0000000000
     48466      8930  TIP3      H2            -23.9467272476       20.0911362655       66.0976310651  TIP3      8738            0.0000000000
     48467      8931  TIP3      OH2           -22.3006840126       21.0244580444       61.6541411124  TIP3      8739            0.0000000000
     48468      8931  TIP3      H1            -23.0496027962       21.6183105850       61.4955409231  TIP3      8739            0.0000000000
     48469      8931  TIP3      H2            -22.7404787071       20.1722344532       61.8876385917  TIP3      8739            0.0000000000
     48470      8932  TIP3      OH2           -33.1614567966       22.7491311532       58.8223047679  TIP3      8740            0.0000000000
     48471      8932  TIP3      H1            -32.6402794499       22.1534510649       58.2424075247  TIP3      8740            0.0000000000
     48472      8932  TIP3      H2            -32.4588092218       23.0562568690       59.4224364794  TIP3      8740            0.0000000000
     48473      8933  TIP3      OH2           -28.1297053411       22.9901803124       61.1948405603  TIP3      8741            0.0000000000
     48474      8933  TIP3      H1            -27.8781200832       22.4103550740       61.9327292908  TIP3      8741            0.0000000000
     48475      8933  TIP3      H2            -28.0593646191       23.8560990924       61.6542934182  TIP3      8741            0.0000000000
     48476      8934  TIP3      OH2           -33.9278147155       21.5934855920       74.0299187177  TIP3      8742            0.0000000000
     48477      8934  TIP3      H1            -34.2678946675       20.7579487907       74.4076723568  TIP3      8742            0.0000000000
     48478      8934  TIP3      H2            -33.0010906322       21.5448001442       74.3677883796  TIP3      8742            0.0000000000
     48479      8935  TIP3      OH2           -31.8607572870       20.9679329496       75.6204553132  TIP3      8743            0.0000000000
     48480      8935  TIP3      H1            -30.9782237945       20.6112445279       75.4062486743  TIP3      8743            0.0000000000
     48481      8935  TIP3      H2            -32.2634842801       20.1823802494       76.0425222145  TIP3      8743            0.0000000000
     48482      8936  TIP3      OH2           -23.4624952116       20.2528392678       75.8072368368  TIP3      8744            0.0000000000
     48483      8936  TIP3      H1            -23.3603228925       19.7915480771       76.6606225935  TIP3      8744            0.0000000000
     48484      8936  TIP3      H2            -22.5453520200       20.2314766698       75.4616428513  TIP3      8744            0.0000000000
     48485      8937  TIP3      OH2           -20.2106966934      -36.5054845131       74.6929654425  TIP3      8745            0.0000000000
     48486      8937  TIP3      H1            -20.8547870774      -36.9396371517       74.0630234855  TIP3      8745            0.0000000000
     48487      8937  TIP3      H2            -20.3606452494      -35.5816905338       74.6048619947  TIP3      8745            0.0000000000
     48488      8938  TIP3      OH2            -5.8138430785       30.1649248587       64.4028537873  TIP3      8746            0.0000000000
     48489      8938  TIP3      H1             -5.8291756611       31.1503103928       64.3949969828  TIP3      8746            0.0000000000
     48490      8938  TIP3      H2             -6.5466546987       29.9483017462       63.8071515645  TIP3      8746            0.0000000000
     48491      8939  TIP3      OH2            -6.9528986102       29.4443543928       67.9170870720  TIP3      8747            0.0000000000
     48492      8939  TIP3      H1             -6.9670202792       28.7954554971       68.6348662487  TIP3      8747            0.0000000000
     48493      8939  TIP3      H2             -7.3027137854       28.9350570643       67.1655767747  TIP3      8747            0.0000000000
     48494      8940  TIP3      OH2           -14.6017818743       29.1216596927       69.4691271019  TIP3      8748            0.0000000000
     48495      8940  TIP3      H1            -14.5179911373       28.4366178866       70.1650496344  TIP3      8748            0.0000000000
     48496      8940  TIP3      H2            -13.8528568448       29.6929593938       69.6925829441  TIP3      8748            0.0000000000
     48497      8941  TIP3      OH2            -3.2707659786       32.3791820517       66.2108146201  TIP3      8749            0.0000000000
     48498      8941  TIP3      H1             -3.6892195678       31.6671684106       66.7021796738  TIP3      8749            0.0000000000
     48499      8941  TIP3      H2             -3.2279542825       33.0989428622       66.8641053585  TIP3      8749            0.0000000000
     48500      8942  TIP3      OH2           -13.6579294091       33.5750435643       67.9992248796  TIP3      8750            0.0000000000
     48501      8942  TIP3      H1            -13.9912699964       32.7183583312       67.6614949958  TIP3      8750            0.0000000000
     48502      8942  TIP3      H2            -12.7057105323       33.3816262209       68.0042125865  TIP3      8750            0.0000000000
     48503      8943  TIP3      OH2           -17.0383578530       27.1249364812       63.4620938165  TIP3      8751            0.0000000000
     48504      8943  TIP3      H1            -17.4739111578       27.9958375440       63.3959240731  TIP3      8751            0.0000000000
     48505      8943  TIP3      H2            -17.5993247773       26.5846720713       62.8903551021  TIP3      8751            0.0000000000
     48506      8944  TIP3      OH2           -16.3253708653       29.3514018792       65.6089783409  TIP3      8752            0.0000000000
     48507      8944  TIP3      H1            -16.0500230714       28.5299751767       66.0582095975  TIP3      8752            0.0000000000
     48508      8944  TIP3      H2            -15.6312940532       29.4586110241       64.9409892476  TIP3      8752            0.0000000000
     48509      8945  TIP3      OH2            -8.5955028102       31.8194034331       68.3999104620  TIP3      8753            0.0000000000
     48510      8945  TIP3      H1             -8.2439707814       31.2152562054       67.7296452172  TIP3      8753            0.0000000000
     48511      8945  TIP3      H2             -7.7813935492       32.0207254043       68.8937792729  TIP3      8753            0.0000000000
     48512      8946  TIP3      OH2             0.0136600523       23.5092602022       69.1114965066  TIP3      8754            0.0000000000
     48513      8946  TIP3      H1              0.1936318554       24.0935564540       69.8794084079  TIP3      8754            0.0000000000
     48514      8946  TIP3      H2              0.5851826846       23.9271089263       68.4514128623  TIP3      8754            0.0000000000
     48515      8947  TIP3      OH2            -5.4118716686       26.3141376906       68.7033394077  TIP3      8755            0.0000000000
     48516      8947  TIP3      H1             -5.2444990363       25.3551584714       68.7082748509  TIP3      8755            0.0000000000
     48517      8947  TIP3      H2             -5.5152800629       26.4541020467       67.7422400623  TIP3      8755            0.0000000000
     48518      8948  TIP3      OH2           -12.2993481193       24.4036605175       65.9170827092  TIP3      8756            0.0000000000
     48519      8948  TIP3      H1            -12.1908245070       25.2376117364       65.4238429963  TIP3      8756            0.0000000000
     48520      8948  TIP3      H2            -12.6968119439       23.8294597394       65.2273686145  TIP3      8756            0.0000000000
     48521      8949  TIP3      OH2            -4.5618438373       24.4787460045       64.2892035067  TIP3      8757            0.0000000000
     48522      8949  TIP3      H1             -3.9108490387       24.1661067175       64.9593531926  TIP3      8757            0.0000000000
     48523      8949  TIP3      H2             -3.9977478178       25.0600291088       63.7583152866  TIP3      8757            0.0000000000
     48524      8950  TIP3      OH2           -15.6738992969       26.8135804620       66.6515339359  TIP3      8758            0.0000000000
     48525      8950  TIP3      H1            -15.0046481012       26.2696705897       67.1067660615  TIP3      8758            0.0000000000
     48526      8950  TIP3      H2            -15.5683604757       26.4990543474       65.7404419034  TIP3      8758            0.0000000000
     48527      8951  TIP3      OH2           -10.5176707838       28.3702371270       65.9735631960  TIP3      8759            0.0000000000
     48528      8951  TIP3      H1             -9.8441599040       27.7885593092       66.3658553894  TIP3      8759            0.0000000000
     48529      8951  TIP3      H2            -11.0310664435       27.7143766061       65.4619844359  TIP3      8759            0.0000000000
     48530      8952  TIP3      OH2             0.4583892577       24.9083731649       71.3931261941  TIP3      8760            0.0000000000
     48531      8952  TIP3      H1             -0.1456660469       25.6761882162       71.2808721910  TIP3      8760            0.0000000000
     48532      8952  TIP3      H2              0.4916126865       24.8302173674       72.3543232896  TIP3      8760            0.0000000000
     48533      8953  TIP3      OH2           -13.3883725245       23.3028526802       69.9573415809  TIP3      8761            0.0000000000
     48534      8953  TIP3      H1            -13.6707279809       23.8740851810       69.2116576313  TIP3      8761            0.0000000000
     48535      8953  TIP3      H2            -14.0660771460       23.5305166745       70.6395106036  TIP3      8761            0.0000000000
     48536      8954  TIP3      OH2            -6.1186719542       32.7562324221       63.5077904598  TIP3      8762            0.0000000000
     48537      8954  TIP3      H1             -6.3526667375       32.5209371639       62.6010069522  TIP3      8762            0.0000000000
     48538      8954  TIP3      H2             -6.4048025377       33.6900000133       63.5704454751  TIP3      8762            0.0000000000
     48539      8955  TIP3      OH2           -10.8800697041       30.9238845131       70.2083209403  TIP3      8763            0.0000000000
     48540      8955  TIP3      H1            -11.5813092796       31.5733113364       70.4237350285  TIP3      8763            0.0000000000
     48541      8955  TIP3      H2            -10.1702177000       31.5179130616       69.9108378507  TIP3      8763            0.0000000000
     48542      8956  TIP3      OH2            -2.7480207362       23.8305942958       66.2808434517  TIP3      8764            0.0000000000
     48543      8956  TIP3      H1             -2.9698626838       23.0612258439       66.8130842127  TIP3      8764            0.0000000000
     48544      8956  TIP3      H2             -2.0782155678       24.2653541177       66.8356285436  TIP3      8764            0.0000000000
     48545      8957  TIP3      OH2           -13.8205134067       25.1584889550       67.9936883425  TIP3      8765            0.0000000000
     48546      8957  TIP3      H1            -13.1923750521       25.8478802295       68.3039434734  TIP3      8765            0.0000000000
     48547      8957  TIP3      H2            -13.3049374988       24.7482892840       67.2546431871  TIP3      8765            0.0000000000
     48548      8958  TIP3      OH2           -12.4143558262       32.9481895102       71.0079716946  TIP3      8766            0.0000000000
     48549      8958  TIP3      H1            -12.4823138338       33.8506516115       70.6559824470  TIP3      8766            0.0000000000
     48550      8958  TIP3      H2            -13.3025410448       32.8644775585       71.4388552762  TIP3      8766            0.0000000000
     48551      8959  TIP3      OH2           -16.3541537403       32.6152826250       61.8128934834  TIP3      8767            0.0000000000
     48552      8959  TIP3      H1            -16.6139860179       32.9309022754       60.9300967301  TIP3      8767            0.0000000000
     48553      8959  TIP3      H2            -16.2700659483       33.4426794050       62.3234310845  TIP3      8767            0.0000000000
     48554      8960  TIP3      OH2            -2.7313315593       34.2530313420       68.6202127364  TIP3      8768            0.0000000000
     48555      8960  TIP3      H1             -3.7129403399       34.3326177996       68.7095246760  TIP3      8768            0.0000000000
     48556      8960  TIP3      H2             -2.4499903704       35.1441173316       68.3489439855  TIP3      8768            0.0000000000
     48557      8961  TIP3      OH2            -2.4167902075       22.5141344285       69.9569903167  TIP3      8769            0.0000000000
     48558      8961  TIP3      H1             -3.1410545915       23.1480195684       69.8646173013  TIP3      8769            0.0000000000
     48559      8961  TIP3      H2             -1.7032298260       22.9328642192       69.4349577379  TIP3      8769            0.0000000000
     48560      8962  TIP3      OH2            -9.4522456874       20.6365708289       67.4238582582  TIP3      8770            0.0000000000
     48561      8962  TIP3      H1             -9.5955650486       19.6731060969       67.3472556138  TIP3      8770            0.0000000000
     48562      8962  TIP3      H2            -10.3305399288       20.9421464253       67.7296324281  TIP3      8770            0.0000000000
     48563      8963  TIP3      OH2            -4.4474609741       35.7080336419       64.9782297760  TIP3      8771            0.0000000000
     48564      8963  TIP3      H1             -3.8823085815       35.0953476710       64.4696055551  TIP3      8771            0.0000000000
     48565      8963  TIP3      H2             -4.0500860032       36.5402825850       64.7355457778  TIP3      8771            0.0000000000
     48566      8964  TIP3      OH2            -3.2285887014       33.8439394925       63.6671648393  TIP3      8772            0.0000000000
     48567      8964  TIP3      H1             -3.5863880540       33.1837212628       63.0662263334  TIP3      8772            0.0000000000
     48568      8964  TIP3      H2             -3.2340949508       33.3920243490       64.5329462297  TIP3      8772            0.0000000000
     48569      8965  TIP3      OH2            -1.6363143432       32.5729498451       72.1613533627  TIP3      8773            0.0000000000
     48570      8965  TIP3      H1             -1.5126742780       31.8950881045       71.4628119885  TIP3      8773            0.0000000000
     48571      8965  TIP3      H2             -1.4155772987       33.3990610557       71.6992299515  TIP3      8773            0.0000000000
     48572      8966  TIP3      OH2            -7.1551132346       29.4211784614       61.9298755194  TIP3      8774            0.0000000000
     48573      8966  TIP3      H1             -7.8473518097       30.0022451113       61.5711646378  TIP3      8774            0.0000000000
     48574      8966  TIP3      H2             -6.4433415860       29.5211071157       61.2686807205  TIP3      8774            0.0000000000
     48575      8967  TIP3      OH2            -7.0728435747       27.9962037966       58.9409287003  TIP3      8775            0.0000000000
     48576      8967  TIP3      H1             -6.3676758408       27.9771591678       59.6055323953  TIP3      8775            0.0000000000
     48577      8967  TIP3      H2             -6.7664024694       27.2805048895       58.3722257529  TIP3      8775            0.0000000000
     48578      8968  TIP3      OH2             0.2362131864       28.8501533366       70.2114230849  TIP3      8776            0.0000000000
     48579      8968  TIP3      H1             -0.4225698794       29.5724965493       70.2483107425  TIP3      8776            0.0000000000
     48580      8968  TIP3      H2              0.7316518522       29.0841440435       69.4055328786  TIP3      8776            0.0000000000
     48581      8969  TIP3      OH2            -3.6975562885       29.6340872776       62.8540603796  TIP3      8777            0.0000000000
     48582      8969  TIP3      H1             -4.4486625966       29.8764159037       63.4493984990  TIP3      8777            0.0000000000
     48583      8969  TIP3      H2             -3.2297397878       28.9583675076       63.3758891208  TIP3      8777            0.0000000000
     48584      8970  TIP3      OH2            -3.7771841324       27.8037043276       71.9783310778  TIP3      8778            0.0000000000
     48585      8970  TIP3      H1             -3.7703939576       28.6239034074       72.4976363742  TIP3      8778            0.0000000000
     48586      8970  TIP3      H2             -4.4067147245       28.0937254722       71.2853004928  TIP3      8778            0.0000000000
     48587      8971  TIP3      OH2           -12.0954406258       30.2949513393       64.7715087542  TIP3      8779            0.0000000000
     48588      8971  TIP3      H1            -12.4143763536       29.9063777150       63.9211581818  TIP3      8779            0.0000000000
     48589      8971  TIP3      H2            -11.4792759004       29.6050092115       65.1041913146  TIP3      8779            0.0000000000
     48590      8972  TIP3      OH2           -10.7697059565       33.6990158840       67.4380963488  TIP3      8780            0.0000000000
     48591      8972  TIP3      H1            -10.7700770432       33.1542742160       66.6432206759  TIP3      8780            0.0000000000
     48592      8972  TIP3      H2            -10.0014551106       33.3334325504       67.9163757929  TIP3      8780            0.0000000000
     48593      8973  TIP3      OH2           -11.7677479882       29.0434499636       68.4319914823  TIP3      8781            0.0000000000
     48594      8973  TIP3      H1            -11.2169177155       29.1415617689       67.6306027175  TIP3      8781            0.0000000000
     48595      8973  TIP3      H2            -11.3756548618       29.7067861605       69.0426522719  TIP3      8781            0.0000000000
     48596      8974  TIP3      OH2            -5.3168858728       34.6116669939       69.1589932380  TIP3      8782            0.0000000000
     48597      8974  TIP3      H1             -5.6860548400       35.2422142153       69.7721915118  TIP3      8782            0.0000000000
     48598      8974  TIP3      H2             -5.6111365003       33.7558685018       69.5544229150  TIP3      8782            0.0000000000
     48599      8975  TIP3      OH2           -10.8143405761       33.4775748220       73.1289836721  TIP3      8783            0.0000000000
     48600      8975  TIP3      H1            -11.2463991196       34.2209527719       73.6096766015  TIP3      8783            0.0000000000
     48601      8975  TIP3      H2            -11.4805797605       33.2470141499       72.4297143892  TIP3      8783            0.0000000000
     48602      8976  TIP3      OH2            -4.8314020992       28.8388389633       60.5176254302  TIP3      8784            0.0000000000
     48603      8976  TIP3      H1             -4.2738817819       29.0070485759       61.3172134762  TIP3      8784            0.0000000000
     48604      8976  TIP3      H2             -4.3777554844       29.3281020680       59.7948027191  TIP3      8784            0.0000000000
     48605      8977  TIP3      OH2           -13.8671153878       29.6388384988       72.2763824988  TIP3      8785            0.0000000000
     48606      8977  TIP3      H1            -13.8144115740       30.3030179524       72.9888327774  TIP3      8785            0.0000000000
     48607      8977  TIP3      H2            -14.8111768346       29.7242991348       72.0740643081  TIP3      8785            0.0000000000
     48608      8978  TIP3      OH2            -7.1605950841       35.5297671684       63.9990502005  TIP3      8786            0.0000000000
     48609      8978  TIP3      H1             -6.6653422389       35.8509111697       64.7603338704  TIP3      8786            0.0000000000
     48610      8978  TIP3      H2             -7.6690299336       36.3007771997       63.7281846325  TIP3      8786            0.0000000000
     48611      8979  TIP3      OH2           -12.5842823080       35.4249499273       73.8617600952  TIP3      8787            0.0000000000
     48612      8979  TIP3      H1            -12.6580754784       35.3956160728       72.8857933387  TIP3      8787            0.0000000000
     48613      8979  TIP3      H2            -13.5233610370       35.3592993039       74.1304533675  TIP3      8787            0.0000000000
     48614      8980  TIP3      OH2            -1.1045518609       20.5705428755       60.4232156467  TIP3      8788            0.0000000000
     48615      8980  TIP3      H1             -2.0513946495       20.6856415836       60.6625489453  TIP3      8788            0.0000000000
     48616      8980  TIP3      H2             -0.9021966007       21.4107560797       59.9783787733  TIP3      8788            0.0000000000
     48617      8981  TIP3      OH2           -13.1339745759       29.3155182443       62.4016943913  TIP3      8789            0.0000000000
     48618      8981  TIP3      H1            -13.4111209797       30.1001532676       61.8814689996  TIP3      8789            0.0000000000
     48619      8981  TIP3      H2            -13.7799094036       28.6504378333       62.1527716274  TIP3      8789            0.0000000000
     48620      8982  TIP3      OH2             0.0533864755       34.8919286143       58.7626279204  TIP3      8790            0.0000000000
     48621      8982  TIP3      H1              0.1394805080       35.8508755653       58.9193315596  TIP3      8790            0.0000000000
     48622      8982  TIP3      H2              0.9863389837       34.6144873294       58.7813657948  TIP3      8790            0.0000000000
     48623      8983  TIP3      OH2           -17.0002178395       31.7405589009       71.2670457447  TIP3      8791            0.0000000000
     48624      8983  TIP3      H1            -17.4957223613       31.6731615650       70.4317866103  TIP3      8791            0.0000000000
     48625      8983  TIP3      H2            -16.9525329742       30.7944213694       71.4977533631  TIP3      8791            0.0000000000
     48626      8984  TIP3      OH2           -17.2429853369       34.4415197545       68.0993335443  TIP3      8792            0.0000000000
     48627      8984  TIP3      H1            -16.2858944529       34.3963455408       68.0120243483  TIP3      8792            0.0000000000
     48628      8984  TIP3      H2            -17.3374984828       35.2731646963       68.5902169743  TIP3      8792            0.0000000000
     48629      8985  TIP3      OH2             0.9236543899       35.1764961790       73.7853571008  TIP3      8793            0.0000000000
     48630      8985  TIP3      H1              0.8352729351       34.2149397303       73.7071801713  TIP3      8793            0.0000000000
     48631      8985  TIP3      H2              0.0566104248       35.4366210160       74.1618339964  TIP3      8793            0.0000000000
     48632      8986  TIP3      OH2            -8.0977887180       34.7511137210       72.6036337260  TIP3      8794            0.0000000000
     48633      8986  TIP3      H1             -7.9960925445       35.5492160287       73.1301881849  TIP3      8794            0.0000000000
     48634      8986  TIP3      H2             -8.9393596604       34.3454773258       72.8878106750  TIP3      8794            0.0000000000
     48635      8987  TIP3      OH2            -1.8815476145       26.6580042630       74.1869327040  TIP3      8795            0.0000000000
     48636      8987  TIP3      H1             -2.3773759149       27.1068396750       73.4831478245  TIP3      8795            0.0000000000
     48637      8987  TIP3      H2             -1.9109452559       25.7319405177       73.9049371232  TIP3      8795            0.0000000000
     48638      8988  TIP3      OH2           -14.7475589598       33.0800756069       72.2281379973  TIP3      8796            0.0000000000
     48639      8988  TIP3      H1            -14.5511025889       32.6945764792       73.1059352477  TIP3      8796            0.0000000000
     48640      8988  TIP3      H2            -15.6100370266       32.6830208819       71.9930933280  TIP3      8796            0.0000000000
     48641      8989  TIP3      OH2           -12.0676756417       21.5393629602       68.1736344209  TIP3      8797            0.0000000000
     48642      8989  TIP3      H1            -12.9707727253       21.4125030044       67.8066610492  TIP3      8797            0.0000000000
     48643      8989  TIP3      H2            -12.2022552594       22.3696371726       68.6596495940  TIP3      8797            0.0000000000
     48644      8990  TIP3      OH2            -7.4250300636       21.2041457147       71.5324681061  TIP3      8798            0.0000000000
     48645      8990  TIP3      H1             -7.0334677333       20.7821649131       72.3204681400  TIP3      8798            0.0000000000
     48646      8990  TIP3      H2             -8.3967756821       21.0855250642       71.6741003524  TIP3      8798            0.0000000000
     48647      8991  TIP3      OH2            -4.1354660002       25.0589583918       72.4427167046  TIP3      8799            0.0000000000
     48648      8991  TIP3      H1             -4.7047363395       24.8427632142       73.2205299216  TIP3      8799            0.0000000000
     48649      8991  TIP3      H2             -4.3239986507       25.9838059107       72.2108354124  TIP3      8799            0.0000000000
     48650      8992  TIP3      OH2            -3.3738929411       29.8616625786       58.3378527690  TIP3      8800            0.0000000000
     48651      8992  TIP3      H1             -3.4011643886       29.6797697469       57.3702550167  TIP3      8800            0.0000000000
     48652      8992  TIP3      H2             -2.5206041476       30.3145020053       58.3866930488  TIP3      8800            0.0000000000
     48653      8993  TIP3      OH2            -7.7844026077       23.7934484665       58.8438273543  TIP3      8801            0.0000000000
     48654      8993  TIP3      H1             -8.0988923218       23.7300865515       59.7641555563  TIP3      8801            0.0000000000
     48655      8993  TIP3      H2             -8.0920490469       22.9158083671       58.5378934061  TIP3      8801            0.0000000000
     48656      8994  TIP3      OH2           -11.9617786626       26.5175803249       69.4373486901  TIP3      8802            0.0000000000
     48657      8994  TIP3      H1            -12.7046875883       26.5038463826       70.0657057676  TIP3      8802            0.0000000000
     48658      8994  TIP3      H2            -12.0139201072       27.4226582377       69.0550422157  TIP3      8802            0.0000000000
     48659      8995  TIP3      OH2           -12.0047709733       26.6273474833       64.2913562885  TIP3      8803            0.0000000000
     48660      8995  TIP3      H1            -12.9435958174       26.3778194316       64.1599800031  TIP3      8803            0.0000000000
     48661      8995  TIP3      H2            -11.6293361354       26.3380259667       63.4358879250  TIP3      8803            0.0000000000
     48662      8996  TIP3      OH2            -6.4865116471       27.1330106257       63.0700414204  TIP3      8804            0.0000000000
     48663      8996  TIP3      H1             -6.8789316077       27.9558990632       62.6970472754  TIP3      8804            0.0000000000
     48664      8996  TIP3      H2             -5.7995158587       26.9635524818       62.4040094443  TIP3      8804            0.0000000000
     48665      8997  TIP3      OH2            -7.4456638312       27.3498835009       74.4955257046  TIP3      8805            0.0000000000
     48666      8997  TIP3      H1             -7.9509244953       26.5599918767       74.8024573667  TIP3      8805            0.0000000000
     48667      8997  TIP3      H2             -6.5950988399       27.2299132859       74.9513692032  TIP3      8805            0.0000000000
     48668      8998  TIP3      OH2            -5.4504064295       26.6251636475       65.9065222358  TIP3      8806            0.0000000000
     48669      8998  TIP3      H1             -5.7365832192       27.1871754759       65.1666527853  TIP3      8806            0.0000000000
     48670      8998  TIP3      H2             -5.3569470686       25.7741306016       65.4381531493  TIP3      8806            0.0000000000
     48671      8999  TIP3      OH2           -14.3459156751       26.7616470842       71.1067128896  TIP3      8807            0.0000000000
     48672      8999  TIP3      H1            -14.2613346747       27.1702544501       71.9853151324  TIP3      8807            0.0000000000
     48673      8999  TIP3      H2            -14.7860459341       25.9234042755       71.3202757818  TIP3      8807            0.0000000000
     48674      9000  TIP3      OH2           -10.9733120361       24.1595296322       57.9617401914  TIP3      8808            0.0000000000
     48675      9000  TIP3      H1            -11.4273133092       23.7383052689       58.7197618481  TIP3      8808            0.0000000000
     48676      9000  TIP3      H2            -11.6830217702       24.5911842135       57.4705303101  TIP3      8808            0.0000000000
     48677      9001  TIP3      OH2           -17.6863385087       23.8715365727       65.0963697463  TIP3      8809            0.0000000000
     48678      9001  TIP3      H1            -17.0018162929       23.8322034082       65.7966895684  TIP3      8809            0.0000000000
     48679      9001  TIP3      H2            -17.2387629883       23.4978582289       64.3152324629  TIP3      8809            0.0000000000
     48680      9002  TIP3      OH2           -16.4229189127       24.5901887812       60.4412090189  TIP3      8810            0.0000000000
     48681      9002  TIP3      H1            -15.9087291670       25.2026451059       59.8842485115  TIP3      8810            0.0000000000
     48682      9002  TIP3      H2            -17.1091922976       25.2136407102       60.7622567881  TIP3      8810            0.0000000000
     48683      9003  TIP3      OH2            -6.2555549681       28.2058658256       70.4603527799  TIP3      8811            0.0000000000
     48684      9003  TIP3      H1             -5.8750160046       27.5196338540       69.8753948111  TIP3      8811            0.0000000000
     48685      9003  TIP3      H2             -6.7227660522       27.6780033003       71.1327357090  TIP3      8811            0.0000000000
     48686      9004  TIP3      OH2            -9.4518396816       24.1886118192       65.2970502974  TIP3      8812            0.0000000000
     48687      9004  TIP3      H1            -10.3858479905       24.1882072695       65.5898380137  TIP3      8812            0.0000000000
     48688      9004  TIP3      H2             -8.9699178495       24.0130548864       66.1195345440  TIP3      8812            0.0000000000
     48689      9005  TIP3      OH2           -14.6432778447       25.7334581664       64.1660631022  TIP3      8813            0.0000000000
     48690      9005  TIP3      H1            -15.5268282197       25.8903066497       63.7743884364  TIP3      8813            0.0000000000
     48691      9005  TIP3      H2            -14.3588684880       24.8996800562       63.7562787972  TIP3      8813            0.0000000000
     48692      9006  TIP3      OH2           -10.9990497723       25.7811268788       61.7915823244  TIP3      8814            0.0000000000
     48693      9006  TIP3      H1            -10.0431856205       25.8924433804       61.9525070438  TIP3      8814            0.0000000000
     48694      9006  TIP3      H2            -11.2362428444       26.4642578021       61.1364850816  TIP3      8814            0.0000000000
     48695      9007  TIP3      OH2            -5.0444384729       23.4199622937       68.5342936459  TIP3      8815            0.0000000000
     48696      9007  TIP3      H1             -5.7289507470       23.4677666348       69.2414357216  TIP3      8815            0.0000000000
     48697      9007  TIP3      H2             -5.5562887504       23.1630429144       67.7535335886  TIP3      8815            0.0000000000
     48698      9008  TIP3      OH2           -12.2928147548       26.9578900045       59.3811787565  TIP3      8816            0.0000000000
     48699      9008  TIP3      H1            -12.8244569967       26.5710456582       58.6649197293  TIP3      8816            0.0000000000
     48700      9008  TIP3      H2            -11.4728113215       27.1653605662       58.9065491154  TIP3      8816            0.0000000000
     48701      9009  TIP3      OH2           -14.1664042277       31.5551025100       74.4377284992  TIP3      8817            0.0000000000
     48702      9009  TIP3      H1            -13.4570950846       31.7735509962       75.0689528060  TIP3      8817            0.0000000000
     48703      9009  TIP3      H2            -14.9452562837       31.5968266079       75.0328689835  TIP3      8817            0.0000000000
     48704      9010  TIP3      OH2            -8.1709386078       26.9403559801       67.1897956952  TIP3      8818            0.0000000000
     48705      9010  TIP3      H1             -7.5701301588       26.4075297198       66.6558232134  TIP3      8818            0.0000000000
     48706      9010  TIP3      H2             -8.3153762150       26.3907083009       67.9718163237  TIP3      8818            0.0000000000
     48707      9011  TIP3      OH2           -13.1594843953       23.0852202208       63.6268449481  TIP3      8819            0.0000000000
     48708      9011  TIP3      H1            -13.4692950382       22.1612739163       63.6190807518  TIP3      8819            0.0000000000
     48709      9011  TIP3      H2            -12.3688270973       23.0173526629       63.0776910548  TIP3      8819            0.0000000000
     48710      9012  TIP3      OH2            -9.5312369147       25.2670739342       69.6038073779  TIP3      8820            0.0000000000
     48711      9012  TIP3      H1            -10.3557216725       25.7863133791       69.6924620663  TIP3      8820            0.0000000000
     48712      9012  TIP3      H2             -8.9760797698       25.6195451218       70.3260020279  TIP3      8820            0.0000000000
     48713      9013  TIP3      OH2            -8.9486648953       31.4741425603       61.3093653117  TIP3      8821            0.0000000000
     48714      9013  TIP3      H1             -9.7488296606       31.0130238213       60.9730087738  TIP3      8821            0.0000000000
     48715      9013  TIP3      H2             -9.1681782907       31.6010626840       62.2527469448  TIP3      8821            0.0000000000
     48716      9014  TIP3      OH2            -1.7504729721       30.6873242087       70.1041872993  TIP3      8822            0.0000000000
     48717      9014  TIP3      H1             -1.1915899628       31.1881692128       69.4801113619  TIP3      8822            0.0000000000
     48718      9014  TIP3      H2             -2.6123942040       30.7385798689       69.6422623029  TIP3      8822            0.0000000000
     48719      9015  TIP3      OH2            -5.1144473959       24.3033413029       59.4767364465  TIP3      8823            0.0000000000
     48720      9015  TIP3      H1             -6.0652396831       24.4578778879       59.3415203311  TIP3      8823            0.0000000000
     48721      9015  TIP3      H2             -4.7730463099       25.1544680983       59.8268323964  TIP3      8823            0.0000000000
     48722      9016  TIP3      OH2            -7.4841224029       31.7707547699       72.5287443918  TIP3      8824            0.0000000000
     48723      9016  TIP3      H1             -7.8017902334       31.3468582671       73.3355995497  TIP3      8824            0.0000000000
     48724      9016  TIP3      H2             -7.6954485575       32.7003851161       72.6553312729  TIP3      8824            0.0000000000
     48725      9017  TIP3      OH2            -4.3763806494       26.2257171113       61.0998760429  TIP3      8825            0.0000000000
     48726      9017  TIP3      H1             -3.4950459469       26.0922137692       61.5096004471  TIP3      8825            0.0000000000
     48727      9017  TIP3      H2             -4.2710184989       27.0463801112       60.5903359318  TIP3      8825            0.0000000000
     48728      9018  TIP3      OH2           -13.8365118669       30.8823445666       67.1014277454  TIP3      8826            0.0000000000
     48729      9018  TIP3      H1            -13.1497215572       30.8119119444       66.4080579352  TIP3      8826            0.0000000000
     48730      9018  TIP3      H2            -13.7714688107       30.0241235446       67.5574355435  TIP3      8826            0.0000000000
     48731      9019  TIP3      OH2            -6.8540301610       32.9401267503       60.3266526172  TIP3      8827            0.0000000000
     48732      9019  TIP3      H1             -7.1802005418       33.7986541602       60.6634138958  TIP3      8827            0.0000000000
     48733      9019  TIP3      H2             -7.5834747217       32.3373004103       60.5679401618  TIP3      8827            0.0000000000
     48734      9020  TIP3      OH2           -16.8443759933       29.2934251397       72.3704488371  TIP3      8828            0.0000000000
     48735      9020  TIP3      H1            -16.6705891532       28.8426298753       73.2180002026  TIP3      8828            0.0000000000
     48736      9020  TIP3      H2            -17.4615107180       28.6825326210       71.9243037318  TIP3      8828            0.0000000000
     48737      9021  TIP3      OH2            -9.8381445495       28.8463211120       74.5495387851  TIP3      8829            0.0000000000
     48738      9021  TIP3      H1            -10.1528355003       28.5380757550       73.6869816677  TIP3      8829            0.0000000000
     48739      9021  TIP3      H2             -8.9102144269       28.5306395824       74.5392455530  TIP3      8829            0.0000000000
     48740      9022  TIP3      OH2            -5.1681218126       34.2449598342       72.4299265922  TIP3      8830            0.0000000000
     48741      9022  TIP3      H1             -6.1052720769       34.3209407178       72.2394336640  TIP3      8830            0.0000000000
     48742      9022  TIP3      H2             -5.1878627287       34.4210106573       73.4033887815  TIP3      8830            0.0000000000
     48743      9023  TIP3      OH2             0.5278772570       26.3554045454       60.8773231849  TIP3      8831            0.0000000000
     48744      9023  TIP3      H1             -0.0440418628       26.0755083436       60.1389967303  TIP3      8831            0.0000000000
     48745      9023  TIP3      H2              0.6016279612       27.3066466366       60.6289580003  TIP3      8831            0.0000000000
     48746      9024  TIP3      OH2             0.5443789060       32.2062266064       73.6664638868  TIP3      8832            0.0000000000
     48747      9024  TIP3      H1             -0.3544228848       32.4453209614       73.3310635333  TIP3      8832            0.0000000000
     48748      9024  TIP3      H2              1.0639973941       32.1576000300       72.8409446126  TIP3      8832            0.0000000000
     48749      9025  TIP3      OH2            -1.0471661267       34.9453471593       61.4896272990  TIP3      8833            0.0000000000
     48750      9025  TIP3      H1             -1.6137247643       34.2011267637       61.6166691706  TIP3      8833            0.0000000000
     48751      9025  TIP3      H2             -0.9385139858       35.0305012035       60.5259275433  TIP3      8833            0.0000000000
     48752      9026  TIP3      OH2            -3.9775034646       30.0049686491       68.3919805590  TIP3      8834            0.0000000000
     48753      9026  TIP3      H1             -4.9186182890       29.7981394018       68.2773158555  TIP3      8834            0.0000000000
     48754      9026  TIP3      H2             -3.5460502563       29.2495503979       67.9505387574  TIP3      8834            0.0000000000
     48755      9027  TIP3      OH2           -11.4192356597       34.3032212687       64.3951178595  TIP3      8835            0.0000000000
     48756      9027  TIP3      H1            -10.9581911040       35.1465724304       64.3177441922  TIP3      8835            0.0000000000
     48757      9027  TIP3      H2            -12.3339611307       34.5386208591       64.2003805091  TIP3      8835            0.0000000000
     48758      9028  TIP3      OH2           -15.6922362320       29.1763252926       59.0563645416  TIP3      8836            0.0000000000
     48759      9028  TIP3      H1            -15.1122571431       29.8336881181       59.4751007803  TIP3      8836            0.0000000000
     48760      9028  TIP3      H2            -16.5824400677       29.4906566467       59.3053527160  TIP3      8836            0.0000000000
     48761      9029  TIP3      OH2           -10.0227249162       31.9924623476       64.0042412462  TIP3      8837            0.0000000000
     48762      9029  TIP3      H1            -10.3407057021       32.9134205722       64.0934705327  TIP3      8837            0.0000000000
     48763      9029  TIP3      H2            -10.7528123256       31.5116408677       64.4434221742  TIP3      8837            0.0000000000
     48764      9030  TIP3      OH2            -9.2841675059       35.8672546882       70.0987588757  TIP3      8838            0.0000000000
     48765      9030  TIP3      H1             -9.1413853146       36.8192639586       70.0274147051  TIP3      8838            0.0000000000
     48766      9030  TIP3      H2             -8.9762640855       35.7159234140       71.0045020057  TIP3      8838            0.0000000000
     48767      9031  TIP3      OH2            -6.0666797044       32.1887167453       70.0375289250  TIP3      8839            0.0000000000
     48768      9031  TIP3      H1             -6.4081764907       31.9680229705       70.9278444987  TIP3      8839            0.0000000000
     48769      9031  TIP3      H2             -5.4333258982       31.4766263763       69.8625124646  TIP3      8839            0.0000000000
     48770      9032  TIP3      OH2            -3.7308427513       33.2393418516       59.1080568767  TIP3      8840            0.0000000000
     48771      9032  TIP3      H1             -3.4343544202       32.8030310948       59.9340941175  TIP3      8840            0.0000000000
     48772      9032  TIP3      H2             -4.6857706616       33.0876761697       59.2049927277  TIP3      8840            0.0000000000
     48773      9033  TIP3      OH2           -15.1925089560       24.0249950635       71.9138225239  TIP3      8841            0.0000000000
     48774      9033  TIP3      H1            -16.0999103422       24.3744254603       71.8918036509  TIP3      8841            0.0000000000
     48775      9033  TIP3      H2            -15.3042338561       23.1776730462       72.3734897883  TIP3      8841            0.0000000000
     48776      9034  TIP3      OH2            -2.9614029573       31.8341177502       61.3449477322  TIP3      8842            0.0000000000
     48777      9034  TIP3      H1             -3.1898383190       31.0844813951       61.9303935469  TIP3      8842            0.0000000000
     48778      9034  TIP3      H2             -2.0179418007       31.9533461412       61.5461167501  TIP3      8842            0.0000000000
     48779      9035  TIP3      OH2           -15.5780621254       35.7721573036       70.3315254679  TIP3      8843            0.0000000000
     48780      9035  TIP3      H1            -15.2865179245       34.8590679029       70.3751833155  TIP3      8843            0.0000000000
     48781      9035  TIP3      H2            -15.3911933002       36.1152364121       71.2163919812  TIP3      8843            0.0000000000
     48782      9036  TIP3      OH2            -9.5971559276       34.3142411187       57.6002166685  TIP3      8844            0.0000000000
     48783      9036  TIP3      H1             -9.5158950002       33.5405781396       57.0221112549  TIP3      8844            0.0000000000
     48784      9036  TIP3      H2            -10.0314372832       33.8988296938       58.3792237477  TIP3      8844            0.0000000000
     48785      9037  TIP3      OH2           -10.8515955769       33.8178969413       60.0584445710  TIP3      8845            0.0000000000
     48786      9037  TIP3      H1            -10.5726635769       33.3286551325       60.8435026301  TIP3      8845            0.0000000000
     48787      9037  TIP3      H2            -10.7281252229       34.7537313471       60.3313566926  TIP3      8845            0.0000000000
     48788      9038  TIP3      OH2           -14.2900140484       31.1132747846       60.5546356093  TIP3      8846            0.0000000000
     48789      9038  TIP3      H1            -15.0058428084       31.5097861040       61.0884912524  TIP3      8846            0.0000000000
     48790      9038  TIP3      H2            -13.7871009872       31.8961848446       60.2602983559  TIP3      8846            0.0000000000
     48791      9039  TIP3      OH2            -6.4602889666       23.7951905655       70.8753571974  TIP3      8847            0.0000000000
     48792      9039  TIP3      H1             -5.7456788392       23.8560593677       71.5183926597  TIP3      8847            0.0000000000
     48793      9039  TIP3      H2             -6.8438210523       22.9191435306       71.0797846146  TIP3      8847            0.0000000000
     48794      9040  TIP3      OH2            -5.7180209550       23.3622684962       61.9602377177  TIP3      8848            0.0000000000
     48795      9040  TIP3      H1             -5.4857087332       23.8267813676       61.1315005892  TIP3      8848            0.0000000000
     48796      9040  TIP3      H2             -5.1400526500       23.8060930798       62.5938801870  TIP3      8848            0.0000000000
     48797      9041  TIP3      OH2            -7.9832248922       35.5566787937       60.7902533885  TIP3      8849            0.0000000000
     48798      9041  TIP3      H1             -8.8362836145       36.0287468077       60.8337042592  TIP3      8849            0.0000000000
     48799      9041  TIP3      H2             -7.5120490015       36.0615298796       60.1111767398  TIP3      8849            0.0000000000
     48800      9042  TIP3      OH2            -8.4843676218       25.1156218529       62.7806965768  TIP3      8850            0.0000000000
     48801      9042  TIP3      H1             -7.7030766073       25.6994282806       62.8272918780  TIP3      8850            0.0000000000
     48802      9042  TIP3      H2             -8.7497803887       24.9970808203       63.7118643109  TIP3      8850            0.0000000000
     48803      9043  TIP3      OH2            -7.9258895653       26.1473013508       71.9737316617  TIP3      8851            0.0000000000
     48804      9043  TIP3      H1             -7.8553706377       26.6955633724       72.7776454511  TIP3      8851            0.0000000000
     48805      9043  TIP3      H2             -7.2698123605       25.4457055672       72.0686372401  TIP3      8851            0.0000000000
     48806      9044  TIP3      OH2            -7.6391725794       22.1720818946       63.6595534516  TIP3      8852            0.0000000000
     48807      9044  TIP3      H1             -7.9604688682       22.8195337200       64.3111069727  TIP3      8852            0.0000000000
     48808      9044  TIP3      H2             -6.9435641873       22.7188626889       63.2200863542  TIP3      8852            0.0000000000
     48809      9045  TIP3      OH2           -10.5783224344      -36.4692357719       60.8225022176  TIP3      8853            0.0000000000
     48810      9045  TIP3      H1            -10.5497556996      -35.6802269525       60.2474085595  TIP3      8853            0.0000000000
     48811      9045  TIP3      H2            -10.8714582916      -36.0972227823       61.6687670541  TIP3      8853            0.0000000000
     48812      9046  TIP3      OH2           -11.9797403702       23.2793697392       60.3734242942  TIP3      8854            0.0000000000
     48813      9046  TIP3      H1            -12.0295948213       24.1777866740       60.7576946166  TIP3      8854            0.0000000000
     48814      9046  TIP3      H2            -11.0703616607       23.0351271029       60.6362362111  TIP3      8854            0.0000000000
     48815      9047  TIP3      OH2            -1.7561340208       24.0110459053       72.8168987618  TIP3      8855            0.0000000000
     48816      9047  TIP3      H1             -2.6832381111       24.3271555188       72.6876009056  TIP3      8855            0.0000000000
     48817      9047  TIP3      H2             -1.4546273275       23.9969788395       71.8933378861  TIP3      8855            0.0000000000
     48818      9048  TIP3      OH2            -3.1378966952       27.7968443417       66.8202261611  TIP3      8856            0.0000000000
     48819      9048  TIP3      H1             -3.9649677309       27.3494551729       66.5551963985  TIP3      8856            0.0000000000
     48820      9048  TIP3      H2             -2.6585911880       27.1120907948       67.3394249880  TIP3      8856            0.0000000000
     48821      9049  TIP3      OH2           -13.7275729181       33.7194781998       59.4145063694  TIP3      8857            0.0000000000
     48822      9049  TIP3      H1            -13.0544306768       34.3587802075       59.6897926163  TIP3      8857            0.0000000000
     48823      9049  TIP3      H2            -13.2192597523       33.2478342201       58.7287983880  TIP3      8857            0.0000000000
     48824      9050  TIP3      OH2           -15.4022917288       26.3942286150       58.5597682930  TIP3      8858            0.0000000000
     48825      9050  TIP3      H1            -15.3839361525       27.3529368010       58.7669211378  TIP3      8858            0.0000000000
     48826      9050  TIP3      H2            -16.2942658698       26.2211692055       58.2517138873  TIP3      8858            0.0000000000
     48827      9051  TIP3      OH2           -14.5857382703       21.1796488906       67.3049044402  TIP3      8859            0.0000000000
     48828      9051  TIP3      H1            -14.7790629791       21.1972458912       66.3413598373  TIP3      8859            0.0000000000
     48829      9051  TIP3      H2            -14.9994807501       20.3266753660       67.5549999635  TIP3      8859            0.0000000000
     48830      9052  TIP3      OH2           -15.6209228335       35.1053514941       63.4198461342  TIP3      8860            0.0000000000
     48831      9052  TIP3      H1            -16.4892900055       35.5288885035       63.4127598638  TIP3      8860            0.0000000000
     48832      9052  TIP3      H2            -15.1281903169       35.5909244934       62.7524860632  TIP3      8860            0.0000000000
     48833      9053  TIP3      OH2           -11.4450783858       36.3918081139       76.5740285226  TIP3      8861            0.0000000000
     48834      9053  TIP3      H1            -10.6130313485       35.9273349157       76.7245225002  TIP3      8861            0.0000000000
     48835      9053  TIP3      H2            -11.5372558352       36.2177533837       75.6123089800  TIP3      8861            0.0000000000
     48836      9054  TIP3      OH2            -7.5838778674       36.1143227940       57.8474591181  TIP3      8862            0.0000000000
     48837      9054  TIP3      H1             -8.3282426987       35.4923420961       57.9271459311  TIP3      8862            0.0000000000
     48838      9054  TIP3      H2             -6.8824958033       35.5829994278       57.4699805431  TIP3      8862            0.0000000000
     48839      9055  TIP3      OH2            -5.1489632731       34.6791417854       74.9412835625  TIP3      8863            0.0000000000
     48840      9055  TIP3      H1             -5.6445590454       34.0220962501       75.4639323721  TIP3      8863            0.0000000000
     48841      9055  TIP3      H2             -4.5752486483       35.0724984273       75.6108270163  TIP3      8863            0.0000000000
     48842      9056  TIP3      OH2            -2.9061070769       35.8751694325       58.0633310648  TIP3      8864            0.0000000000
     48843      9056  TIP3      H1             -2.6366681990       35.0403474790       58.4590319911  TIP3      8864            0.0000000000
     48844      9056  TIP3      H2             -2.1842971759       36.0915981510       57.4403647190  TIP3      8864            0.0000000000
     48845      9057  TIP3      OH2           -16.5275301873       31.4939702603       75.7142031580  TIP3      8865            0.0000000000
     48846      9057  TIP3      H1            -16.3507063536       30.5960798325       75.3826149848  TIP3      8865            0.0000000000
     48847      9057  TIP3      H2            -17.2540355370       31.8018037600       75.1342120081  TIP3      8865            0.0000000000
     48848      9058  TIP3      OH2           -12.1654291630       31.8477915249       57.7457054007  TIP3      8866            0.0000000000
     48849      9058  TIP3      H1            -12.0153341739       31.0914247777       58.3371378405  TIP3      8866            0.0000000000
     48850      9058  TIP3      H2            -11.4122202745       31.7436854571       57.1319114311  TIP3      8866            0.0000000000
     48851      9059  TIP3      OH2            -9.7807948397       31.4907827604       75.1055743665  TIP3      8867            0.0000000000
     48852      9059  TIP3      H1            -10.1302274417       31.8149221248       74.2557513323  TIP3      8867            0.0000000000
     48853      9059  TIP3      H2             -9.7314233487       30.5104173917       74.9916436891  TIP3      8867            0.0000000000
     48854      9060  TIP3      OH2            -6.7196290891       32.9956306067       57.5234521247  TIP3      8868            0.0000000000
     48855      9060  TIP3      H1             -7.0251782930       33.0829320646       58.4398737585  TIP3      8868            0.0000000000
     48856      9060  TIP3      H2             -6.9211786030       32.0419476014       57.3788988107  TIP3      8868            0.0000000000
     48857      9061  TIP3      OH2            -4.0995275630       31.3726310886       72.5018813477  TIP3      8869            0.0000000000
     48858      9061  TIP3      H1             -3.3107708068       31.9473430489       72.4205466561  TIP3      8869            0.0000000000
     48859      9061  TIP3      H2             -4.7994726607       32.0381443288       72.5479098413  TIP3      8869            0.0000000000
     48860      9062  TIP3      OH2           -15.5896654584       28.7698934257       75.1044115306  TIP3      8870            0.0000000000
     48861      9062  TIP3      H1            -15.1808057466       27.9021220791       75.0073034428  TIP3      8870            0.0000000000
     48862      9062  TIP3      H2            -15.8213594378       28.7660469079       76.0510675227  TIP3      8870            0.0000000000
     48863      9063  TIP3      OH2           -10.9629234045       29.8871506443       60.1756896132  TIP3      8871            0.0000000000
     48864      9063  TIP3      H1            -11.4659988612       29.3477219401       60.8037866813  TIP3      8871            0.0000000000
     48865      9063  TIP3      H2            -10.6640454376       29.2140915957       59.5205317588  TIP3      8871            0.0000000000
     48866      9064  TIP3      OH2           -11.6974060166       27.6948412882       72.4607702777  TIP3      8872            0.0000000000
     48867      9064  TIP3      H1            -12.2922206693       28.4170264304       72.7177809839  TIP3      8872            0.0000000000
     48868      9064  TIP3      H2            -11.2976235419       28.0625796681       71.6539448746  TIP3      8872            0.0000000000
     48869      9065  TIP3      OH2            -9.8855227369       28.1105718699       58.3740550983  TIP3      8873            0.0000000000
     48870      9065  TIP3      H1            -10.0368587524       28.0203256541       57.4110647835  TIP3      8873            0.0000000000
     48871      9065  TIP3      H2             -8.9093056634       28.1623541325       58.4401029366  TIP3      8873            0.0000000000
     48872      9066  TIP3      OH2            -6.6267157966       30.2500640365       75.8084074327  TIP3      8874            0.0000000000
     48873      9066  TIP3      H1             -5.6692780535       30.2609396759       75.6822151639  TIP3      8874            0.0000000000
     48874      9066  TIP3      H2             -6.7831003494       29.5027898658       76.4079643355  TIP3      8874            0.0000000000
     48875      9067  TIP3      OH2            -0.5466853762       30.4220035540       57.7829718247  TIP3      8875            0.0000000000
     48876      9067  TIP3      H1             -0.7472855280       30.0464794009       56.9114722867  TIP3      8875            0.0000000000
     48877      9067  TIP3      H2             -0.4799143094       31.3890746748       57.5978687910  TIP3      8875            0.0000000000
     48878      9068  TIP3      OH2           -11.2768089794       25.0847550676       73.5006653844  TIP3      8876            0.0000000000
     48879      9068  TIP3      H1            -11.1719568892       24.3652376389       72.8513108974  TIP3      8876            0.0000000000
     48880      9068  TIP3      H2            -11.3323470851       25.8924671392       72.9536709026  TIP3      8876            0.0000000000
     48881      9069  TIP3      OH2           -10.8842757678       23.4532501859       71.0723684922  TIP3      8877            0.0000000000
     48882      9069  TIP3      H1            -10.3767651311       23.9197860456       70.3660137003  TIP3      8877            0.0000000000
     48883      9069  TIP3      H2            -11.7784809460       23.3764009741       70.6674556895  TIP3      8877            0.0000000000
     48884      9070  TIP3      OH2            -9.3466414466       28.9436694458       71.3203911418  TIP3      8878            0.0000000000
     48885      9070  TIP3      H1             -8.5947820411       28.7770794671       70.7451902169  TIP3      8878            0.0000000000
     48886      9070  TIP3      H2             -9.7132181792       29.7749880694       70.9805472684  TIP3      8878            0.0000000000
     48887      9071  TIP3      OH2            -4.9699624071       26.6847986643       76.2643436199  TIP3      8879            0.0000000000
     48888      9071  TIP3      H1             -4.7206202530       25.7510788132       76.1950742747  TIP3      8879            0.0000000000
     48889      9071  TIP3      H2             -4.1091359901       27.1390169824       76.3120815060  TIP3      8879            0.0000000000
     48890      9072  TIP3      OH2            -3.6107382437       29.5026125294       74.4505336824  TIP3      8880            0.0000000000
     48891      9072  TIP3      H1             -3.8612222696       30.2128093141       73.8213585770  TIP3      8880            0.0000000000
     48892      9072  TIP3      H2             -2.6552353456       29.4705570908       74.2505113252  TIP3      8880            0.0000000000
     48893      9073  TIP3      OH2           -12.8055480553       26.3158440615       75.4620031977  TIP3      8881            0.0000000000
     48894      9073  TIP3      H1            -13.5922223093       25.7640442864       75.2653128943  TIP3      8881            0.0000000000
     48895      9073  TIP3      H2            -12.1767983428       25.9599325478       74.8019758396  TIP3      8881            0.0000000000
     48896      9074  TIP3      OH2           -10.1058481372       20.8860949121       71.4794876294  TIP3      8882            0.0000000000
     48897      9074  TIP3      H1            -10.2783232465       21.8500963980       71.3674069162  TIP3      8882            0.0000000000
     48898      9074  TIP3      H2            -10.8452888090       20.5222167290       70.9616495032  TIP3      8882            0.0000000000
     48899      9075  TIP3      OH2            -8.8153406197       25.2167232899       75.0836745274  TIP3      8883            0.0000000000
     48900      9075  TIP3      H1             -9.1406575132       25.0044076688       75.9822905123  TIP3      8883            0.0000000000
     48901      9075  TIP3      H2             -9.5973347583       25.0248416834       74.5295235451  TIP3      8883            0.0000000000
     48902      9076  TIP3      OH2            -6.1105659041       24.3530459770       74.1620642789  TIP3      8884            0.0000000000
     48903      9076  TIP3      H1             -7.0707864760       24.4193257244       74.2966093315  TIP3      8884            0.0000000000
     48904      9076  TIP3      H2             -5.8442245150       23.7176148978       74.8558742339  TIP3      8884            0.0000000000
     48905      9077  TIP3      OH2            -4.5703029064       22.9899848995       76.0816583507  TIP3      8885            0.0000000000
     48906      9077  TIP3      H1             -4.5706300174       22.0103397521       76.0996289843  TIP3      8885            0.0000000000
     48907      9077  TIP3      H2             -4.7927647989       23.2705437882       76.9979381124  TIP3      8885            0.0000000000
     48908      9078  TIP3      OH2           -14.7307442448       24.2603812069       75.1970849854  TIP3      8886            0.0000000000
     48909      9078  TIP3      H1            -14.4964412390       23.5212918844       74.6085180089  TIP3      8886            0.0000000000
     48910      9078  TIP3      H2            -14.8348560231       23.8130927804       76.0609411542  TIP3      8886            0.0000000000
     48911      9079  TIP3      OH2            -9.8799765767       20.2772919055       74.1709501777  TIP3      8887            0.0000000000
     48912      9079  TIP3      H1             -9.1946633730       19.5796768619       74.1404233572  TIP3      8887            0.0000000000
     48913      9079  TIP3      H2             -9.9867074263       20.4337102625       73.2146839287  TIP3      8887            0.0000000000
     48914      9080  TIP3      OH2            -9.5479683526       21.8755707238       76.2728642588  TIP3      8888            0.0000000000
     48915      9080  TIP3      H1             -9.6948372446       21.3810635772       75.4263072203  TIP3      8888            0.0000000000
     48916      9080  TIP3      H2            -10.1047905021       22.6680516152       76.1549749508  TIP3      8888            0.0000000000
     48917      9081  TIP3      OH2           -16.4722162831       33.3871706677       58.8923147845  TIP3      8889            0.0000000000
     48918      9081  TIP3      H1            -15.5218141104       33.4879952485       59.1202673710  TIP3      8889            0.0000000000
     48919      9081  TIP3      H2            -16.4163101930       32.7145745494       58.1759682546  TIP3      8889            0.0000000000
     48920      9082  TIP3      OH2            -1.2807068332       33.0136967692       76.2707218480  TIP3      8890            0.0000000000
     48921      9082  TIP3      H1             -2.1858917806       32.9405908720       76.6716731748  TIP3      8890            0.0000000000
     48922      9082  TIP3      H2             -0.9392787910       33.7954724967       76.7690117589  TIP3      8890            0.0000000000
     48923      9083  TIP3      OH2            -0.0190263565       31.3170929851       61.7293837758  TIP3      8891            0.0000000000
     48924      9083  TIP3      H1              0.8253842767       31.7497041203       61.9357676589  TIP3      8891            0.0000000000
     48925      9083  TIP3      H2             -0.0368474383       30.6187687485       62.4171819447  TIP3      8891            0.0000000000
     48926      9084  TIP3      OH2             0.3360595466       29.4233705516       63.6321689736  TIP3      8892            0.0000000000
     48927      9084  TIP3      H1             -0.4133071178       28.9185204321       64.0237931015  TIP3      8892            0.0000000000
     48928      9084  TIP3      H2              0.9373293271       29.5485968454       64.3956401030  TIP3      8892            0.0000000000
     48929      9085  TIP3      OH2             0.1005157319       32.1127205890       68.6387203728  TIP3      8893            0.0000000000
     48930      9085  TIP3      H1              0.9031851379       31.7404355326       68.2366023392  TIP3      8893            0.0000000000
     48931      9085  TIP3      H2              0.2397221538       33.0668840213       68.4622551000  TIP3      8893            0.0000000000
     48932      9086  TIP3      OH2            -1.4122586566       34.9999155064       70.9335110908  TIP3      8894            0.0000000000
     48933      9086  TIP3      H1             -2.1084865027       35.3801686234       71.4674949978  TIP3      8894            0.0000000000
     48934      9086  TIP3      H2             -1.9109115477       34.6427579318       70.1611630193  TIP3      8894            0.0000000000
     48935      9087  TIP3      OH2             0.6462902744       29.2392491165       60.0191240408  TIP3      8895            0.0000000000
     48936      9087  TIP3      H1              0.0733654566       29.5979561644       59.3052485626  TIP3      8895            0.0000000000
     48937      9087  TIP3      H2              0.5417334800       29.9531551659       60.6798562801  TIP3      8895            0.0000000000
     48938      9088  TIP3      OH2            -0.9886921079       26.4742539543       58.5304310101  TIP3      8896            0.0000000000
     48939      9088  TIP3      H1             -0.9124449866       27.1407083512       57.8370312603  TIP3      8896            0.0000000000
     48940      9088  TIP3      H2             -1.1752794991       25.6524123633       58.0358897030  TIP3      8896            0.0000000000
     48941      9089  TIP3      OH2            -1.8428499363       27.8950729717       64.1977419102  TIP3      8897            0.0000000000
     48942      9089  TIP3      H1             -1.9912430876       26.9407487195       64.1582540108  TIP3      8897            0.0000000000
     48943      9089  TIP3      H2             -2.1738443121       28.1110200769       65.0896209267  TIP3      8897            0.0000000000
     48944      9090  TIP3      OH2           -16.8389043409       29.9834627808       68.2554275248  TIP3      8898            0.0000000000
     48945      9090  TIP3      H1            -16.6596468529       29.8992937229       67.2924347570  TIP3      8898            0.0000000000
     48946      9090  TIP3      H2            -15.9446714266       29.8066276533       68.6096480057  TIP3      8898            0.0000000000
     48947      9091  TIP3      OH2            -0.9814677003       29.8660882975       73.8986835145  TIP3      8899            0.0000000000
     48948      9091  TIP3      H1             -0.3691979462       29.1071406522       74.0119618850  TIP3      8899            0.0000000000
     48949      9091  TIP3      H2             -0.3761082874       30.6372685704       73.8846858244  TIP3      8899            0.0000000000
     48950      9092  TIP3      OH2             0.5070816273       27.7489659475       74.5529323605  TIP3      8900            0.0000000000
     48951      9092  TIP3      H1             -0.3660544144       27.3435697682       74.3622531890  TIP3      8900            0.0000000000
     48952      9092  TIP3      H2              1.0860627302       26.9732389289       74.4662254550  TIP3      8900            0.0000000000
     48953      9093  TIP3      OH2            -1.7395977868       23.9515290244       57.6672370515  TIP3      8901            0.0000000000
     48954      9093  TIP3      H1             -1.1523689159       23.5110658266       58.3104486654  TIP3      8901            0.0000000000
     48955      9093  TIP3      H2             -2.6050250446       23.5333601191       57.8198038675  TIP3      8901            0.0000000000
     48956      9094  TIP3      OH2            -2.1984965363       25.4778932682       62.6110375867  TIP3      8902            0.0000000000
     48957      9094  TIP3      H1             -1.8791007080       24.5592116768       62.7721001944  TIP3      8902            0.0000000000
     48958      9094  TIP3      H2             -1.3798007738       25.8906864423       62.3020134713  TIP3      8902            0.0000000000
     48959      9095  TIP3      OH2            -1.5365429646       26.0240105516       68.0984139261  TIP3      8903            0.0000000000
     48960      9095  TIP3      H1             -0.5756917800       26.2547016251       68.0817107086  TIP3      8903            0.0000000000
     48961      9095  TIP3      H2             -1.7233186648       26.1646660696       69.0389112319  TIP3      8903            0.0000000000
     48962      9096  TIP3      OH2            -1.4698436661       26.7441693547       70.8709789166  TIP3      8904            0.0000000000
     48963      9096  TIP3      H1             -2.3516280476       27.0319102842       71.1941212087  TIP3      8904            0.0000000000
     48964      9096  TIP3      H2             -1.0356332164       27.6042179647       70.6563671629  TIP3      8904            0.0000000000
     48965      9097  TIP3      OH2           -17.2107373549       25.2653124954       74.3860755097  TIP3      8905            0.0000000000
     48966      9097  TIP3      H1            -16.2782673724       25.0710834563       74.6044936525  TIP3      8905            0.0000000000
     48967      9097  TIP3      H2            -17.6747732255       24.4563109153       74.6951794240  TIP3      8905            0.0000000000
     48968      9098  TIP3      OH2             0.7907583119       20.8164367453       76.2178859594  TIP3      8906            0.0000000000
     48969      9098  TIP3      H1              1.1457899697       20.1443032995       75.6109939544  TIP3      8906            0.0000000000
     48970      9098  TIP3      H2              0.9090708992       21.6315145840       75.6991103687  TIP3      8906            0.0000000000
     48971      9099  TIP3      OH2            -1.5013883384       22.7684333305       62.7014044790  TIP3      8907            0.0000000000
     48972      9099  TIP3      H1             -1.2895916945       22.3318400568       63.5546438801  TIP3      8907            0.0000000000
     48973      9099  TIP3      H2             -2.1023164102       22.1290660828       62.2643325547  TIP3      8907            0.0000000000
     48974      9100  TIP3      OH2           -16.0207607722       23.5738806206       67.2602446892  TIP3      8908            0.0000000000
     48975      9100  TIP3      H1            -15.5599331603       22.7472898543       67.5157383727  TIP3      8908            0.0000000000
     48976      9100  TIP3      H2            -15.4686731138       24.2665037753       67.6477630276  TIP3      8908            0.0000000000
     48977      9101  TIP3      OH2           -17.7374621961       26.5754470003       68.2953084523  TIP3      8909            0.0000000000
     48978      9101  TIP3      H1            -17.1736429990       26.3249395632       67.5353214136  TIP3      8909            0.0000000000
     48979      9101  TIP3      H2            -17.2703841060       27.3792880333       68.5654026671  TIP3      8909            0.0000000000
     48980      9102  TIP3      OH2             0.3198237768       22.9108521739       74.5717642830  TIP3      8910            0.0000000000
     48981      9102  TIP3      H1             -0.6186900424       23.1792307316       74.5199343806  TIP3      8910            0.0000000000
     48982      9102  TIP3      H2              0.3534522462       22.3576095506       73.7765663833  TIP3      8910            0.0000000000
     48983      9103  TIP3      OH2             0.3128118401       22.8031785757       59.2552510500  TIP3      8911            0.0000000000
     48984      9103  TIP3      H1              0.7242914248       22.0898401793       58.7175980461  TIP3      8911            0.0000000000
     48985      9103  TIP3      H2              1.0192747905       23.4639382563       59.3053573984  TIP3      8911            0.0000000000
     48986      9104  TIP3      OH2           -17.3683013622       22.8527901508       62.3809336243  TIP3      8912            0.0000000000
     48987      9104  TIP3      H1            -18.3120035550       23.0095685831       62.2153347885  TIP3      8912            0.0000000000
     48988      9104  TIP3      H2            -16.9518128489       23.3272720441       61.6430588210  TIP3      8912            0.0000000000
     48989      9105  TIP3      OH2           -17.4253795917       21.4859018750       70.6621384667  TIP3      8913            0.0000000000
     48990      9105  TIP3      H1            -18.0914409202       21.2954068186       71.3458991935  TIP3      8913            0.0000000000
     48991      9105  TIP3      H2            -17.8808909527       22.1614882929       70.1239826075  TIP3      8913            0.0000000000
     48992      9106  TIP3      OH2           -15.2149634337       34.7541096883       74.8301663601  TIP3      8914            0.0000000000
     48993      9106  TIP3      H1            -16.0771827051       34.8609045246       74.3905230451  TIP3      8914            0.0000000000
     48994      9106  TIP3      H2            -15.4716482317       34.6080963900       75.7502838591  TIP3      8914            0.0000000000
     48995      9107  TIP3      OH2           -12.2466888246       35.6886582154       71.1752281594  TIP3      8915            0.0000000000
     48996      9107  TIP3      H1            -12.6884790764       36.4650669136       70.8058652127  TIP3      8915            0.0000000000
     48997      9107  TIP3      H2            -11.3853894331       35.6662445658       70.7348062546  TIP3      8915            0.0000000000
     48998      9108  TIP3      OH2            -0.6588452770       20.9952063782       72.4305713440  TIP3      8916            0.0000000000
     48999      9108  TIP3      H1             -1.4852377974       21.2976065867       72.0159447675  TIP3      8916            0.0000000000
     49000      9108  TIP3      H2             -0.4898899836       20.1760871175       71.9087429701  TIP3      8916            0.0000000000
     49001      9109  TIP3      OH2           -13.0839694854       36.0348878386       66.4709176267  TIP3      8917            0.0000000000
     49002      9109  TIP3      H1            -13.4679587307       35.2746264200       66.9350200095  TIP3      8917            0.0000000000
     49003      9109  TIP3      H2            -12.5048818470       36.4003198692       67.1627693134  TIP3      8917            0.0000000000
     49004      9110  TIP3      OH2            -7.2679332689       22.4240188052       66.7128514742  TIP3      8918            0.0000000000
     49005      9110  TIP3      H1             -7.9442190172       21.7838303344       66.9925593722  TIP3      8918            0.0000000000
     49006      9110  TIP3      H2             -6.7157191263       21.8910299050       66.1284326267  TIP3      8918            0.0000000000
     49007      9111  TIP3      OH2            -2.1311055653       20.4722779639       66.7733702958  TIP3      8919            0.0000000000
     49008      9111  TIP3      H1             -1.5193117357       21.0657430735       66.2674507927  TIP3      8919            0.0000000000
     49009      9111  TIP3      H2             -3.0134915689       20.8340098452       66.5448688666  TIP3      8919            0.0000000000
     49010      9112  TIP3      OH2            -0.4649486088       21.7226477528       65.0521154174  TIP3      8920            0.0000000000
     49011      9112  TIP3      H1              0.2238858790       21.1473091000       64.6370077324  TIP3      8920            0.0000000000
     49012      9112  TIP3      H2              0.0438512744       22.5588472780       65.1589657898  TIP3      8920            0.0000000000
     49013      9113  TIP3      OH2           -14.8941245603       21.0500147952       64.5593597747  TIP3      8921            0.0000000000
     49014      9113  TIP3      H1            -15.6918737848       20.8566881058       64.0307124668  TIP3      8921            0.0000000000
     49015      9113  TIP3      H2            -14.4364202790       20.1889732763       64.4989346564  TIP3      8921            0.0000000000
     49016      9114  TIP3      OH2           -16.1294375120       20.8030045228       60.2803966885  TIP3      8922            0.0000000000
     49017      9114  TIP3      H1            -15.6367977038       21.4534886975       59.7459843800  TIP3      8922            0.0000000000
     49018      9114  TIP3      H2            -16.6966460747       21.3786742138       60.8188757365  TIP3      8922            0.0000000000
     49019      9115  TIP3      OH2           -10.4272427495       20.9762615897       64.3457819439  TIP3      8923            0.0000000000
     49020      9115  TIP3      H1             -9.5268770312       21.3340036165       64.2715406216  TIP3      8923            0.0000000000
     49021      9115  TIP3      H2            -10.4599950317       20.7572999740       65.2758438275  TIP3      8923            0.0000000000
     49022      9116  TIP3      OH2            -4.7103895787       20.9946674824       65.9689976009  TIP3      8924            0.0000000000
     49023      9116  TIP3      H1             -4.7628500920       21.1084101907       65.0112083594  TIP3      8924            0.0000000000
     49024      9116  TIP3      H2             -5.0906858763       20.0911633172       66.0976660125  TIP3      8924            0.0000000000
     49025      9117  TIP3      OH2            -3.4446460499       21.0245053456       61.6541179317  TIP3      8925            0.0000000000
     49026      9117  TIP3      H1             -4.1936089971       21.6183282847       61.4955385983  TIP3      8925            0.0000000000
     49027      9117  TIP3      H2             -3.8844519030       20.1722677138       61.8876385818  TIP3      8925            0.0000000000
     49028      9118  TIP3      OH2           -14.3010784693       22.7475005129       58.7924695636  TIP3      8926            0.0000000000
     49029      9118  TIP3      H1            -13.7691542583       22.1298305266       58.2641379306  TIP3      8926            0.0000000000
     49030      9118  TIP3      H2            -13.6350674593       23.0695616143       59.4273945179  TIP3      8926            0.0000000000
     49031      9119  TIP3      OH2            -9.2747740826       22.9904920822       61.1951658242  TIP3      8927            0.0000000000
     49032      9119  TIP3      H1             -9.0238317781       22.4130845395       61.9349688839  TIP3      8927            0.0000000000
     49033      9119  TIP3      H2             -9.2037105654       23.8567996193       61.6533653990  TIP3      8927            0.0000000000
     49034      9120  TIP3      OH2           -15.0225285536       21.5821818916       73.9910878523  TIP3      8928            0.0000000000
     49035      9120  TIP3      H1            -15.4076873011       20.7924957932       74.4176817072  TIP3      8928            0.0000000000
     49036      9120  TIP3      H2            -14.1123574690       21.5476254339       74.3733594006  TIP3      8928            0.0000000000
     49037      9121  TIP3      OH2           -13.0043057031       20.9798963974       75.6308086918  TIP3      8929            0.0000000000
     49038      9121  TIP3      H1            -12.1207816983       20.6239947352       75.4052020852  TIP3      8929            0.0000000000
     49039      9121  TIP3      H2            -13.3914463395       20.1857214121       76.0549592234  TIP3      8929            0.0000000000
     49040      9122  TIP3      OH2            -4.6061193746       20.2530580092       75.8067366970  TIP3      8930            0.0000000000
     49041      9122  TIP3      H1             -4.5041341605       19.7921246218       76.6604037243  TIP3      8930            0.0000000000
     49042      9122  TIP3      H2             -3.6888522080       20.2309145341       75.4606907746  TIP3      8930            0.0000000000
     49043      9123  TIP3      OH2            -1.5826146664      -36.7595855034       74.6124875037  TIP3      8931            0.0000000000
     49044      9123  TIP3      H1             -2.1877454003      -36.8862738316       73.8758632388  TIP3      8931            0.0000000000
     49045      9123  TIP3      H2             -1.4318708908      -35.8020734691       74.5991393259  TIP3      8931            0.0000000000
     49046      9124  TIP3      OH2            13.0422792961       30.1650857199       64.4028106123  TIP3      8932            0.0000000000
     49047      9124  TIP3      H1             13.0265731778       31.1502743450       64.3948114235  TIP3      8932            0.0000000000
     49048      9124  TIP3      H2             12.3094283927       29.9479001141       63.8072461374  TIP3      8932            0.0000000000
     49049      9125  TIP3      OH2            11.9032616659       29.4442834403       67.9171135864  TIP3      8933            0.0000000000
     49050      9125  TIP3      H1             11.8885193540       28.7955943066       68.6350497402  TIP3      8933            0.0000000000
     49051      9125  TIP3      H2             11.5532200939       28.9350416260       67.1656564890  TIP3      8933            0.0000000000
     49052      9126  TIP3      OH2             4.2536400025       29.1223911668       69.4698651045  TIP3      8934            0.0000000000
     49053      9126  TIP3      H1              4.3380495169       28.4363813967       70.1647623865  TIP3      8934            0.0000000000
     49054      9126  TIP3      H2              5.0036507117       29.6925413312       69.6922808210  TIP3      8934            0.0000000000
     49055      9127  TIP3      OH2            15.5873229142       32.4058618537       66.2028825513  TIP3      8935            0.0000000000
     49056      9127  TIP3      H1             15.1741302005       31.6770728000       66.6781369388  TIP3      8935            0.0000000000
     49057      9127  TIP3      H2             15.6210852791       33.0953276956       66.8884263478  TIP3      8935            0.0000000000
     49058      9128  TIP3      OH2             5.1982011337       33.5748713290       67.9996389654  TIP3      8936            0.0000000000
     49059      9128  TIP3      H1              4.8647771297       32.7184346848       67.6612033685  TIP3      8936            0.0000000000
     49060      9128  TIP3      H2              6.1503960066       33.3815241599       68.0039894216  TIP3      8936            0.0000000000
     49061      9129  TIP3      OH2             1.8176419338       27.1249376822       63.4621171701  TIP3      8937            0.0000000000
     49062      9129  TIP3      H1              1.3820869376       27.9958422760       63.3959084088  TIP3      8937            0.0000000000
     49063      9129  TIP3      H2              1.2566828980       26.5846826622       62.8903599232  TIP3      8937            0.0000000000
     49064      9130  TIP3      OH2             2.5306585505       29.3515157115       65.6094256129  TIP3      8938            0.0000000000
     49065      9130  TIP3      H1              2.8059909176       28.5298820593       66.0582126874  TIP3      8938            0.0000000000
     49066      9130  TIP3      H2              3.2245225958       29.4586644720       64.9411466493  TIP3      8938            0.0000000000
     49067      9131  TIP3      OH2            10.2607441251       31.8192628535       68.3996779895  TIP3      8939            0.0000000000
     49068      9131  TIP3      H1             10.6122084554       31.2150247559       67.7294226237  TIP3      8939            0.0000000000
     49069      9131  TIP3      H2             11.0748518618       32.0204769291       68.8936081726  TIP3      8939            0.0000000000
     49070      9132  TIP3      OH2            18.8778784063       23.4922719808       69.0969728940  TIP3      8940            0.0000000000
     49071      9132  TIP3      H1             19.0445385436       24.0752975665       69.8703542527  TIP3      8940            0.0000000000
     49072      9132  TIP3      H2             19.4458420512       23.9391743047       68.4528335454  TIP3      8940            0.0000000000
     49073      9133  TIP3      OH2            13.4448000630       26.3114533026       68.7024137507  TIP3      8941            0.0000000000
     49074      9133  TIP3      H1             13.6116619783       25.3529917159       68.7073885013  TIP3      8941            0.0000000000
     49075      9133  TIP3      H2             13.3405882554       26.4532991761       67.7415464754  TIP3      8941            0.0000000000
     49076      9134  TIP3      OH2             6.5568119316       24.4036290918       65.9170156211  TIP3      8942            0.0000000000
     49077      9134  TIP3      H1              6.6651035409       25.2376613058       65.4238560804  TIP3      8942            0.0000000000
     49078      9134  TIP3      H2              6.1591071976       23.8294759045       65.2274003535  TIP3      8942            0.0000000000
     49079      9135  TIP3      OH2            14.2952215630       24.4797000478       64.2913078304  TIP3      8943            0.0000000000
     49080      9135  TIP3      H1             14.9479431691       24.1639079281       64.9575171070  TIP3      8943            0.0000000000
     49081      9135  TIP3      H2             14.8565980052       25.0625036866       63.7579332607  TIP3      8943            0.0000000000
     49082      9136  TIP3      OH2             3.1820369534       26.8135345376       66.6516273985  TIP3      8944            0.0000000000
     49083      9136  TIP3      H1              3.8513696381       26.2696345973       67.1067381227  TIP3      8944            0.0000000000
     49084      9136  TIP3      H2              3.2875981647       26.4990767996       65.7404918517  TIP3      8944            0.0000000000
     49085      9137  TIP3      OH2             8.3382918613       28.3701613409       65.9735578468  TIP3      8945            0.0000000000
     49086      9137  TIP3      H1              9.0118559351       27.7885776790       66.3658700542  TIP3      8945            0.0000000000
     49087      9137  TIP3      H2              7.8247759709       27.7141367139       65.4623176314  TIP3      8945            0.0000000000
     49088      9138  TIP3      OH2            19.3154395314       24.9084090029       71.3911623927  TIP3      8946            0.0000000000
     49089      9138  TIP3      H1             18.7098720263       25.6760723896       71.2815421097  TIP3      8946            0.0000000000
     49090      9138  TIP3      H2             19.3488674214       24.8295314297       72.3528732796  TIP3      8946            0.0000000000
     49091      9139  TIP3      OH2             5.4676446190       23.3028744471       69.9573370887  TIP3      8947            0.0000000000
     49092      9139  TIP3      H1              5.1852680182       23.8740754030       69.2116460033  TIP3      8947            0.0000000000
     49093      9139  TIP3      H2              4.7899308360       23.5305020080       70.6395000223  TIP3      8947            0.0000000000
     49094      9140  TIP3      OH2            12.7406774293       32.7573317819       63.5082636402  TIP3      8948            0.0000000000
     49095      9140  TIP3      H1             12.5035156719       32.5205021799       62.6015267079  TIP3      8948            0.0000000000
     49096      9140  TIP3      H2             12.4433690250       33.6874662884       63.5704751148  TIP3      8948            0.0000000000
     49097      9141  TIP3      OH2             7.9759697193       30.9233737868       70.2082937987  TIP3      8949            0.0000000000
     49098      9141  TIP3      H1              7.2737203736       31.5720385803       70.4229030071  TIP3      8949            0.0000000000
     49099      9141  TIP3      H2              8.6856112688       31.5177182685       69.9108417066  TIP3      8949            0.0000000000
     49100      9142  TIP3      OH2            16.1303382948       23.8110231990       66.2722090950  TIP3      8950            0.0000000000
     49101      9142  TIP3      H1             15.8585826084       23.0808560625       66.8317082916  TIP3      8950            0.0000000000
     49102      9142  TIP3      H2             16.7619106396       24.2836372160       66.8433685576  TIP3      8950            0.0000000000
     49103      9143  TIP3      OH2             5.0355982887       25.1585195674       67.9936177515  TIP3      8951            0.0000000000
     49104      9143  TIP3      H1              5.6636165072       25.8478518703       68.3039211355  TIP3      8951            0.0000000000
     49105      9143  TIP3      H2              5.5512866328       24.7483194546       67.2545842503  TIP3      8951            0.0000000000
     49106      9144  TIP3      OH2             6.4452831549       32.9483584566       71.0065767570  TIP3      8952            0.0000000000
     49107      9144  TIP3      H1              6.3791790491       33.8515639103       70.6545310435  TIP3      8952            0.0000000000
     49108      9144  TIP3      H2              5.5563108591       32.8591813176       71.4344708021  TIP3      8952            0.0000000000
     49109      9145  TIP3      OH2             2.5018460304       32.6152786174       61.8128907452  TIP3      8953            0.0000000000
     49110      9145  TIP3      H1              2.2420135936       32.9309020177       60.9300960340  TIP3      8953            0.0000000000
     49111      9145  TIP3      H2              2.5859305788       33.4426781486       62.3234278123  TIP3      8953            0.0000000000
     49112      9146  TIP3      OH2            16.1335563044       34.2601466924       68.5995862376  TIP3      8954            0.0000000000
     49113      9146  TIP3      H1             15.1533918222       34.3318476884       68.7027477861  TIP3      8954            0.0000000000
     49114      9146  TIP3      H2             16.4068468256       35.1602370580       68.3689421238  TIP3      8954            0.0000000000
     49115      9147  TIP3      OH2            16.4301090535       22.4915903857       69.9167710785  TIP3      8955            0.0000000000
     49116      9147  TIP3      H1             15.7147610845       23.1397186692       69.8671986703  TIP3      8955            0.0000000000
     49117      9147  TIP3      H2             17.1538029966       22.9518295719       69.4491390934  TIP3      8955            0.0000000000
     49118      9148  TIP3      OH2             9.4039184952       20.6373418370       67.4233022850  TIP3      8956            0.0000000000
     49119      9148  TIP3      H1              9.2620808032       19.6746406392       67.3478866440  TIP3      8956            0.0000000000
     49120      9148  TIP3      H2              8.5255824210       20.9421451319       67.7297203887  TIP3      8956            0.0000000000
     49121      9149  TIP3      OH2            14.4189243521       35.6977657322       64.9949476888  TIP3      8957            0.0000000000
     49122      9149  TIP3      H1             14.9476247982       35.0721406126       64.4678517871  TIP3      8957            0.0000000000
     49123      9149  TIP3      H2             14.7651184527       36.5459360602       64.7388122204  TIP3      8957            0.0000000000
     49124      9150  TIP3      OH2            15.6698625490       33.8588665095       63.6692484920  TIP3      8958            0.0000000000
     49125      9150  TIP3      H1             15.2707400419       33.2034821949       63.0733891048  TIP3      8958            0.0000000000
     49126      9150  TIP3      H2             15.6139303480       33.3903079636       64.5305647753  TIP3      8958            0.0000000000
     49127      9151  TIP3      OH2            17.2129100030       32.5749386414       72.1793216296  TIP3      8959            0.0000000000
     49128      9151  TIP3      H1             17.3329184459       31.8963400031       71.4760102933  TIP3      8959            0.0000000000
     49129      9151  TIP3      H2             17.4348977554       33.3975985322       71.7091159125  TIP3      8959            0.0000000000
     49130      9152  TIP3      OH2            11.7011184433       29.4211181031       61.9300416389  TIP3      8960            0.0000000000
     49131      9152  TIP3      H1             11.0088043015       30.0021045434       61.5714358282  TIP3      8960            0.0000000000
     49132      9152  TIP3      H2             12.4115165965       29.5194608124       61.2673038558  TIP3      8960            0.0000000000
     49133      9153  TIP3      OH2            11.7831093888       27.9962062400       58.9408983916  TIP3      8961            0.0000000000
     49134      9153  TIP3      H1             12.4882097117       27.9770737260       59.6055395473  TIP3      8961            0.0000000000
     49135      9153  TIP3      H2             12.0895947115       27.2805050407       58.3722213667  TIP3      8961            0.0000000000
     49136      9154  TIP3      OH2            19.0923467974       28.8518123510       70.2141873543  TIP3      8962            0.0000000000
     49137      9154  TIP3      H1             18.4325392349       29.5733142182       70.2520098397  TIP3      8962            0.0000000000
     49138      9154  TIP3      H2             19.5799782746       29.0907835968       69.4064170860  TIP3      8962            0.0000000000
     49139      9155  TIP3      OH2            15.1585932948       29.6345843166       62.8531862504  TIP3      8963            0.0000000000
     49140      9155  TIP3      H1             14.4075509325       29.8765887470       63.4489101605  TIP3      8963            0.0000000000
     49141      9155  TIP3      H2             15.6261324654       28.9588063429       63.3754119166  TIP3      8963            0.0000000000
     49142      9156  TIP3      OH2            15.0790870578       27.8037092996       71.9787144341  TIP3      8964            0.0000000000
     49143      9156  TIP3      H1             15.0853969286       28.6241164900       72.4973377798  TIP3      8964            0.0000000000
     49144      9156  TIP3      H2             14.4498586508       28.0934412248       71.2853226142  TIP3      8964            0.0000000000
     49145      9157  TIP3      OH2             6.7605415619       30.2949461281       64.7715166199  TIP3      8965            0.0000000000
     49146      9157  TIP3      H1              6.4416171021       29.9063726330       63.9211644734  TIP3      8965            0.0000000000
     49147      9157  TIP3      H2              7.3767190538       29.6050104345       65.1041918031  TIP3      8965            0.0000000000
     49148      9158  TIP3      OH2             8.0864170683       33.6993886083       67.4382470940  TIP3      8966            0.0000000000
     49149      9158  TIP3      H1              8.0859374278       33.1543022915       66.6434851959  TIP3      8966            0.0000000000
     49150      9158  TIP3      H2              8.8538719866       33.3334769173       67.9174578716  TIP3      8966            0.0000000000
     49151      9159  TIP3      OH2             7.0882014478       29.0434128364       68.4319850332  TIP3      8967            0.0000000000
     49152      9159  TIP3      H1              7.6390610277       29.1415515414       67.6306012481  TIP3      8967            0.0000000000
     49153      9159  TIP3      H2              7.4802797350       29.7067952075       69.0425808199  TIP3      8967            0.0000000000
     49154      9160  TIP3      OH2            13.5409225799       34.6158454818       69.1598404423  TIP3      8968            0.0000000000
     49155      9160  TIP3      H1             13.1706695151       35.2415314397       69.7732169095  TIP3      8968            0.0000000000
     49156      9160  TIP3      H2             13.2464042997       33.7561380471       69.5536277508  TIP3      8968            0.0000000000
     49157      9161  TIP3      OH2             8.0423462325       33.4786227208       73.1293564774  TIP3      8969            0.0000000000
     49158      9161  TIP3      H1              7.6070880147       34.2208875354       73.6084842342  TIP3      8969            0.0000000000
     49159      9161  TIP3      H2              7.3767215551       33.2461709739       72.4296880868  TIP3      8969            0.0000000000
     49160      9162  TIP3      OH2            14.0245692705       28.8388453002       60.5175576017  TIP3      8970            0.0000000000
     49161      9162  TIP3      H1             14.5819058812       29.0064847641       61.3174254567  TIP3      8970            0.0000000000
     49162      9162  TIP3      H2             14.4779735462       29.3277343512       59.7945173389  TIP3      8970            0.0000000000
     49163      9163  TIP3      OH2             4.9888886775       29.6395962316       72.2759235714  TIP3      8971            0.0000000000
     49164      9163  TIP3      H1              5.0418311586       30.3029168115       72.9888794404  TIP3      8971            0.0000000000
     49165      9163  TIP3      H2              4.0446813944       29.7235022790       72.0740695495  TIP3      8971            0.0000000000
     49166      9164  TIP3      OH2            11.6870304253       35.5221061465       63.9987992536  TIP3      8972            0.0000000000
     49167      9164  TIP3      H1             12.1616875438       35.8421040609       64.7720635272  TIP3      8972            0.0000000000
     49168      9164  TIP3      H2             11.1860514934       36.2963543731       63.7227882300  TIP3      8972            0.0000000000
     49169      9165  TIP3      OH2             6.2744215691       35.4172950274       73.8648847403  TIP3      8973            0.0000000000
     49170      9165  TIP3      H1              6.1999179500       35.3967387911       72.8871828843  TIP3      8973            0.0000000000
     49171      9165  TIP3      H2              5.3335588121       35.3495214450       74.1317135881  TIP3      8973            0.0000000000
     49172      9166  TIP3      OH2            17.7665401352       20.5653516677       60.4562384847  TIP3      8974            0.0000000000
     49173      9166  TIP3      H1             16.8065818763       20.6806392966       60.6509909024  TIP3      8974            0.0000000000
     49174      9166  TIP3      H2             17.9621423535       21.3960181703       59.9869370030  TIP3      8974            0.0000000000
     49175      9167  TIP3      OH2             5.7220244067       29.3155161464       62.4016933655  TIP3      8975            0.0000000000
     49176      9167  TIP3      H1              5.4448776700       30.1001522678       61.8814683899  TIP3      8975            0.0000000000
     49177      9167  TIP3      H2              5.0760934234       28.6504391257       62.1527691139  TIP3      8975            0.0000000000
     49178      9168  TIP3      OH2            18.9049671858       34.8947109111       58.8102285096  TIP3      8976            0.0000000000
     49179      9168  TIP3      H1             19.0145695030       35.8576683098       58.8990791552  TIP3      8976            0.0000000000
     49180      9168  TIP3      H2             19.8371795669       34.6073323981       58.7637906579  TIP3      8976            0.0000000000
     49181      9169  TIP3      OH2             1.8104595477       31.7519910497       71.2856296234  TIP3      8977            0.0000000000
     49182      9169  TIP3      H1              1.3794650618       31.6657281386       70.4165676144  TIP3      8977            0.0000000000
     49183      9169  TIP3      H2              1.9010551802       30.8043259163       71.5000261205  TIP3      8977            0.0000000000
     49184      9170  TIP3      OH2             1.6149796726       34.4419337775       68.1017148106  TIP3      8978            0.0000000000
     49185      9170  TIP3      H1              2.5703906123       34.3957747072       68.0136113230  TIP3      8978            0.0000000000
     49186      9170  TIP3      H2              1.5190092678       35.2736980788       68.5903402492  TIP3      8978            0.0000000000
     49187      9171  TIP3      OH2            19.7843807059       35.1861328925       73.8067784904  TIP3      8979            0.0000000000
     49188      9171  TIP3      H1             19.6987900739       34.2245584474       73.6927675781  TIP3      8979            0.0000000000
     49189      9171  TIP3      H2             18.8985209709       35.4218897136       74.1523856114  TIP3      8979            0.0000000000
     49190      9172  TIP3      OH2            10.7573678677       34.7394635221       72.5966518329  TIP3      8980            0.0000000000
     49191      9172  TIP3      H1             10.8745090475       35.5256206269       73.1378950052  TIP3      8980            0.0000000000
     49192      9172  TIP3      H2              9.9146477369       34.3415609853       72.8868077080  TIP3      8980            0.0000000000
     49193      9173  TIP3      OH2            16.9740245846       26.6581503688       74.1884353507  TIP3      8981            0.0000000000
     49194      9173  TIP3      H1             16.4801464386       27.1062150868       73.4826127014  TIP3      8981            0.0000000000
     49195      9173  TIP3      H2             16.9455269135       25.7322567147       73.9055654594  TIP3      8981            0.0000000000
     49196      9174  TIP3      OH2             4.1148302349       33.0749396847       72.2271296471  TIP3      8982            0.0000000000
     49197      9174  TIP3      H1              4.3228925197       32.6950556120       73.1051662810  TIP3      8982            0.0000000000
     49198      9174  TIP3      H2              3.2445576491       32.6868038151       72.0004656837  TIP3      8982            0.0000000000
     49199      9175  TIP3      OH2             6.7883404114       21.5393613254       68.1736030135  TIP3      8983            0.0000000000
     49200      9175  TIP3      H1              5.8852225743       21.4124963696       67.8066842881  TIP3      8983            0.0000000000
     49201      9175  TIP3      H2              6.6537367701       22.3696129977       68.6596628325  TIP3      8983            0.0000000000
     49202      9176  TIP3      OH2            11.4310546005       21.2043613218       71.5326022075  TIP3      8984            0.0000000000
     49203      9176  TIP3      H1             11.8224881662       20.7824953388       72.3205761420  TIP3      8984            0.0000000000
     49204      9176  TIP3      H2             10.4592961615       21.0855564066       71.6740595991  TIP3      8984            0.0000000000
     49205      9177  TIP3      OH2            14.7219406190       25.0579968662       72.4421164491  TIP3      8985            0.0000000000
     49206      9177  TIP3      H1             14.1517910195       24.8407324299       73.2191451038  TIP3      8985            0.0000000000
     49207      9177  TIP3      H2             14.5326381877       25.9822048193       72.2091025221  TIP3      8985            0.0000000000
     49208      9178  TIP3      OH2            15.4825118736       29.8620529267       58.3382556666  TIP3      8986            0.0000000000
     49209      9178  TIP3      H1             15.4546372170       29.6797517592       57.3705169013  TIP3      8986            0.0000000000
     49210      9178  TIP3      H2             16.3361953853       30.3144734226       58.3865661371  TIP3      8986            0.0000000000
     49211      9179  TIP3      OH2            11.0716318092       23.7935931186       58.8436584403  TIP3      8987            0.0000000000
     49212      9179  TIP3      H1             10.7571673451       23.7300065091       59.7641078005  TIP3      8987            0.0000000000
     49213      9179  TIP3      H2             10.7625919573       22.9167369104       58.5368361617  TIP3      8987            0.0000000000
     49214      9180  TIP3      OH2             6.8942368179       26.5175887377       69.4373715305  TIP3      8988            0.0000000000
     49215      9180  TIP3      H1              6.1513184380       26.5038449049       70.0657213828  TIP3      8988            0.0000000000
     49216      9180  TIP3      H2              6.8420928172       27.4226533882       69.0550384871  TIP3      8988            0.0000000000
     49217      9181  TIP3      OH2             6.8509685544       26.6273525074       64.2914011299  TIP3      8989            0.0000000000
     49218      9181  TIP3      H1              5.9119410914       26.3785438034       64.1603708275  TIP3      8989            0.0000000000
     49219      9181  TIP3      H2              7.2265291129       26.3380732065       63.4359153651  TIP3      8989            0.0000000000
     49220      9182  TIP3      OH2            12.3694060639       27.1329144304       63.0701017830  TIP3      8990            0.0000000000
     49221      9182  TIP3      H1             11.9770936302       27.9558822438       62.6971805968  TIP3      8990            0.0000000000
     49222      9182  TIP3      H2             13.0564276642       26.9634909085       62.4040434732  TIP3      8990            0.0000000000
     49223      9183  TIP3      OH2            11.4108903138       27.3512349483       74.4967200025  TIP3      8991            0.0000000000
     49224      9183  TIP3      H1             10.9052230959       26.5608758573       74.8025626139  TIP3      8991            0.0000000000
     49225      9183  TIP3      H2             12.2614280393       27.2287468356       74.9517237368  TIP3      8991            0.0000000000
     49226      9184  TIP3      OH2            13.4056640307       26.6247151449       65.9065702582  TIP3      8992            0.0000000000
     49227      9184  TIP3      H1             13.1193591723       27.1871490616       65.1669042895  TIP3      8992            0.0000000000
     49228      9184  TIP3      H2             13.4989093079       25.7741957125       65.4373478697  TIP3      8992            0.0000000000
     49229      9185  TIP3      OH2             4.5099948099       26.7619184001       71.1066607184  TIP3      8993            0.0000000000
     49230      9185  TIP3      H1              4.5946194479       27.1701192623       71.9854418947  TIP3      8993            0.0000000000
     49231      9185  TIP3      H2              4.0700102753       25.9235351958       71.3201537924  TIP3      8993            0.0000000000
     49232      9186  TIP3      OH2             7.8827051876       24.1595173770       57.9617075270  TIP3      8994            0.0000000000
     49233      9186  TIP3      H1              7.4286765309       23.7383531384       58.7197552305  TIP3      8994            0.0000000000
     49234      9186  TIP3      H2              7.1729863500       24.5911912373       57.4705239974  TIP3      8994            0.0000000000
     49235      9187  TIP3      OH2             1.1696677173       23.8715430154       65.0963709304  TIP3      8995            0.0000000000
     49236      9187  TIP3      H1              1.8541970734       23.8321997477       65.7966878885  TIP3      8995            0.0000000000
     49237      9187  TIP3      H2              1.6172253496       23.4978668930       64.3152390356  TIP3      8995            0.0000000000
     49238      9188  TIP3      OH2             2.4330382936       24.5902320564       60.4412265824  TIP3      8996            0.0000000000
     49239      9188  TIP3      H1              2.9472654635       25.2026306369       59.8842541862  TIP3      8996            0.0000000000
     49240      9188  TIP3      H2              1.7468138798       25.2136344629       60.7622521827  TIP3      8996            0.0000000000
     49241      9189  TIP3      OH2            12.6005142203       28.2056775582       70.4604737245  TIP3      8997            0.0000000000
     49242      9189  TIP3      H1             12.9810918885       27.5196236574       69.8754787264  TIP3      8997            0.0000000000
     49243      9189  TIP3      H2             12.1331133123       27.6776262737       71.1325797789  TIP3      8997            0.0000000000
     49244      9190  TIP3      OH2             9.4041782693       24.1877680722       65.2968050365  TIP3      8998            0.0000000000
     49245      9190  TIP3      H1              8.4701458651       24.1882293432       65.5898542668  TIP3      8998            0.0000000000
     49246      9190  TIP3      H2              9.8858618768       24.0134671418       66.1196031177  TIP3      8998            0.0000000000
     49247      9191  TIP3      OH2             4.2127232500       25.7334662732       64.1660702632  TIP3      8999            0.0000000000
     49248      9191  TIP3      H1              3.3291753575       25.8903099486       63.7743899163  TIP3      8999            0.0000000000
     49249      9191  TIP3      H2              4.4971390846       24.8996823873       63.7562762333  TIP3      8999            0.0000000000
     49250      9192  TIP3      OH2             7.8570602548       25.7809875228       61.7915503951  TIP3      9000            0.0000000000
     49251      9192  TIP3      H1              8.8128302950       25.8926148562       61.9524980109  TIP3      9000            0.0000000000
     49252      9192  TIP3      H2              7.6197316958       26.4641817566       61.1365398444  TIP3      9000            0.0000000000
     49253      9193  TIP3      OH2            13.8163529080       23.3989611747       68.5327875284  TIP3      9001            0.0000000000
     49254      9193  TIP3      H1             13.1286330553       23.4640271917       69.2348074063  TIP3      9001            0.0000000000
     49255      9193  TIP3      H2             13.3008969748       23.1619514966       67.7501728720  TIP3      9001            0.0000000000
     49256      9194  TIP3      OH2             6.5631861697       26.9578900628       59.3811912660  TIP3      9002            0.0000000000
     49257      9194  TIP3      H1              6.0315464489       26.5710451248       58.6649254264  TIP3      9002            0.0000000000
     49258      9194  TIP3      H2              7.3831909206       27.1653615714       58.9065447801  TIP3      9002            0.0000000000
     49259      9195  TIP3      OH2             4.6927101400       31.5574261120       74.4417265735  TIP3      9003            0.0000000000
     49260      9195  TIP3      H1              5.4013675821       31.7754393072       75.0727646853  TIP3      9003            0.0000000000
     49261      9195  TIP3      H2              3.9115000553       31.5978541185       75.0340614213  TIP3      9003            0.0000000000
     49262      9196  TIP3      OH2            10.6849859939       26.9404147464       67.1898152286  TIP3      9004            0.0000000000
     49263      9196  TIP3      H1             11.2855804682       26.4076088024       66.6556168859  TIP3      9004            0.0000000000
     49264      9196  TIP3      H2             10.5405602306       26.3907216971       67.9718173629  TIP3      9004            0.0000000000
     49265      9197  TIP3      OH2             5.6966281596       23.0852127595       63.6268133821  TIP3      9005            0.0000000000
     49266      9197  TIP3      H1              5.3866384991       22.1613023458       63.6191474294  TIP3      9005            0.0000000000
     49267      9197  TIP3      H2              6.4870867807       23.0173347726       63.0777230036  TIP3      9005            0.0000000000
     49268      9198  TIP3      OH2             9.3248223509       25.2671405262       69.6037986620  TIP3      9006            0.0000000000
     49269      9198  TIP3      H1              8.5002602965       25.7862741864       69.6924543565  TIP3      9006            0.0000000000
     49270      9198  TIP3      H2              9.8798833280       25.6195866662       70.3259930929  TIP3      9006            0.0000000000
     49271      9199  TIP3      OH2             9.9098483775       31.4741505486       61.3091505887  TIP3      9007            0.0000000000
     49272      9199  TIP3      H1              9.1076221153       31.0131383357       60.9727287010  TIP3      9007            0.0000000000
     49273      9199  TIP3      H2              9.6874701136       31.6011317794       62.2522452951  TIP3      9007            0.0000000000
     49274      9200  TIP3      OH2            17.1051622477       30.6896395385       70.1057734850  TIP3      9008            0.0000000000
     49275      9200  TIP3      H1             17.6644605238       31.1882371808       69.4804250788  TIP3      9008            0.0000000000
     49276      9200  TIP3      H2             16.2436528341       30.7383679045       69.6424956895  TIP3      9008            0.0000000000
     49277      9201  TIP3      OH2            13.7409448125       24.3032111506       59.4778054715  TIP3      9009            0.0000000000
     49278      9201  TIP3      H1             12.7906028699       24.4579297374       59.3414982542  TIP3      9009            0.0000000000
     49279      9201  TIP3      H2             14.0828394368       25.1545669038       59.8268188550  TIP3      9009            0.0000000000
     49280      9202  TIP3      OH2            11.3807133814       31.7860527677       72.5335641928  TIP3      9010            0.0000000000
     49281      9202  TIP3      H1             11.0507119927       31.3381975700       73.3224564389  TIP3      9010            0.0000000000
     49282      9202  TIP3      H2             11.1566145457       32.7075895600       72.6601029707  TIP3      9010            0.0000000000
     49283      9203  TIP3      OH2            14.4794779725       26.2260284501       61.1001218353  TIP3      9011            0.0000000000
     49284      9203  TIP3      H1             15.3608531319       26.0923585778       61.5095633168  TIP3      9011            0.0000000000
     49285      9203  TIP3      H2             14.5848462154       27.0464591900       60.5902042648  TIP3      9011            0.0000000000
     49286      9204  TIP3      OH2             5.0194926240       30.8823785851       67.1017004568  TIP3      9012            0.0000000000
     49287      9204  TIP3      H1              5.7061403740       30.8120168780       66.4081426384  TIP3      9012            0.0000000000
     49288      9204  TIP3      H2              5.0846203625       30.0239756758       67.5572745283  TIP3      9012            0.0000000000
     49289      9205  TIP3      OH2            12.0022609834       32.9400307182       60.3267378175  TIP3      9013            0.0000000000
     49290      9205  TIP3      H1             11.6757579245       33.7983200419       60.6639753121  TIP3      9013            0.0000000000
     49291      9205  TIP3      H2             11.2723901501       32.3372549993       60.5670534815  TIP3      9013            0.0000000000
     49292      9206  TIP3      OH2             2.0109385047       29.2937101075       72.3677963330  TIP3      9014            0.0000000000
     49293      9206  TIP3      H1              2.1835127180       28.8453359058       73.2171137102  TIP3      9014            0.0000000000
     49294      9206  TIP3      H2              1.3944403868       28.6803458872       71.9240003766  TIP3      9014            0.0000000000
     49295      9207  TIP3      OH2             9.0178799195       28.8464463211       74.5483449007  TIP3      9015            0.0000000000
     49296      9207  TIP3      H1              8.7030547716       28.5378075119       73.6864667391  TIP3      9015            0.0000000000
     49297      9207  TIP3      H2              9.9452899647       28.5297803066       74.5397266046  TIP3      9015            0.0000000000
     49298      9208  TIP3      OH2            13.6932205777       34.2397950168       72.4210491928  TIP3      9016            0.0000000000
     49299      9208  TIP3      H1             12.7537984503       34.3145628720       72.2436656188  TIP3      9016            0.0000000000
     49300      9208  TIP3      H2             13.6728376237       34.4260829963       73.3915485226  TIP3      9016            0.0000000000
     49301      9209  TIP3      OH2            19.3850494675       26.3560070944       60.8765225926  TIP3      9017            0.0000000000
     49302      9209  TIP3      H1             18.8116406273       26.0749163835       60.1391202153  TIP3      9017            0.0000000000
     49303      9209  TIP3      H2             19.4575010767       27.3064318930       60.6288326552  TIP3      9017            0.0000000000
     49304      9210  TIP3      OH2            19.3893965880       32.2033007530       73.6780104577  TIP3      9018            0.0000000000
     49305      9210  TIP3      H1             18.4944441143       32.4460794482       73.3343241984  TIP3      9018            0.0000000000
     49306      9210  TIP3      H2             19.9179042091       32.1577350394       72.8547006376  TIP3      9018            0.0000000000
     49307      9211  TIP3      OH2            17.7620167275       34.9806691308       61.5384979353  TIP3      9019            0.0000000000
     49308      9211  TIP3      H1             17.2573679096       34.1777043046       61.6047540322  TIP3      9019            0.0000000000
     49309      9211  TIP3      H2             17.9333730536       35.0347138329       60.5664863868  TIP3      9019            0.0000000000
     49310      9212  TIP3      OH2            14.8786745169       30.0046757244       68.3924915481  TIP3      9020            0.0000000000
     49311      9212  TIP3      H1             13.9373855095       29.7976711408       68.2775576023  TIP3      9020            0.0000000000
     49312      9212  TIP3      H2             15.3101969100       29.2494180393       67.9505950043  TIP3      9020            0.0000000000
     49313      9213  TIP3      OH2             7.4366568899       34.3033374510       64.3954930753  TIP3      9021            0.0000000000
     49314      9213  TIP3      H1              7.8978728546       35.1464642892       64.3174047174  TIP3      9021            0.0000000000
     49315      9213  TIP3      H2              6.5220128309       34.5385081748       64.2001669050  TIP3      9021            0.0000000000
     49316      9214  TIP3      OH2             3.1637807453       29.1764163707       59.0564374163  TIP3      9022            0.0000000000
     49317      9214  TIP3      H1              3.7433751217       29.8340775393       59.4754693863  TIP3      9022            0.0000000000
     49318      9214  TIP3      H2              2.2735508288       29.4906450871       59.3053436970  TIP3      9022            0.0000000000
     49319      9215  TIP3      OH2             8.8332681982       31.9924801001       64.0042277060  TIP3      9023            0.0000000000
     49320      9215  TIP3      H1              8.5152956105       32.9134187848       64.0934699304  TIP3      9023            0.0000000000
     49321      9215  TIP3      H2              8.1031945095       31.5116199283       64.4434138136  TIP3      9023            0.0000000000
     49322      9216  TIP3      OH2             9.5551090534       35.8727849382       70.1081516773  TIP3      9024            0.0000000000
     49323      9216  TIP3      H1              9.7267649496       36.8149900231       70.0178178499  TIP3      9024            0.0000000000
     49324      9216  TIP3      H2              9.8856518260       35.6998069791       71.0014209642  TIP3      9024            0.0000000000
     49325      9217  TIP3      OH2            12.7898476900       32.1887986977       70.0374733873  TIP3      9025            0.0000000000
     49326      9217  TIP3      H1             12.4488116227       31.9654935806       70.9272771112  TIP3      9025            0.0000000000
     49327      9217  TIP3      H2             13.4227559858       31.4765739240       69.8622211242  TIP3      9025            0.0000000000
     49328      9218  TIP3      OH2            15.1238993105       33.2383387844       59.1039647351  TIP3      9026            0.0000000000
     49329      9218  TIP3      H1             15.4167373932       32.7910821501       59.9253923873  TIP3      9026            0.0000000000
     49330      9218  TIP3      H2             14.1691799684       33.0887384586       59.2044292823  TIP3      9026            0.0000000000
     49331      9219  TIP3      OH2             3.6634890242       24.0251191590       71.9139862126  TIP3      9027            0.0000000000
     49332      9219  TIP3      H1              2.7560637858       24.3744481330       71.8918059694  TIP3      9027            0.0000000000
     49333      9219  TIP3      H2              3.5518383336       23.1777205823       72.3735442882  TIP3      9027            0.0000000000
     49334      9220  TIP3      OH2            15.8929420138       31.8621182479       61.3656281023  TIP3      9028            0.0000000000
     49335      9220  TIP3      H1             15.6642431481       31.0935939315       61.9273731929  TIP3      9028            0.0000000000
     49336      9220  TIP3      H2             16.8459923895       31.9327131997       61.5372000459  TIP3      9028            0.0000000000
     49337      9221  TIP3      OH2             3.2781241706       35.7712448086       70.3278086093  TIP3      9029            0.0000000000
     49338      9221  TIP3      H1              3.5681830283       34.8582175783       70.3766302895  TIP3      9029            0.0000000000
     49339      9221  TIP3      H2              3.4776066406       36.1158041262       71.2103759026  TIP3      9029            0.0000000000
     49340      9222  TIP3      OH2             9.2586825686       34.3142911427       57.6001089450  TIP3      9030            0.0000000000
     49341      9222  TIP3      H1              9.3400203837       33.5404996800       57.0221712284  TIP3      9030            0.0000000000
     49342      9222  TIP3      H2              8.8245793400       33.8988526752       58.3792564316  TIP3      9030            0.0000000000
     49343      9223  TIP3      OH2             8.0043818079       33.8180001860       60.0584455300  TIP3      9031            0.0000000000
     49344      9223  TIP3      H1              8.2833368115       33.3286960174       60.8435055263  TIP3      9031            0.0000000000
     49345      9223  TIP3      H2              8.1279074241       34.7536822710       60.3313535668  TIP3      9031            0.0000000000
     49346      9224  TIP3      OH2             4.5659828959       31.1132715293       60.5546371796  TIP3      9032            0.0000000000
     49347      9224  TIP3      H1              3.8501591097       31.5097884108       61.0884937349  TIP3      9032            0.0000000000
     49348      9224  TIP3      H2              5.0688952345       31.8961826662       60.2602992582  TIP3      9032            0.0000000000
     49349      9225  TIP3      OH2            12.3962775775       23.7952829166       70.8742693217  TIP3      9033            0.0000000000
     49350      9225  TIP3      H1             13.1100195562       23.8561326138       71.5181440150  TIP3      9033            0.0000000000
     49351      9225  TIP3      H2             12.0122640441       22.9194646190       71.0793866200  TIP3      9033            0.0000000000
     49352      9226  TIP3      OH2            13.1357982159       23.3646812886       61.9615846489  TIP3      9034            0.0000000000
     49353      9226  TIP3      H1             13.3700733362       23.8265397996       61.1319856646  TIP3      9034            0.0000000000
     49354      9226  TIP3      H2             13.7162786298       23.8063969910       62.5942513463  TIP3      9034            0.0000000000
     49355      9227  TIP3      OH2            10.8730352705       35.5568320193       60.7903145279  TIP3      9035            0.0000000000
     49356      9227  TIP3      H1             10.0196733054       36.0285684765       60.8339754706  TIP3      9035            0.0000000000
     49357      9227  TIP3      H2             11.3416708425       36.0623368562       60.1095022875  TIP3      9035            0.0000000000
     49358      9228  TIP3      OH2            10.3720012032       25.1146839193       62.7810676932  TIP3      9036            0.0000000000
     49359      9228  TIP3      H1             11.1527865006       25.6994229904       62.8271992343  TIP3      9036            0.0000000000
     49360      9228  TIP3      H2             10.1060381775       24.9983048940       63.7123843932  TIP3      9036            0.0000000000
     49361      9229  TIP3      OH2            10.9340483098       26.1501558247       71.9722820413  TIP3      9037            0.0000000000
     49362      9229  TIP3      H1             11.0010611607       26.6966652329       72.7785564960  TIP3      9037            0.0000000000
     49363      9229  TIP3      H2             11.5859270177       25.4461922082       72.0692160686  TIP3      9037            0.0000000000
     49364      9230  TIP3      OH2            11.2384987286       22.1632592493       63.6741657400  TIP3      9038            0.0000000000
     49365      9230  TIP3      H1             10.8978299279       22.8177086791       64.3090750245  TIP3      9038            0.0000000000
     49366      9230  TIP3      H2             11.9172093853       22.7189766995       63.2199377401  TIP3      9038            0.0000000000
     49367      9231  TIP3      OH2             8.2849340857      -36.4652257292       60.8247600496  TIP3      9039            0.0000000000
     49368      9231  TIP3      H1              8.3062337466      -35.6791272000       60.2471321642  TIP3      9039            0.0000000000
     49369      9231  TIP3      H2              7.9843191572      -36.0964519131       61.6694277151  TIP3      9039            0.0000000000
     49370      9232  TIP3      OH2             6.8759933312       23.2797582551       60.3732370098  TIP3      9040            0.0000000000
     49371      9232  TIP3      H1              6.8262044276       24.1781257809       60.7576633797  TIP3      9040            0.0000000000
     49372      9232  TIP3      H2              7.7851990777       23.0352062971       60.6360390587  TIP3      9040            0.0000000000
     49373      9233  TIP3      OH2            17.1024408738       24.0155691356       72.8178757189  TIP3      9041            0.0000000000
     49374      9233  TIP3      H1             16.1733189457       24.3288167215       72.6925672180  TIP3      9041            0.0000000000
     49375      9233  TIP3      H2             17.4010177703       23.9984863205       71.8942077842  TIP3      9041            0.0000000000
     49376      9234  TIP3      OH2            15.7176390363       27.7971612589       66.8201522522  TIP3      9042            0.0000000000
     49377      9234  TIP3      H1             14.8900986488       27.3512774323       66.5541344295  TIP3      9042            0.0000000000
     49378      9234  TIP3      H2             16.1971614119       27.1123737209       67.3393752953  TIP3      9042            0.0000000000
     49379      9235  TIP3      OH2             5.1283176271       33.7195337774       59.4145668040  TIP3      9043            0.0000000000
     49380      9235  TIP3      H1              5.8015811263       34.3587139349       59.6897459122  TIP3      9043            0.0000000000
     49381      9235  TIP3      H2              5.6363305347       33.2479120496       58.7286185102  TIP3      9043            0.0000000000
     49382      9236  TIP3      OH2             3.4537321960       26.3944820175       58.5590833451  TIP3      9044            0.0000000000
     49383      9236  TIP3      H1              3.4720873525       27.3530309477       58.7670950119  TIP3      9044            0.0000000000
     49384      9236  TIP3      H2              2.5615610276       26.2211967394       58.2516642529  TIP3      9044            0.0000000000
     49385      9237  TIP3      OH2             4.2702512310       21.1795622168       67.3049056735  TIP3      9045            0.0000000000
     49386      9237  TIP3      H1              4.0769261421       21.1972464714       66.3413613057  TIP3      9045            0.0000000000
     49387      9237  TIP3      H2              3.8565008224       20.3266320423       67.5550581599  TIP3      9045            0.0000000000
     49388      9238  TIP3      OH2             3.2350893496       35.1052928370       63.4197988449  TIP3      9046            0.0000000000
     49389      9238  TIP3      H1              2.3667161195       35.5288432118       63.4127664999  TIP3      9046            0.0000000000
     49390      9238  TIP3      H2              3.7277988298       35.5909301335       62.7524822047  TIP3      9046            0.0000000000
     49391      9239  TIP3      OH2             7.4191299655       36.3870851104       76.5789344646  TIP3      9047            0.0000000000
     49392      9239  TIP3      H1              8.2501944221       35.9255984623       76.7245065737  TIP3      9047            0.0000000000
     49393      9239  TIP3      H2              7.3082313194       36.2088044648       75.6180244208  TIP3      9047            0.0000000000
     49394      9240  TIP3      OH2            11.2709019599       36.1148007437       57.8491380068  TIP3      9048            0.0000000000
     49395      9240  TIP3      H1             10.5244039586       35.4933776638       57.9258657267  TIP3      9048            0.0000000000
     49396      9240  TIP3      H2             11.9656479235       35.5791580206       57.4632382336  TIP3      9048            0.0000000000
     49397      9241  TIP3      OH2            13.6780727760       34.6931737133       74.9399089253  TIP3      9049            0.0000000000
     49398      9241  TIP3      H1             13.2135297043       34.0110422839       75.4549129483  TIP3      9049            0.0000000000
     49399      9241  TIP3      H2             14.2878385406       35.0659494434       75.5886498851  TIP3      9049            0.0000000000
     49400      9242  TIP3      OH2            15.9870682029       35.9080305840       58.1152625149  TIP3      9050            0.0000000000
     49401      9242  TIP3      H1             16.2115563404       35.0283893566       58.4311964187  TIP3      9050            0.0000000000
     49402      9242  TIP3      H2             16.6665205715       36.0945844397       57.4380636600  TIP3      9050            0.0000000000
     49403      9243  TIP3      OH2             2.3276334655       31.4978392632       75.7180325914  TIP3      9051            0.0000000000
     49404      9243  TIP3      H1              2.5069995211       30.5980284070       75.3847373470  TIP3      9051            0.0000000000
     49405      9243  TIP3      H2              1.5973607001       31.7976460817       75.1453126030  TIP3      9051            0.0000000000
     49406      9244  TIP3      OH2             6.6905479361       31.8477442130       57.7458810034  TIP3      9052            0.0000000000
     49407      9244  TIP3      H1              6.8409960960       31.0917027000       58.3376516836  TIP3      9052            0.0000000000
     49408      9244  TIP3      H2              7.4437455684       31.7436579612       57.1321073430  TIP3      9052            0.0000000000
     49409      9245  TIP3      OH2             9.0729369972       31.4951263048       75.0972194455  TIP3      9053            0.0000000000
     49410      9245  TIP3      H1              8.7173925122       31.8068459122       74.2437044442  TIP3      9053            0.0000000000
     49411      9245  TIP3      H2              9.1262451997       30.5140938033       74.9954597169  TIP3      9053            0.0000000000
     49412      9246  TIP3      OH2            12.1363248856       32.9939189408       57.5228949589  TIP3      9054            0.0000000000
     49413      9246  TIP3      H1             11.8332332750       33.0824218354       58.4411340913  TIP3      9054            0.0000000000
     49414      9246  TIP3      H2             11.9348306362       32.0420809134       57.3789295969  TIP3      9054            0.0000000000
     49415      9247  TIP3      OH2            14.7582601932       31.3743447305       72.5043339052  TIP3      9055            0.0000000000
     49416      9247  TIP3      H1             15.5435354134       31.9568142712       72.4335759426  TIP3      9055            0.0000000000
     49417      9247  TIP3      H2             14.0548313008       32.0366065307       72.5491547702  TIP3      9055            0.0000000000
     49418      9248  TIP3      OH2             3.2621937228       28.7700364668       75.1035081984  TIP3      9056            0.0000000000
     49419      9248  TIP3      H1              3.6736175065       27.9053979350       75.0060999499  TIP3      9056            0.0000000000
     49420      9248  TIP3      H2              3.0353891147       28.7672350411       76.0515693177  TIP3      9056            0.0000000000
     49421      9249  TIP3      OH2             7.8930997797       29.8871695654       60.1756943163  TIP3      9057            0.0000000000
     49422      9249  TIP3      H1              7.3900056140       29.3477347013       60.8037773789  TIP3      9057            0.0000000000
     49423      9249  TIP3      H2              8.1919511091       29.2140943884       59.5205332885  TIP3      9057            0.0000000000
     49424      9250  TIP3      OH2             7.1586438817       27.6948518368       72.4608045263  TIP3      9058            0.0000000000
     49425      9250  TIP3      H1              6.5638464106       28.4169595344       72.7178035434  TIP3      9058            0.0000000000
     49426      9250  TIP3      H2              7.5583095864       28.0625438756       71.6539393212  TIP3      9058            0.0000000000
     49427      9251  TIP3      OH2             8.9704673412       28.1105405430       58.3740827843  TIP3      9059            0.0000000000
     49428      9251  TIP3      H1              8.8191477792       28.0204647630       57.4110030854  TIP3      9059            0.0000000000
     49429      9251  TIP3      H2              9.9466863010       28.1623448256       58.4401093668  TIP3      9059            0.0000000000
     49430      9252  TIP3      OH2            12.2280960269       30.2713710870       75.8527033550  TIP3      9060            0.0000000000
     49431      9252  TIP3      H1             13.1782656141       30.2372074107       75.6614785721  TIP3      9060            0.0000000000
     49432      9252  TIP3      H2             12.0636363480       29.4870094243       76.3945441229  TIP3      9060            0.0000000000
     49433      9253  TIP3      OH2            18.3082192941       30.4230747938       57.7850156148  TIP3      9061            0.0000000000
     49434      9253  TIP3      H1             18.1088867701       30.0471659207       56.9117708070  TIP3      9061            0.0000000000
     49435      9253  TIP3      H2             18.3760565240       31.3903455547       57.5978966750  TIP3      9061            0.0000000000
     49436      9254  TIP3      OH2             7.5777400356       25.0847121747       73.5006561625  TIP3      9062            0.0000000000
     49437      9254  TIP3      H1              7.6838891818       24.3653181613       72.8514617307  TIP3      9062            0.0000000000
     49438      9254  TIP3      H2              7.5235563599       25.8925297936       72.9536182776  TIP3      9062            0.0000000000
     49439      9255  TIP3      OH2             7.9716978698       23.4532926319       71.0723688243  TIP3      9063            0.0000000000
     49440      9255  TIP3      H1              8.4792181347       23.9197390550       70.3659949348  TIP3      9063            0.0000000000
     49441      9255  TIP3      H2              7.0774890945       23.3764120839       70.6674524211  TIP3      9063            0.0000000000
     49442      9256  TIP3      OH2             9.5109616155       28.9440083249       71.3231712096  TIP3      9064            0.0000000000
     49443      9256  TIP3      H1             10.2609371455       28.7764694425       70.7446867629  TIP3      9064            0.0000000000
     49444      9256  TIP3      H2              9.1422034641       29.7735563338       70.9801165663  TIP3      9064            0.0000000000
     49445      9257  TIP3      OH2            13.8853003119       26.6813740306       76.2562633233  TIP3      9065            0.0000000000
     49446      9257  TIP3      H1             14.1307399639       25.7471403323       76.1933209229  TIP3      9065            0.0000000000
     49447      9257  TIP3      H2             14.7502087629       27.1228679008       76.3053945644  TIP3      9065            0.0000000000
     49448      9258  TIP3      OH2            15.2466767012       29.5012350831       74.4532613649  TIP3      9066            0.0000000000
     49449      9258  TIP3      H1             14.9946945736       30.2115309420       73.8233256571  TIP3      9066            0.0000000000
     49450      9258  TIP3      H2             16.2014154647       29.4695804053       74.2487183273  TIP3      9066            0.0000000000
     49451      9259  TIP3      OH2             6.0498129154       26.3158499496       75.4608152552  TIP3      9067            0.0000000000
     49452      9259  TIP3      H1              5.2638962923       25.7641271002       75.2649415877  TIP3      9067            0.0000000000
     49453      9259  TIP3      H2              6.6796064682       25.9591660131       74.8005059118  TIP3      9067            0.0000000000
     49454      9260  TIP3      OH2             8.7500950131       20.8862393132       71.4794388640  TIP3      9068            0.0000000000
     49455      9260  TIP3      H1              8.5772056810       21.8502083641       71.3675875855  TIP3      9068            0.0000000000
     49456      9260  TIP3      H2              8.0106956341       20.5221921080       70.9616528212  TIP3      9068            0.0000000000
     49457      9261  TIP3      OH2            10.0406092031       25.2177053544       75.0837393043  TIP3      9069            0.0000000000
     49458      9261  TIP3      H1              9.7155329809       25.0036433384       75.9820280355  TIP3      9069            0.0000000000
     49459      9261  TIP3      H2              9.2590006036       25.0247653629       74.5293903721  TIP3      9069            0.0000000000
     49460      9262  TIP3      OH2            12.7458187225       24.3520330679       74.1611552845  TIP3      9070            0.0000000000
     49461      9262  TIP3      H1             11.7857644666       24.4194893946       74.2961028850  TIP3      9070            0.0000000000
     49462      9262  TIP3      H2             13.0117407170       23.7178255338       74.8562832241  TIP3      9070            0.0000000000
     49463      9263  TIP3      OH2            14.2847342700       22.9903245600       76.0811747024  TIP3      9071            0.0000000000
     49464      9263  TIP3      H1             14.2858032447       22.0107058945       76.0996011458  TIP3      9071            0.0000000000
     49465      9263  TIP3      H2             14.0634661455       23.2706550575       76.9977978472  TIP3      9071            0.0000000000
     49466      9264  TIP3      OH2             4.1237279926       24.2610400943       75.1967389539  TIP3      9072            0.0000000000
     49467      9264  TIP3      H1              4.3594659644       23.5215352112       74.6087686094  TIP3      9072            0.0000000000
     49468      9264  TIP3      H2              4.0218334792       23.8133275034       76.0610863539  TIP3      9072            0.0000000000
     49469      9265  TIP3      OH2             8.9759942347       20.2772225468       74.1708674768  TIP3      9073            0.0000000000
     49470      9265  TIP3      H1              9.6615881629       19.5794431894       74.1400303175  TIP3      9073            0.0000000000
     49471      9265  TIP3      H2              8.8692445333       20.4337657926       73.2146469546  TIP3      9073            0.0000000000
     49472      9266  TIP3      OH2             9.3104839250       21.8762559519       76.2711825330  TIP3      9074            0.0000000000
     49473      9266  TIP3      H1              9.1611419845       21.3808530396       75.4254407533  TIP3      9074            0.0000000000
     49474      9266  TIP3      H2              8.7514895405       22.6674099704       76.1547708031  TIP3      9074            0.0000000000
     49475      9267  TIP3      OH2             2.3837753240       33.3871754237       58.8923057112  TIP3      9075            0.0000000000
     49476      9267  TIP3      H1              3.3341754596       33.4879985674       59.1202820866  TIP3      9075            0.0000000000
     49477      9267  TIP3      H2              2.4396870713       32.7145687767       58.1759703948  TIP3      9075            0.0000000000
     49478      9268  TIP3      OH2            17.5265196908       33.0086967234       76.3180586667  TIP3      9076            0.0000000000
     49479      9268  TIP3      H1             16.6210349612       32.9779230240       76.6949859404  TIP3      9076            0.0000000000
     49480      9268  TIP3      H2             17.9103119097       33.8006573511       76.7660842133  TIP3      9076            0.0000000000
     49481      9269  TIP3      OH2            18.8311448638       31.3308413732       61.7374785395  TIP3      9077            0.0000000000
     49482      9269  TIP3      H1             19.6947091451       31.7330295322       61.9265253839  TIP3      9077            0.0000000000
     49483      9269  TIP3      H2             18.8166316724       30.6215115385       62.4157587304  TIP3      9077            0.0000000000
     49484      9270  TIP3      OH2            19.1928761274       29.4216898330       63.6312601237  TIP3      9078            0.0000000000
     49485      9270  TIP3      H1             18.4425242314       28.9189761552       64.0238620860  TIP3      9078            0.0000000000
     49486      9270  TIP3      H2             19.7929487175       29.5491537593       64.3955320935  TIP3      9078            0.0000000000
     49487      9271  TIP3      OH2            18.9597267623       32.1138066746       68.6420782241  TIP3      9079            0.0000000000
     49488      9271  TIP3      H1             19.7593792265       31.7399030654       68.2348824805  TIP3      9079            0.0000000000
     49489      9271  TIP3      H2             19.0929220746       33.0674162394       68.4581083217  TIP3      9079            0.0000000000
     49490      9272  TIP3      OH2            17.4438415683       35.0010599891       70.9329457871  TIP3      9080            0.0000000000
     49491      9272  TIP3      H1             16.7468905635       35.3787429100       71.4670975048  TIP3      9080            0.0000000000
     49492      9272  TIP3      H2             16.9473112508       34.6404279924       70.1584443804  TIP3      9080            0.0000000000
     49493      9273  TIP3      OH2            19.5020970611       29.2388782616       60.0194100556  TIP3      9081            0.0000000000
     49494      9273  TIP3      H1             18.9295952348       29.5972414910       59.3050136163  TIP3      9081            0.0000000000
     49495      9273  TIP3      H2             19.3978741229       29.9523143270       60.6795622703  TIP3      9081            0.0000000000
     49496      9274  TIP3      OH2            17.8677884981       26.4740735361       58.5304187879  TIP3      9082            0.0000000000
     49497      9274  TIP3      H1             17.9434397567       27.1406944134       57.8370757703  TIP3      9082            0.0000000000
     49498      9274  TIP3      H2             17.6805727796       25.6524963175       58.0357634768  TIP3      9082            0.0000000000
     49499      9275  TIP3      OH2            17.0130503986       27.8942172807       64.1975543796  TIP3      9083            0.0000000000
     49500      9275  TIP3      H1             16.8631975350       26.9396114236       64.1598211138  TIP3      9083            0.0000000000
     49501      9275  TIP3      H2             16.6814301965       28.1123983385       65.0886805313  TIP3      9083            0.0000000000
     49502      9276  TIP3      OH2             2.0193354806       29.9861773075       68.2576120054  TIP3      9084            0.0000000000
     49503      9276  TIP3      H1              2.1953262279       29.8994392571       67.2942396500  TIP3      9084            0.0000000000
     49504      9276  TIP3      H2              2.9122804720       29.8062911510       68.6105587034  TIP3      9084            0.0000000000
     49505      9277  TIP3      OH2            17.8727590554       29.8662050328       73.9063038431  TIP3      9085            0.0000000000
     49506      9277  TIP3      H1             18.4858810795       29.1070175830       74.0123568532  TIP3      9085            0.0000000000
     49507      9277  TIP3      H2             18.4796984373       30.6363285670       73.8821615532  TIP3      9085            0.0000000000
     49508      9278  TIP3      OH2            19.3631870468       27.7490797861       74.5529690200  TIP3      9086            0.0000000000
     49509      9278  TIP3      H1             18.4900054008       27.3436316117       74.3626292913  TIP3      9086            0.0000000000
     49510      9278  TIP3      H2             19.9420387108       26.9732290055       74.4661129695  TIP3      9086            0.0000000000
     49511      9279  TIP3      OH2            17.1177445295       23.9490566692       57.6681632072  TIP3      9087            0.0000000000
     49512      9279  TIP3      H1             17.7030564445       23.5108510580       58.3113810722  TIP3      9087            0.0000000000
     49513      9279  TIP3      H2             16.2507122291       23.5337177506       57.8196948178  TIP3      9087            0.0000000000
     49514      9280  TIP3      OH2            16.6574689499       25.4768181449       62.6107771446  TIP3      9088            0.0000000000
     49515      9280  TIP3      H1             16.9783075175       24.5603456271       62.7725133273  TIP3      9088            0.0000000000
     49516      9280  TIP3      H2             17.4756051167       25.8908591633       62.3019305930  TIP3      9088            0.0000000000
     49517      9281  TIP3      OH2            17.3174443987       26.0250726973       68.0976522552  TIP3      9089            0.0000000000
     49518      9281  TIP3      H1             18.2789436076       26.2542352196       68.0809447344  TIP3      9089            0.0000000000
     49519      9281  TIP3      H2             17.1324286100       26.1655997010       69.0384498896  TIP3      9089            0.0000000000
     49520      9282  TIP3      OH2            17.3863592166       26.7459137469       70.8740783347  TIP3      9090            0.0000000000
     49521      9282  TIP3      H1             16.5040177401       27.0335946091       71.1944819839  TIP3      9090            0.0000000000
     49522      9282  TIP3      H2             17.8207060801       27.6046291403       70.6564400545  TIP3      9090            0.0000000000
     49523      9283  TIP3      OH2             1.6449650208       25.2662768202       74.3863409577  TIP3      9091            0.0000000000
     49524      9283  TIP3      H1              2.5773892674       25.0705451565       74.6038600457  TIP3      9091            0.0000000000
     49525      9283  TIP3      H2              1.1810823581       24.4569208897       74.6944556822  TIP3      9091            0.0000000000
     49526      9284  TIP3      OH2            19.6501697171       20.8170760430       76.2173795059  TIP3      9092            0.0000000000
     49527      9284  TIP3      H1             20.0016153760       20.1439811403       75.6108206475  TIP3      9092            0.0000000000
     49528      9284  TIP3      H2             19.7652465084       21.6320631479       75.6985750015  TIP3      9092            0.0000000000
     49529      9285  TIP3      OH2            17.3678634615       22.7580358063       62.7033591168  TIP3      9093            0.0000000000
     49530      9285  TIP3      H1             17.5480083836       22.3345324568       63.5582887888  TIP3      9093            0.0000000000
     49531      9285  TIP3      H2             16.7471770929       22.1425962713       62.2541900538  TIP3      9093            0.0000000000
     49532      9286  TIP3      OH2             2.8349920783       23.5738632920       67.2604434306  TIP3      9094            0.0000000000
     49533      9286  TIP3      H1              3.2960505724       22.7473154748       67.5157251908  TIP3      9094            0.0000000000
     49534      9286  TIP3      H2              3.3873415460       24.2664489993       67.6477196881  TIP3      9094            0.0000000000
     49535      9287  TIP3      OH2             1.1181708390       26.5772489274       68.2957967219  TIP3      9095            0.0000000000
     49536      9287  TIP3      H1              1.6818221409       26.3253467623       67.5360898539  TIP3      9095            0.0000000000
     49537      9287  TIP3      H2              1.5867663350       27.3801663660       68.5655679845  TIP3      9095            0.0000000000
     49538      9288  TIP3      OH2            19.1756076173       22.9121615354       74.5731602024  TIP3      9096            0.0000000000
     49539      9288  TIP3      H1             18.2373222917       23.1788197839       74.5203360478  TIP3      9096            0.0000000000
     49540      9288  TIP3      H2             19.2099185696       22.3551980288       73.7811289743  TIP3      9096            0.0000000000
     49541      9289  TIP3      OH2            19.1658338755       22.7925971925       59.2690753830  TIP3      9097            0.0000000000
     49542      9289  TIP3      H1             19.5768186872       22.0932018186       58.7148244642  TIP3      9097            0.0000000000
     49543      9289  TIP3      H2             19.8671013485       23.4632253493       59.3089720533  TIP3      9097            0.0000000000
     49544      9290  TIP3      OH2             1.4876987584       22.8527551512       62.3809095693  TIP3      9098            0.0000000000
     49545      9290  TIP3      H1              0.5439862560       23.0095764196       62.2153446542  TIP3      9098            0.0000000000
     49546      9290  TIP3      H2              1.9041850997       23.3272781047       61.6430791392  TIP3      9098            0.0000000000
     49547      9291  TIP3      OH2             1.4312561342       21.4849674702       70.6627083619  TIP3      9099            0.0000000000
     49548      9291  TIP3      H1              0.7645793261       21.2956202371       71.3457438934  TIP3      9099            0.0000000000
     49549      9291  TIP3      H2              0.9747574480       22.1619762759       70.1235846989  TIP3      9099            0.0000000000
     49550      9292  TIP3      OH2             3.6639790348       34.7547456709       74.8342907943  TIP3      9100            0.0000000000
     49551      9292  TIP3      H1              2.8066318881       34.8696058099       74.3875827601  TIP3      9100            0.0000000000
     49552      9292  TIP3      H2              3.3881905025       34.5877707987       75.7440677275  TIP3      9100            0.0000000000
     49553      9293  TIP3      OH2             6.6102778634       35.6824680400       71.1845764070  TIP3      9101            0.0000000000
     49554      9293  TIP3      H1              6.1540959252       36.4408332763       70.7936535986  TIP3      9101            0.0000000000
     49555      9293  TIP3      H2              7.4635185706       35.6501699933       70.7242647458  TIP3      9101            0.0000000000
     49556      9294  TIP3      OH2            18.1918468385       21.0013573046       72.4418594734  TIP3      9102            0.0000000000
     49557      9294  TIP3      H1             17.3710760352       21.2987516210       72.0127671159  TIP3      9102            0.0000000000
     49558      9294  TIP3      H2             18.3669836568       20.1787683315       71.9301716029  TIP3      9102            0.0000000000
     49559      9295  TIP3      OH2             5.7725166448       36.0367902316       66.4725203623  TIP3      9103            0.0000000000
     49560      9295  TIP3      H1              5.3882180902       35.2751168340       66.9343990717  TIP3      9103            0.0000000000
     49561      9295  TIP3      H2              6.3528553973       36.3983682125       67.1639602549  TIP3      9103            0.0000000000
     49562      9296  TIP3      OH2            11.5895589915       22.4221750971       66.7169594602  TIP3      9104            0.0000000000
     49563      9296  TIP3      H1             10.9031638735       21.7882509351       66.9919745141  TIP3      9104            0.0000000000
     49564      9296  TIP3      H2             12.1342379181       21.8907761793       66.1255629894  TIP3      9104            0.0000000000
     49565      9297  TIP3      OH2            16.7735103847       20.4230841714       66.6883117940  TIP3      9105            0.0000000000
     49566      9297  TIP3      H1             17.2968364963       21.1543401876       66.2744058456  TIP3      9105            0.0000000000
     49567      9297  TIP3      H2             15.8582647215       20.7990851560       66.5775727261  TIP3      9105            0.0000000000
     49568      9298  TIP3      OH2            18.4367110643       21.6697754234       65.1150204665  TIP3      9106            0.0000000000
     49569      9298  TIP3      H1             19.1064065679       21.2138003532       64.5540190734  TIP3      9106            0.0000000000
     49570      9298  TIP3      H2             18.8656534331       22.5650967701       65.1630700081  TIP3      9106            0.0000000000
     49571      9299  TIP3      OH2             3.9618746110       21.0500066835       64.5593631285  TIP3      9107            0.0000000000
     49572      9299  TIP3      H1              3.1641267035       20.8566780906       64.0307206313  TIP3      9107            0.0000000000
     49573      9299  TIP3      H2              4.4195882424       20.1889714582       64.4989059721  TIP3      9107            0.0000000000
     49574      9300  TIP3      OH2             2.7258604057       20.8038659606       60.2809735669  TIP3      9108            0.0000000000
     49575      9300  TIP3      H1              3.2191680362       21.4533932586       59.7460185932  TIP3      9108            0.0000000000
     49576      9300  TIP3      H2              2.1597006695       21.3782289788       60.8185096072  TIP3      9108            0.0000000000
     49577      9301  TIP3      OH2             8.4289359421       20.9766343865       64.3457861266  TIP3      9109            0.0000000000
     49578      9301  TIP3      H1              9.3293636974       21.3333460569       64.2720606720  TIP3      9109            0.0000000000
     49579      9301  TIP3      H2              8.3956503206       20.7572070606       65.2757545525  TIP3      9109            0.0000000000
     49580      9302  TIP3      OH2            14.1999074438       20.9673002759       65.9638784827  TIP3      9110            0.0000000000
     49581      9302  TIP3      H1             14.0691721545       21.1171274692       65.0158671118  TIP3      9110            0.0000000000
     49582      9302  TIP3      H2             13.7373403842       20.1022058558       66.1029642866  TIP3      9110            0.0000000000
     49583      9303  TIP3      OH2            15.4204051459       21.0199614407       61.6861707794  TIP3      9111            0.0000000000
     49584      9303  TIP3      H1             14.6781604963       21.6160020489       61.4990570904  TIP3      9111            0.0000000000
     49585      9303  TIP3      H2             14.9589202112       20.1681921901       61.8742991362  TIP3      9111            0.0000000000
     49586      9304  TIP3      OH2             4.5548889398       22.7474865713       58.7924748281  TIP3      9112            0.0000000000
     49587      9304  TIP3      H1              5.0868454788       22.1298265503       58.2641324470  TIP3      9112            0.0000000000
     49588      9304  TIP3      H2              5.2209206906       23.0695880114       59.4273675410  TIP3      9112            0.0000000000
     49589      9305  TIP3      OH2             9.5816260991       22.9905115532       61.1953983148  TIP3      9113            0.0000000000
     49590      9305  TIP3      H1              9.8313508912       22.4124659207       61.9345197336  TIP3      9113            0.0000000000
     49591      9305  TIP3      H2              9.6522392300       23.8569522201       61.6534545267  TIP3      9113            0.0000000000
     49592      9306  TIP3      OH2             3.8336153173       21.5823918563       73.9909584970  TIP3      9114            0.0000000000
     49593      9306  TIP3      H1              3.4480071492       20.7925657355       74.4175852364  TIP3      9114            0.0000000000
     49594      9306  TIP3      H2              4.7435914640       21.5475537043       74.3735699342  TIP3      9114            0.0000000000
     49595      9307  TIP3      OH2             5.8527191054       20.9791937490       75.6303537378  TIP3      9115            0.0000000000
     49596      9307  TIP3      H1              6.7349917243       20.6229526672       75.4067988380  TIP3      9115            0.0000000000
     49597      9307  TIP3      H2              5.4646932147       20.1856005891       76.0550445562  TIP3      9115            0.0000000000
     49598      9308  TIP3      OH2            14.2492242593       20.2516088062       75.8076566857  TIP3      9116            0.0000000000
     49599      9308  TIP3      H1             14.3543712623       19.7864735913       76.6589638701  TIP3      9116            0.0000000000
     49600      9308  TIP3      H2             15.1656857375       20.2325875506       75.4616430713  TIP3      9116            0.0000000000
     49601      9309  TIP3      OH2            17.3129170023      -36.7452014566       74.6034077543  TIP3      9117            0.0000000000
     49602      9309  TIP3      H1             16.6678709095      -36.9063374369       73.9003275078  TIP3      9117            0.0000000000
     49603      9309  TIP3      H2             17.3822054364      -35.7842595961       74.5937397488  TIP3      9117            0.0000000000
     49604      9310  TIP3      OH2            31.8978020526       30.1711951519       64.4167164521  TIP3      9118            0.0000000000
     49605      9310  TIP3      H1             31.9040344809       31.1562859034       64.3931590074  TIP3      9118            0.0000000000
     49606      9310  TIP3      H2             31.1708219517       29.9519005432       63.8122710985  TIP3      9118            0.0000000000
     49607      9311  TIP3      OH2            30.7649555794       29.4438979869       67.9221429724  TIP3      9119            0.0000000000
     49608      9311  TIP3      H1             30.7340929079       28.7843574013       68.6291288595  TIP3      9119            0.0000000000
     49609      9311  TIP3      H2             30.4340002344       28.9420414317       67.1587971893  TIP3      9119            0.0000000000
     49610      9312  TIP3      OH2            23.1085675140       29.1224360326       69.4707122617  TIP3      9120            0.0000000000
     49611      9312  TIP3      H1             23.1941781054       28.4365295118       70.1652230133  TIP3      9120            0.0000000000
     49612      9312  TIP3      H2             23.8598055001       29.6921358735       69.6911508549  TIP3      9120            0.0000000000
     49613      9313  TIP3      OH2            34.4606677194       32.3700468362       66.2034268874  TIP3      9121            0.0000000000
     49614      9313  TIP3      H1             34.0430756195       31.6622609253       66.7000953363  TIP3      9121            0.0000000000
     49615      9313  TIP3      H2             34.4846152547       33.0884227455       66.8551708572  TIP3      9121            0.0000000000
     49616      9314  TIP3      OH2            24.0538691690       33.5739325962       68.0002657488  TIP3      9122            0.0000000000
     49617      9314  TIP3      H1             23.7199976136       32.7182715669       67.6606356296  TIP3      9122            0.0000000000
     49618      9314  TIP3      H2             25.0055447451       33.3789336105       68.0070560392  TIP3      9122            0.0000000000
     49619      9315  TIP3      OH2            20.6818845605       27.1199211053       63.4658189141  TIP3      9123            0.0000000000
     49620      9315  TIP3      H1             20.2428065635       27.9921908260       63.3960010889  TIP3      9123            0.0000000000
     49621      9315  TIP3      H2             20.1130842496       26.5859088491       62.8923499932  TIP3      9123            0.0000000000
     49622      9316  TIP3      OH2            21.3864711822       29.3518155655       65.6085066024  TIP3      9124            0.0000000000
     49623      9316  TIP3      H1             21.6613562402       28.5308307612       66.0588284102  TIP3      9124            0.0000000000
     49624      9316  TIP3      H2             22.0817341517       29.4628464933       64.9415711823  TIP3      9124            0.0000000000
     49625      9317  TIP3      OH2            29.1207680268       31.8193207353       68.4035908083  TIP3      9125            0.0000000000
     49626      9317  TIP3      H1             29.4687157673       31.2152695663       67.7293290442  TIP3      9125            0.0000000000
     49627      9317  TIP3      H2             29.9368784192       32.0212339765       68.8939859078  TIP3      9125            0.0000000000
     49628      9318  TIP3      OH2            32.3054501542       26.3174048239       68.6970366921  TIP3      9126            0.0000000000
     49629      9318  TIP3      H1             32.4818461902       25.3597571837       68.6927826402  TIP3      9126            0.0000000000
     49630      9318  TIP3      H2             32.2085545613       26.4636026711       67.7366004247  TIP3      9126            0.0000000000
     49631      9319  TIP3      OH2            25.5422207949       24.3502128616       65.8362325146  TIP3      9127            0.0000000000
     49632      9319  TIP3      H1             25.4823535998       25.2567609494       65.4596936772  TIP3      9127            0.0000000000
     49633      9319  TIP3      H2             24.9173231115       23.8710021335       65.2420274995  TIP3      9127            0.0000000000
     49634      9320  TIP3      OH2            33.1741832656       24.5196171980       64.3016960260  TIP3      9128            0.0000000000
     49635      9320  TIP3      H1             33.8134479497       24.1626770622       64.9652539992  TIP3      9128            0.0000000000
     49636      9320  TIP3      H2             33.7683609346       25.0486286771       63.7623126022  TIP3      9128            0.0000000000
     49637      9321  TIP3      OH2            22.0248879121       26.8168740879       66.6515116327  TIP3      9129            0.0000000000
     49638      9321  TIP3      H1             22.6964197715       26.2780161156       67.1110402566  TIP3      9129            0.0000000000
     49639      9321  TIP3      H2             22.1406966652       26.5015470421       65.7422584971  TIP3      9129            0.0000000000
     49640      9322  TIP3      OH2            27.1874507139       28.3615897037       65.9727776379  TIP3      9130            0.0000000000
     49641      9322  TIP3      H1             27.8745928987       27.7977592838       66.3686458822  TIP3      9130            0.0000000000
     49642      9322  TIP3      H2             26.6790049611       27.7126654650       65.4608879028  TIP3      9130            0.0000000000
     49643      9323  TIP3      OH2            24.3319739607       23.2979036614       69.9385092752  TIP3      9131            0.0000000000
     49644      9323  TIP3      H1             24.0342786451       23.8798757016       69.2100887806  TIP3      9131            0.0000000000
     49645      9323  TIP3      H2             23.6639507025       23.5257313953       70.6329328105  TIP3      9131            0.0000000000
     49646      9324  TIP3      OH2            31.6133122557       32.7664870274       63.4962511541  TIP3      9132            0.0000000000
     49647      9324  TIP3      H1             31.3512307480       32.5167041163       62.6032825736  TIP3      9132            0.0000000000
     49648      9324  TIP3      H2             31.2981015423       33.6897211315       63.5707716019  TIP3      9132            0.0000000000
     49649      9325  TIP3      OH2            26.8387959997       30.9249542001       70.2098694089  TIP3      9133            0.0000000000
     49650      9325  TIP3      H1             26.1325660727       31.5708744029       70.4202433697  TIP3      9133            0.0000000000
     49651      9325  TIP3      H2             27.5443081015       31.5201801107       69.9103712454  TIP3      9133            0.0000000000
     49652      9326  TIP3      OH2            34.6594019548       23.8028983096       66.3980977188  TIP3      9134            0.0000000000
     49653      9326  TIP3      H1             34.6961597936       22.9815272511       66.8960831437  TIP3      9134            0.0000000000
     49654      9326  TIP3      H2             35.4269048971       24.2680394288       66.7971224585  TIP3      9134            0.0000000000
     49655      9327  TIP3      OH2            23.9045538852       25.1465369844       67.9688913596  TIP3      9135            0.0000000000
     49656      9327  TIP3      H1             24.5105597127       25.8465594125       68.3077513000  TIP3      9135            0.0000000000
     49657      9327  TIP3      H2             24.4233508059       24.7407690917       67.2485205283  TIP3      9135            0.0000000000
     49658      9328  TIP3      OH2            25.3019126923       32.9447642277       71.0073142645  TIP3      9136            0.0000000000
     49659      9328  TIP3      H1             25.2379854376       33.8419987520       70.6444079857  TIP3      9136            0.0000000000
     49660      9328  TIP3      H2             24.4121366960       32.8570159802       71.4321857994  TIP3      9136            0.0000000000
     49661      9329  TIP3      OH2            21.3452607860       32.6129275105       61.8139907856  TIP3      9137            0.0000000000
     49662      9329  TIP3      H1             21.1075242185       32.9229442090       60.9229610039  TIP3      9137            0.0000000000
     49663      9329  TIP3      H2             21.4606067317       33.4351146500       62.3210938307  TIP3      9137            0.0000000000
     49664      9330  TIP3      OH2            34.7778398799       34.1680059585       68.6947899035  TIP3      9138            0.0000000000
     49665      9330  TIP3      H1             33.8128320225       34.3504632321       68.7306505978  TIP3      9138            0.0000000000
     49666      9330  TIP3      H2             35.1682332074       34.9955641275       68.3574911713  TIP3      9138            0.0000000000
     49667      9331  TIP3      OH2            35.0901447357       22.6456412736       69.6970758954  TIP3      9139            0.0000000000
     49668      9331  TIP3      H1             34.4016188245       23.3258049486       69.8166705046  TIP3      9139            0.0000000000
     49669      9331  TIP3      H2             35.8598954188       23.1403892928       69.3892811258  TIP3      9139            0.0000000000
     49670      9332  TIP3      OH2            28.2180817485       20.6597691156       67.3416093909  TIP3      9140            0.0000000000
     49671      9332  TIP3      H1             28.1555806709       19.6802141039       67.3645600805  TIP3      9140            0.0000000000
     49672      9332  TIP3      H2             27.3789712347       20.9193936414       67.7756478405  TIP3      9140            0.0000000000
     49673      9333  TIP3      OH2            33.2892863341       35.7237531595       64.9774955267  TIP3      9141            0.0000000000
     49674      9333  TIP3      H1             33.8379815403       35.0918979950       64.4734326487  TIP3      9141            0.0000000000
     49675      9333  TIP3      H2             33.6732354186       36.5634644605       64.7368782607  TIP3      9141            0.0000000000
     49676      9334  TIP3      OH2            34.5026083337       33.8678617064       63.6627798149  TIP3      9142            0.0000000000
     49677      9334  TIP3      H1             34.1600220135       33.1913884300       63.0665216270  TIP3      9142            0.0000000000
     49678      9334  TIP3      H2             34.4935041111       33.3966655773       64.5233733510  TIP3      9142            0.0000000000
     49679      9335  TIP3      OH2            35.8038562743       32.6836759511       72.2797519042  TIP3      9143            0.0000000000
     49680      9335  TIP3      H1             36.0803271594       31.9725382313       71.6703124840  TIP3      9143            0.0000000000
     49681      9335  TIP3      H2             36.2476128315       33.4271259544       71.8259222072  TIP3      9143            0.0000000000
     49682      9336  TIP3      OH2            30.5508391532       29.4202628249       61.9254797565  TIP3      9144            0.0000000000
     49683      9336  TIP3      H1             29.8683384061       30.0113812833       61.5636632185  TIP3      9144            0.0000000000
     49684      9336  TIP3      H2             31.2683913976       29.5166880273       61.2730162112  TIP3      9144            0.0000000000
     49685      9337  TIP3      OH2            30.6380817468       27.9969360899       58.9415337306  TIP3      9145            0.0000000000
     49686      9337  TIP3      H1             31.3556102436       27.9775470385       59.5941508706  TIP3      9145            0.0000000000
     49687      9337  TIP3      H2             30.9413955296       27.2814000785       58.3706214180  TIP3      9145            0.0000000000
     49688      9338  TIP3      OH2            33.9769007227       29.6480776963       62.8225581098  TIP3      9146            0.0000000000
     49689      9338  TIP3      H1             33.2506355366       29.8943101382       63.4414445598  TIP3      9146            0.0000000000
     49690      9338  TIP3      H2             34.4597414828       29.0046137822       63.3859556047  TIP3      9146            0.0000000000
     49691      9339  TIP3      OH2            33.9511444213       27.8177018572       71.9489674281  TIP3      9147            0.0000000000
     49692      9339  TIP3      H1             33.9041993614       28.6160335682       72.4990125003  TIP3      9147            0.0000000000
     49693      9339  TIP3      H2             33.3106202818       28.0851901074       71.2641212909  TIP3      9147            0.0000000000
     49694      9340  TIP3      OH2            25.6190528132       30.2978078234       64.7670936031  TIP3      9148            0.0000000000
     49695      9340  TIP3      H1             25.2979522360       29.9070788985       63.9192246554  TIP3      9148            0.0000000000
     49696      9340  TIP3      H2             26.2333324177       29.6070818297       65.1035946366  TIP3      9148            0.0000000000
     49697      9341  TIP3      OH2            26.9425744836       33.6988040087       67.4374198909  TIP3      9149            0.0000000000
     49698      9341  TIP3      H1             26.9412410487       33.1538423449       66.6430068967  TIP3      9149            0.0000000000
     49699      9341  TIP3      H2             27.7119550287       33.3330334276       67.9137830676  TIP3      9149            0.0000000000
     49700      9342  TIP3      OH2            25.9295937537       29.0632659465       68.4394240484  TIP3      9150            0.0000000000
     49701      9342  TIP3      H1             26.4898971891       29.1407098950       67.6401406705  TIP3      9150            0.0000000000
     49702      9342  TIP3      H2             26.3371960486       29.7152809288       69.0491784871  TIP3      9150            0.0000000000
     49703      9343  TIP3      OH2            32.3039073564       34.6203085553       69.1376427808  TIP3      9151            0.0000000000
     49704      9343  TIP3      H1             32.0527765345       35.2415384830       69.8054401189  TIP3      9151            0.0000000000
     49705      9343  TIP3      H2             32.0851380008       33.7491288479       69.5546143218  TIP3      9151            0.0000000000
     49706      9344  TIP3      OH2            26.8951956398       33.4787547980       73.1309241668  TIP3      9152            0.0000000000
     49707      9344  TIP3      H1             26.4657530519       34.2230682821       73.6096531999  TIP3      9152            0.0000000000
     49708      9344  TIP3      H2             26.2330594673       33.2463454219       72.4280461214  TIP3      9152            0.0000000000
     49709      9345  TIP3      OH2            32.8730707106       28.8177076367       60.5293229900  TIP3      9153            0.0000000000
     49710      9345  TIP3      H1             33.4285355534       29.0374908626       61.3186694658  TIP3      9153            0.0000000000
     49711      9345  TIP3      H2             33.2750161332       29.3460711249       59.8097597174  TIP3      9153            0.0000000000
     49712      9346  TIP3      OH2            23.8445059579       29.6403028930       72.2764791357  TIP3      9154            0.0000000000
     49713      9346  TIP3      H1             23.8978422238       30.3028037312       72.9887500227  TIP3      9154            0.0000000000
     49714      9346  TIP3      H2             22.8997442403       29.7242778469       72.0736978863  TIP3      9154            0.0000000000
     49715      9347  TIP3      OH2            30.5471039433       35.5418186973       64.0117909804  TIP3      9155            0.0000000000
     49716      9347  TIP3      H1             31.0776965157       35.8676220596       64.7488644570  TIP3      9155            0.0000000000
     49717      9347  TIP3      H2             30.0508630281       36.3130570711       63.7259450828  TIP3      9155            0.0000000000
     49718      9348  TIP3      OH2            25.1195857668       35.4484040946       73.8640332590  TIP3      9156            0.0000000000
     49719      9348  TIP3      H1             25.0625884486       35.3859380323       72.8866599007  TIP3      9156            0.0000000000
     49720      9348  TIP3      H2             24.1862271144       35.3306714866       74.1276184196  TIP3      9156            0.0000000000
     49721      9349  TIP3      OH2            24.5757113353       29.3138859283       62.4025220771  TIP3      9157            0.0000000000
     49722      9349  TIP3      H1             24.3017444941       30.0995195326       61.8823131709  TIP3      9157            0.0000000000
     49723      9349  TIP3      H2             23.9310517323       28.6508996125       62.1510875535  TIP3      9157            0.0000000000
     49724      9350  TIP3      OH2            20.6649783078       31.7529987382       71.2869159810  TIP3      9158            0.0000000000
     49725      9350  TIP3      H1             20.2353276649       31.6653275004       70.4170848819  TIP3      9158            0.0000000000
     49726      9350  TIP3      H2             20.7568112260       30.8049838418       71.5006471494  TIP3      9158            0.0000000000
     49727      9351  TIP3      OH2            20.4622209206       34.4766865980       68.0557011594  TIP3      9159            0.0000000000
     49728      9351  TIP3      H1             21.4193896353       34.3945447212       68.0044570620  TIP3      9159            0.0000000000
     49729      9351  TIP3      H2             20.3811121714       35.2720283764       68.6027184414  TIP3      9159            0.0000000000
     49730      9352  TIP3      OH2            29.6169305299       34.7424210000       72.6059701253  TIP3      9160            0.0000000000
     49731      9352  TIP3      H1             29.7171433470       35.5461932618       73.1257438150  TIP3      9160            0.0000000000
     49732      9352  TIP3      H2             28.7720901154       34.3428096995       72.8863763215  TIP3      9160            0.0000000000
     49733      9353  TIP3      OH2            35.3305508394       26.8303588706       74.2322540327  TIP3      9161            0.0000000000
     49734      9353  TIP3      H1             35.2911376609       27.1786198981       73.3402051157  TIP3      9161            0.0000000000
     49735      9353  TIP3      H2             35.8684988030       26.0038505550       74.0918992144  TIP3      9161            0.0000000000
     49736      9354  TIP3      OH2            22.9718525441       33.0750467834       72.2353980663  TIP3      9162            0.0000000000
     49737      9354  TIP3      H1             23.1848031474       32.6886142963       73.1120191405  TIP3      9162            0.0000000000
     49738      9354  TIP3      H2             22.1028609136       32.6846595283       72.0023982721  TIP3      9162            0.0000000000
     49739      9355  TIP3      OH2            25.6553176893       21.5963815279       68.0959383275  TIP3      9163            0.0000000000
     49740      9355  TIP3      H1             24.7265359341       21.4020504523       67.8288151041  TIP3      9163            0.0000000000
     49741      9355  TIP3      H2             25.4946360264       22.3510235551       68.6896322421  TIP3      9163            0.0000000000
     49742      9356  TIP3      OH2            30.2884504434       21.2010509413       71.5311686831  TIP3      9164            0.0000000000
     49743      9356  TIP3      H1             30.6823683542       20.7853881648       72.3209144658  TIP3      9164            0.0000000000
     49744      9356  TIP3      H2             29.3167241769       21.0851128501       71.6762421798  TIP3      9164            0.0000000000
     49745      9357  TIP3      OH2            33.5026828005       25.0120964508       72.3737742282  TIP3      9165            0.0000000000
     49746      9357  TIP3      H1             33.0181316129       24.8411060840       73.2161650712  TIP3      9165            0.0000000000
     49747      9357  TIP3      H2             33.4265123659       25.9678360739       72.2411656672  TIP3      9165            0.0000000000
     49748      9358  TIP3      OH2            34.3772383802       29.7759474470       58.3356815698  TIP3      9166            0.0000000000
     49749      9358  TIP3      H1             34.3042327740       29.6292818489       57.3652810709  TIP3      9166            0.0000000000
     49750      9358  TIP3      H2             35.1456651187       30.3464365769       58.3660550410  TIP3      9166            0.0000000000
     49751      9359  TIP3      OH2            29.9380268800       23.7920988148       58.8335325748  TIP3      9167            0.0000000000
     49752      9359  TIP3      H1             29.6249336945       23.7379610421       59.7503039065  TIP3      9167            0.0000000000
     49753      9359  TIP3      H2             29.6176796379       22.9180303909       58.5326037452  TIP3      9167            0.0000000000
     49754      9360  TIP3      OH2            25.7513741650       26.5011720184       69.4090513829  TIP3      9168            0.0000000000
     49755      9360  TIP3      H1             25.0196726643       26.4954607640       70.0571716765  TIP3      9168            0.0000000000
     49756      9360  TIP3      H2             25.7043696516       27.4139136728       69.0496107814  TIP3      9168            0.0000000000
     49757      9361  TIP3      OH2            25.7085149982       26.5641012909       64.3015937022  TIP3      9169            0.0000000000
     49758      9361  TIP3      H1             24.7532661062       26.4159369969       64.1482226277  TIP3      9169            0.0000000000
     49759      9361  TIP3      H2             26.0735212985       26.3655208073       63.4178456259  TIP3      9169            0.0000000000
     49760      9362  TIP3      OH2            31.2424478815       27.1420069220       63.0663866492  TIP3      9170            0.0000000000
     49761      9362  TIP3      H1             30.8311977324       27.9554488316       62.6958998212  TIP3      9170            0.0000000000
     49762      9362  TIP3      H2             31.9267797045       26.9695801527       62.4033716097  TIP3      9170            0.0000000000
     49763      9363  TIP3      OH2            30.2782390670       27.3525347888       74.5024851413  TIP3      9171            0.0000000000
     49764      9363  TIP3      H1             29.7801167279       26.5562659552       74.8002408256  TIP3      9171            0.0000000000
     49765      9363  TIP3      H2             31.1330466456       27.2295850489       74.9516176340  TIP3      9171            0.0000000000
     49766      9364  TIP3      OH2            32.2359262862       26.6444949269       65.9272433345  TIP3      9172            0.0000000000
     49767      9364  TIP3      H1             31.9903932924       27.1860500227       65.1580378385  TIP3      9172            0.0000000000
     49768      9364  TIP3      H2             32.3713600931       25.7900514775       65.4693455048  TIP3      9172            0.0000000000
     49769      9365  TIP3      OH2            23.3670040136       26.7612117652       71.1063396820  TIP3      9173            0.0000000000
     49770      9365  TIP3      H1             23.4507335750       27.1702937317       71.9849314093  TIP3      9173            0.0000000000
     49771      9365  TIP3      H2             22.9257154760       25.9237832185       71.3203084391  TIP3      9173            0.0000000000
     49772      9366  TIP3      OH2            26.7376650076       24.1597859817       57.9665932826  TIP3      9174            0.0000000000
     49773      9366  TIP3      H1             26.2823003151       23.7360382511       58.7194485216  TIP3      9174            0.0000000000
     49774      9366  TIP3      H2             26.0297662588       24.5906223137       57.4705439726  TIP3      9174            0.0000000000
     49775      9367  TIP3      OH2            20.0072167458       23.8119120530       65.1123740128  TIP3      9175            0.0000000000
     49776      9367  TIP3      H1             20.7112504657       23.8532703892       65.7927287647  TIP3      9175            0.0000000000
     49777      9367  TIP3      H2             20.4836185806       23.5209626768       64.3127039181  TIP3      9175            0.0000000000
     49778      9368  TIP3      OH2            21.2887318529       24.5842031275       60.4520885564  TIP3      9176            0.0000000000
     49779      9368  TIP3      H1             21.8033341897       25.1918655571       59.8855594549  TIP3      9176            0.0000000000
     49780      9368  TIP3      H2             20.6060127054       25.2221686960       60.7513441197  TIP3      9176            0.0000000000
     49781      9369  TIP3      OH2            31.4423502933       28.1967175436       70.4559494729  TIP3      9177            0.0000000000
     49782      9369  TIP3      H1             31.8387272670       27.5049858832       69.8833544744  TIP3      9177            0.0000000000
     49783      9369  TIP3      H2             30.9782741767       27.6740996482       71.1333978179  TIP3      9177            0.0000000000
     49784      9370  TIP3      OH2            28.4547909423       24.5462375257       65.4283718532  TIP3      9178            0.0000000000
     49785      9370  TIP3      H1             27.5259883508       24.5967547595       65.7122932244  TIP3      9178            0.0000000000
     49786      9370  TIP3      H2             28.9039016231       24.1487944809       66.1989363404  TIP3      9178            0.0000000000
     49787      9371  TIP3      OH2            23.0877402690       25.7118222384       64.1763145163  TIP3      9179            0.0000000000
     49788      9371  TIP3      H1             22.2053028059       25.8980424778       63.7833419134  TIP3      9179            0.0000000000
     49789      9371  TIP3      H2             23.3576325839       24.8869875191       63.7472908585  TIP3      9179            0.0000000000
     49790      9372  TIP3      OH2            26.7290706285       25.7710551490       61.8161214036  TIP3      9180            0.0000000000
     49791      9372  TIP3      H1             27.6843362059       25.9149137652       61.9359442487  TIP3      9180            0.0000000000
     49792      9372  TIP3      H2             26.4695802777       26.4456743917       61.1523162565  TIP3      9180            0.0000000000
     49793      9373  TIP3      OH2            32.5978377682       23.3840850135       68.5571141827  TIP3      9181            0.0000000000
     49794      9373  TIP3      H1             31.9247013571       23.4651062173       69.2559274448  TIP3      9181            0.0000000000
     49795      9373  TIP3      H2             32.1188888341       23.1817002823       67.7459691004  TIP3      9181            0.0000000000
     49796      9374  TIP3      OH2            25.4202904117       26.9544069513       59.3828288480  TIP3      9182            0.0000000000
     49797      9374  TIP3      H1             24.8874287486       26.5713437243       58.6652429218  TIP3      9182            0.0000000000
     49798      9374  TIP3      H2             26.2387764210       27.1661469768       58.9067486885  TIP3      9182            0.0000000000
     49799      9375  TIP3      OH2            23.5491690700       31.5601701196       74.4404006836  TIP3      9183            0.0000000000
     49800      9375  TIP3      H1             24.2576750193       31.7736839683       75.0729299640  TIP3      9183            0.0000000000
     49801      9375  TIP3      H2             22.7680385674       31.5965019727       75.0338753881  TIP3      9183            0.0000000000
     49802      9376  TIP3      OH2            29.5206805820       26.9253752654       67.1804256346  TIP3      9184            0.0000000000
     49803      9376  TIP3      H1             30.1532447499       26.4137897815       66.6602473023  TIP3      9184            0.0000000000
     49804      9376  TIP3      H2             29.4104692270       26.4040882547       67.9864293209  TIP3      9184            0.0000000000
     49805      9377  TIP3      OH2            24.6651903522       23.0333985375       63.7071115327  TIP3      9185            0.0000000000
     49806      9377  TIP3      H1             24.2032188843       22.1746051726       63.6046414441  TIP3      9185            0.0000000000
     49807      9377  TIP3      H2             25.2850900636       23.0182397725       62.9700435543  TIP3      9185            0.0000000000
     49808      9378  TIP3      OH2            28.1745592485       25.2527678164       69.5909531367  TIP3      9186            0.0000000000
     49809      9378  TIP3      H1             27.3610269045       25.7884231223       69.6997822708  TIP3      9186            0.0000000000
     49810      9378  TIP3      H2             28.7395515092       25.6048352021       70.3055585443  TIP3      9186            0.0000000000
     49811      9379  TIP3      OH2            28.7710931892       31.4722998579       61.3102864443  TIP3      9187            0.0000000000
     49812      9379  TIP3      H1             27.9681613136       31.0155749843       60.9730356483  TIP3      9187            0.0000000000
     49813      9379  TIP3      H2             28.5468609550       31.6009169731       62.2522546861  TIP3      9187            0.0000000000
     49814      9380  TIP3      OH2            35.6379088819       30.7136105164       70.1014511386  TIP3      9188            0.0000000000
     49815      9380  TIP3      H1             36.3645042412       30.8420864153       69.4486084277  TIP3      9188            0.0000000000
     49816      9380  TIP3      H2             34.8778551508       30.7173900285       69.4910255557  TIP3      9188            0.0000000000
     49817      9381  TIP3      OH2            32.6301753137       24.3122599374       59.4770071827  TIP3      9189            0.0000000000
     49818      9381  TIP3      H1             31.6733578678       24.4359688662       59.3285204434  TIP3      9189            0.0000000000
     49819      9381  TIP3      H2             32.9123618403       25.1766405219       59.8404681565  TIP3      9189            0.0000000000
     49820      9382  TIP3      OH2            30.2529025610       31.7785266094       72.5331668494  TIP3      9190            0.0000000000
     49821      9382  TIP3      H1             29.9056568200       31.3421897481       73.3194793990  TIP3      9190            0.0000000000
     49822      9382  TIP3      H2             30.0400845688       32.7058228692       72.6582893127  TIP3      9190            0.0000000000
     49823      9383  TIP3      OH2            33.3312566346       26.2417543517       61.0741965820  TIP3      9191            0.0000000000
     49824      9383  TIP3      H1             34.2004307333       26.1002602420       61.5050884239  TIP3      9191            0.0000000000
     49825      9383  TIP3      H2             33.4347881277       27.0798331769       60.5927120311  TIP3      9191            0.0000000000
     49826      9384  TIP3      OH2            23.8743585077       30.8810953576       67.1013766868  TIP3      9192            0.0000000000
     49827      9384  TIP3      H1             24.5621819247       30.8122122778       66.4090456382  TIP3      9192            0.0000000000
     49828      9384  TIP3      H2             23.9405768669       30.0225930163       67.5572978066  TIP3      9192            0.0000000000
     49829      9385  TIP3      OH2            30.8403483344       32.9394652498       60.3282224258  TIP3      9193            0.0000000000
     49830      9385  TIP3      H1             30.5342971481       33.8045789009       60.6693970804  TIP3      9193            0.0000000000
     49831      9385  TIP3      H2             30.1137984453       32.3372463228       60.5765664784  TIP3      9193            0.0000000000
     49832      9386  TIP3      OH2            20.8637786046       29.3003018913       72.3729974657  TIP3      9194            0.0000000000
     49833      9386  TIP3      H1             21.0408646669       28.8465555756       73.2175859143  TIP3      9194            0.0000000000
     49834      9386  TIP3      H2             20.2529132642       28.6845454493       71.9248581249  TIP3      9194            0.0000000000
     49835      9387  TIP3      OH2            27.8747015442       28.8452026798       74.5495961125  TIP3      9195            0.0000000000
     49836      9387  TIP3      H1             27.5594560933       28.5376408055       73.6869591662  TIP3      9195            0.0000000000
     49837      9387  TIP3      H2             28.8013310543       28.5300814819       74.5395550517  TIP3      9195            0.0000000000
     49838      9388  TIP3      OH2            32.5601060875       34.2387281017       72.4308416745  TIP3      9196            0.0000000000
     49839      9388  TIP3      H1             31.6238738994       34.3026336273       72.2369515325  TIP3      9196            0.0000000000
     49840      9388  TIP3      H2             32.5274510538       34.4195603696       73.3992940626  TIP3      9196            0.0000000000
     49841      9389  TIP3      OH2            33.6764081901       29.9811769992       68.3933251949  TIP3      9197            0.0000000000
     49842      9389  TIP3      H1             32.7393581299       29.7647927499       68.2485883766  TIP3      9197            0.0000000000
     49843      9389  TIP3      H2             34.1567797694       29.2471468735       67.9695360941  TIP3      9197            0.0000000000
     49844      9390  TIP3      OH2            26.2919885688       34.3022044251       64.3955512495  TIP3      9198            0.0000000000
     49845      9390  TIP3      H1             26.7531743908       35.1439277017       64.3155459958  TIP3      9198            0.0000000000
     49846      9390  TIP3      H2             25.3773271623       34.5377500632       64.2006026293  TIP3      9198            0.0000000000
     49847      9391  TIP3      OH2            22.0196655598       29.1765751476       59.0562746273  TIP3      9199            0.0000000000
     49848      9391  TIP3      H1             22.5994737074       29.8339261272       59.4754216719  TIP3      9199            0.0000000000
     49849      9391  TIP3      H2             21.1295170363       29.4905779528       59.3054227351  TIP3      9199            0.0000000000
     49850      9392  TIP3      OH2            27.6900248157       31.9929026704       64.0037377183  TIP3      9200            0.0000000000
     49851      9392  TIP3      H1             27.3712328969       32.9132391271       64.0934470772  TIP3      9200            0.0000000000
     49852      9392  TIP3      H2             26.9604490396       31.5129897888       64.4440051298  TIP3      9200            0.0000000000
     49853      9393  TIP3      OH2            28.4208972460       35.8606330361       70.1040081558  TIP3      9201            0.0000000000
     49854      9393  TIP3      H1             28.5652197797       36.8128940109       70.0274720810  TIP3      9201            0.0000000000
     49855      9393  TIP3      H2             28.7339953185       35.7147572178       71.0082384273  TIP3      9201            0.0000000000
     49856      9394  TIP3      OH2            31.6731562772       32.1908602002       70.0457126040  TIP3      9202            0.0000000000
     49857      9394  TIP3      H1             31.3037565657       31.9644777788       70.9241025193  TIP3      9202            0.0000000000
     49858      9394  TIP3      H2             32.2856472337       31.4643025785       69.8616582956  TIP3      9202            0.0000000000
     49859      9395  TIP3      OH2            33.9640453619       33.1968341997       59.1060135170  TIP3      9203            0.0000000000
     49860      9395  TIP3      H1             34.2866720894       32.8198035173       59.9489072299  TIP3      9203            0.0000000000
     49861      9395  TIP3      H2             33.0093896925       33.0717306874       59.2086448366  TIP3      9203            0.0000000000
     49862      9396  TIP3      OH2            22.5209130562       24.0232834784       71.9113166552  TIP3      9204            0.0000000000
     49863      9396  TIP3      H1             21.6139169458       24.3749763393       71.8920385087  TIP3      9204            0.0000000000
     49864      9396  TIP3      H2             22.4083345303       23.1782294058       72.3746491492  TIP3      9204            0.0000000000
     49865      9397  TIP3      OH2            34.7618901555       31.8155114589       61.3317026771  TIP3      9205            0.0000000000
     49866      9397  TIP3      H1             34.5406285063       31.0762493364       61.9384964179  TIP3      9205            0.0000000000
     49867      9397  TIP3      H2             35.6853772184       32.0020547245       61.5707010562  TIP3      9205            0.0000000000
     49868      9398  TIP3      OH2            22.1275385818       35.7645682073       70.3200269423  TIP3      9206            0.0000000000
     49869      9398  TIP3      H1             22.4261641154       34.8549487018       70.3678350493  TIP3      9206            0.0000000000
     49870      9398  TIP3      H2             22.3441208858       36.1060558253       71.1940756047  TIP3      9206            0.0000000000
     49871      9399  TIP3      OH2            28.1169601945       34.3107738796       57.5990096747  TIP3      9207            0.0000000000
     49872      9399  TIP3      H1             28.1853281875       33.5354518403       57.0205529592  TIP3      9207            0.0000000000
     49873      9399  TIP3      H2             27.6809359620       33.9002889591       58.3791572846  TIP3      9207            0.0000000000
     49874      9400  TIP3      OH2            26.8573514542       33.8219521477       60.0609614667  TIP3      9208            0.0000000000
     49875      9400  TIP3      H1             27.1392080926       33.3290709144       60.8427708835  TIP3      9208            0.0000000000
     49876      9400  TIP3      H2             26.9881345210       34.7577023329       60.3358063911  TIP3      9208            0.0000000000
     49877      9401  TIP3      OH2            23.4220053142       31.1134173307       60.5548900021  TIP3      9209            0.0000000000
     49878      9401  TIP3      H1             22.7061223719       31.5092512822       61.0884530398  TIP3      9209            0.0000000000
     49879      9401  TIP3      H2             23.9249604024       31.8961457318       60.2601210280  TIP3      9209            0.0000000000
     49880      9402  TIP3      OH2            31.2208173428       23.7909945466       70.8836831958  TIP3      9210            0.0000000000
     49881      9402  TIP3      H1             31.9715765482       23.8564822490       71.4895719286  TIP3      9210            0.0000000000
     49882      9402  TIP3      H2             30.8551093579       22.9097445731       71.0882444669  TIP3      9210            0.0000000000
     49883      9403  TIP3      OH2            32.0154534757       23.3501415945       61.9842595717  TIP3      9211            0.0000000000
     49884      9403  TIP3      H1             32.2126654848       23.8186824258       61.1506344201  TIP3      9211            0.0000000000
     49885      9403  TIP3      H2             32.6111360194       23.8024209963       62.5943297275  TIP3      9211            0.0000000000
     49886      9404  TIP3      OH2            29.7327550427       35.5570474053       60.7909019064  TIP3      9212            0.0000000000
     49887      9404  TIP3      H1             28.8758016259       36.0238832956       60.8281616894  TIP3      9212            0.0000000000
     49888      9404  TIP3      H2             30.2091936599       36.0637850188       60.1158352194  TIP3      9212            0.0000000000
     49889      9405  TIP3      OH2            29.2333901471       25.0856236786       62.8033449917  TIP3      9213            0.0000000000
     49890      9405  TIP3      H1             29.9988647639       25.6997890727       62.7925875410  TIP3      9213            0.0000000000
     49891      9405  TIP3      H2             28.9963396207       25.0687718295       63.7435641764  TIP3      9213            0.0000000000
     49892      9406  TIP3      OH2            29.8081965142       26.1503270731       71.9690457845  TIP3      9214            0.0000000000
     49893      9406  TIP3      H1             29.8877905076       26.7053501078       72.7703514090  TIP3      9214            0.0000000000
     49894      9406  TIP3      H2             30.4576630157       25.4365333870       72.0623310085  TIP3      9214            0.0000000000
     49895      9407  TIP3      OH2            29.9807525922       22.2209961221       63.6507488259  TIP3      9215            0.0000000000
     49896      9407  TIP3      H1             29.8749713436       22.8720598798       64.3594433239  TIP3      9215            0.0000000000
     49897      9407  TIP3      H2             30.7488715748       22.6717446910       63.2028194828  TIP3      9215            0.0000000000
     49898      9408  TIP3      OH2            27.1468300286      -36.4620687718       60.8286465377  TIP3      9216            0.0000000000
     49899      9408  TIP3      H1             27.1646511898      -35.6763028654       60.2505896638  TIP3      9216            0.0000000000
     49900      9408  TIP3      H2             26.8362040568      -36.0947885394       61.6708024347  TIP3      9216            0.0000000000
     49901      9409  TIP3      OH2            25.7212217650       23.2690872165       60.4182631623  TIP3      9217            0.0000000000
     49902      9409  TIP3      H1             25.6828798292       24.1938424249       60.7310299303  TIP3      9217            0.0000000000
     49903      9409  TIP3      H2             26.6521134256       23.0454294573       60.6177015131  TIP3      9217            0.0000000000
     49904      9410  TIP3      OH2            35.8360325008       23.7838486524       72.6215363627  TIP3      9218            0.0000000000
     49905      9410  TIP3      H1             35.0012652842       24.3112907585       72.6558663818  TIP3      9218            0.0000000000
     49906      9410  TIP3      H2             36.2320626163       24.0723904710       71.7990454220  TIP3      9218            0.0000000000
     49907      9411  TIP3      OH2            34.5737819094       27.8028047170       66.8720672388  TIP3      9219            0.0000000000
     49908      9411  TIP3      H1             33.7557717890       27.3728539831       66.5592608154  TIP3      9219            0.0000000000
     49909      9411  TIP3      H2             34.9983112947       27.0854702303       67.3510392008  TIP3      9219            0.0000000000
     49910      9412  TIP3      OH2            23.9842775189       33.7193809624       59.4139687032  TIP3      9220            0.0000000000
     49911      9412  TIP3      H1             24.6581386280       34.3579599199       59.6894800732  TIP3      9220            0.0000000000
     49912      9412  TIP3      H2             24.4915676728       33.2488083628       58.7276374608  TIP3      9220            0.0000000000
     49913      9413  TIP3      OH2            22.3089103692       26.3941922745       58.5601192620  TIP3      9221            0.0000000000
     49914      9413  TIP3      H1             22.3267206175       27.3531793806       58.7630055965  TIP3      9221            0.0000000000
     49915      9413  TIP3      H2             21.4171664454       26.2207720589       58.2510335096  TIP3      9221            0.0000000000
     49916      9414  TIP3      OH2            23.1319078345       21.1727085032       67.2977762325  TIP3      9222            0.0000000000
     49917      9414  TIP3      H1             22.9320634386       21.1923487670       66.3368273343  TIP3      9222            0.0000000000
     49918      9414  TIP3      H2             22.7244446039       20.3246547313       67.5649331061  TIP3      9222            0.0000000000
     49919      9415  TIP3      OH2            22.0833301980       35.1050588745       63.4155480520  TIP3      9223            0.0000000000
     49920      9415  TIP3      H1             21.2308781236       35.5404393015       63.4035194713  TIP3      9223            0.0000000000
     49921      9415  TIP3      H2             22.5988012547       35.5801968374       62.7545902889  TIP3      9223            0.0000000000
     49922      9416  TIP3      OH2            26.2567719160       36.3854640599       76.5675667796  TIP3      9224            0.0000000000
     49923      9416  TIP3      H1             27.0946019082       35.9378378484       76.7314859961  TIP3      9224            0.0000000000
     49924      9416  TIP3      H2             26.1899126276       36.2128152570       75.6033273419  TIP3      9224            0.0000000000
     49925      9417  TIP3      OH2            30.1305632568       36.1170571348       57.8450798311  TIP3      9225            0.0000000000
     49926      9417  TIP3      H1             29.3847934116       35.4918015732       57.9253684535  TIP3      9225            0.0000000000
     49927      9417  TIP3      H2             30.8345443201       35.5775301599       57.4764004131  TIP3      9225            0.0000000000
     49928      9418  TIP3      OH2            32.5684038937       34.6967943740       74.9524604641  TIP3      9226            0.0000000000
     49929      9418  TIP3      H1             32.0870596194       34.0176420074       75.4561753872  TIP3      9226            0.0000000000
     49930      9418  TIP3      H2             33.1887276726       35.0352767354       75.6104299354  TIP3      9226            0.0000000000
     49931      9419  TIP3      OH2            34.8797505818       35.9248636250       58.1387953999  TIP3      9227            0.0000000000
     49932      9419  TIP3      H1             35.0456422285       35.0244180137       58.4588056549  TIP3      9227            0.0000000000
     49933      9419  TIP3      H2             35.5266590087       36.0651469977       57.4238460403  TIP3      9227            0.0000000000
     49934      9420  TIP3      OH2            21.1936561063       31.5015289301       75.7122477099  TIP3      9228            0.0000000000
     49935      9420  TIP3      H1             21.3657142833       30.5962427364       75.3871676546  TIP3      9228            0.0000000000
     49936      9420  TIP3      H2             20.4678909011       31.7957379892       75.1335111964  TIP3      9228            0.0000000000
     49937      9421  TIP3      OH2            25.5397499175       31.8437782275       57.7408499761  TIP3      9229            0.0000000000
     49938      9421  TIP3      H1             25.6953491413       31.0920068038       58.3364761692  TIP3      9229            0.0000000000
     49939      9421  TIP3      H2             26.2975777643       31.7444313122       57.1321372276  TIP3      9229            0.0000000000
     49940      9422  TIP3      OH2            27.9296703332       31.4955339410       75.0968250111  TIP3      9230            0.0000000000
     49941      9422  TIP3      H1             27.5736609407       31.8069650193       74.2434688803  TIP3      9230            0.0000000000
     49942      9422  TIP3      H2             27.9828445981       30.5145091723       74.9955810646  TIP3      9230            0.0000000000
     49943      9423  TIP3      OH2            30.9864453304       32.9959442518       57.5222873194  TIP3      9231            0.0000000000
     49944      9423  TIP3      H1             30.6812407512       33.0826103446       58.4399532156  TIP3      9231            0.0000000000
     49945      9423  TIP3      H2             30.7819410638       32.0420359736       57.3788711501  TIP3      9231            0.0000000000
     49946      9424  TIP3      OH2            33.5882571022       31.3379885653       72.5058160388  TIP3      9232            0.0000000000
     49947      9424  TIP3      H1             34.3776441999       31.9308445244       72.4282676128  TIP3      9232            0.0000000000
     49948      9424  TIP3      H2             32.9112645774       32.0213147650       72.5515059470  TIP3      9232            0.0000000000
     49949      9425  TIP3      OH2            22.1177792454       28.7766361341       75.1069668187  TIP3      9233            0.0000000000
     49950      9425  TIP3      H1             22.5275657515       27.9091081964       75.0074569058  TIP3      9233            0.0000000000
     49951      9425  TIP3      H2             21.8912270835       28.7734392402       76.0561649684  TIP3      9233            0.0000000000
     49952      9426  TIP3      OH2            26.7560351176       29.8821763329       60.1814425299  TIP3      9234            0.0000000000
     49953      9426  TIP3      H1             26.2451180317       29.3455845571       60.8044458527  TIP3      9234            0.0000000000
     49954      9426  TIP3      H2             27.0491422814       29.2124195277       59.5205746814  TIP3      9234            0.0000000000
     49955      9427  TIP3      OH2            26.0134540086       27.6952631407       72.4608086908  TIP3      9235            0.0000000000
     49956      9427  TIP3      H1             25.4219611069       28.4190069846       72.7219944967  TIP3      9235            0.0000000000
     49957      9427  TIP3      H2             26.4134985383       28.0646007371       71.6551579943  TIP3      9235            0.0000000000
     49958      9428  TIP3      OH2            27.8202352582       28.1114105958       58.3738033295  TIP3      9236            0.0000000000
     49959      9428  TIP3      H1             27.6737358359       28.0229721734       57.4093987838  TIP3      9236            0.0000000000
     49960      9428  TIP3      H2             28.7977558271       28.1627290074       58.4405863417  TIP3      9236            0.0000000000
     49961      9429  TIP3      OH2            31.0775991526       30.2818126217       75.8379133477  TIP3      9237            0.0000000000
     49962      9429  TIP3      H1             32.0259635826       30.2462426167       75.6575658978  TIP3      9237            0.0000000000
     49963      9429  TIP3      H2             30.9349496252       29.5000821218       76.3885802462  TIP3      9237            0.0000000000
     49964      9430  TIP3      OH2            26.4328797727       25.0845533140       73.5008972546  TIP3      9238            0.0000000000
     49965      9430  TIP3      H1             26.5406324168       24.3650648186       72.8517432940  TIP3      9238            0.0000000000
     49966      9430  TIP3      H2             26.3798847820       25.8925542392       72.9542802304  TIP3      9238            0.0000000000
     49967      9431  TIP3      OH2            26.8273506899       23.4508900157       71.0865268164  TIP3      9239            0.0000000000
     49968      9431  TIP3      H1             27.3337572363       23.9233912511       70.3835368533  TIP3      9239            0.0000000000
     49969      9431  TIP3      H2             25.9293697313       23.3817529276       70.6887314402  TIP3      9239            0.0000000000
     49970      9432  TIP3      OH2            28.3664995205       28.9437392706       71.3212636216  TIP3      9240            0.0000000000
     49971      9432  TIP3      H1             29.1183608520       28.7771202798       70.7445010249  TIP3      9240            0.0000000000
     49972      9432  TIP3      H2             27.9987806481       29.7750982236       70.9806708310  TIP3      9240            0.0000000000
     49973      9433  TIP3      OH2            32.8004206517       26.7123304775       76.3041959148  TIP3      9241            0.0000000000
     49974      9433  TIP3      H1             33.0298041432       25.7830119909       76.1616614401  TIP3      9241            0.0000000000
     49975      9433  TIP3      H2             33.6679274518       27.1334893098       76.2541167479  TIP3      9241            0.0000000000
     49976      9434  TIP3      OH2            34.1191756068       29.5411769735       74.4480672086  TIP3      9242            0.0000000000
     49977      9434  TIP3      H1             33.8278191902       30.2206835669       73.7992456595  TIP3      9242            0.0000000000
     49978      9434  TIP3      H2             35.0475195140       29.4279785632       74.2346387971  TIP3      9242            0.0000000000
     49979      9435  TIP3      OH2            24.9065252575       26.3158488632       75.4598093267  TIP3      9243            0.0000000000
     49980      9435  TIP3      H1             24.1190506705       25.7630904736       75.2654085325  TIP3      9243            0.0000000000
     49981      9435  TIP3      H2             25.5305687655       25.9622959506       74.7954488070  TIP3      9243            0.0000000000
     49982      9436  TIP3      OH2            27.6080202112       20.8861477511       71.4773960092  TIP3      9244            0.0000000000
     49983      9436  TIP3      H1             27.4333990501       21.8514145940       71.3683465024  TIP3      9244            0.0000000000
     49984      9436  TIP3      H2             26.8663726240       20.5222332058       70.9631805131  TIP3      9244            0.0000000000
     49985      9437  TIP3      OH2            28.8972378512       25.2165664742       75.0855205682  TIP3      9245            0.0000000000
     49986      9437  TIP3      H1             28.5675865825       25.0060471409       75.9819887228  TIP3      9245            0.0000000000
     49987      9437  TIP3      H2             28.1160160027       25.0260743290       74.5288295239  TIP3      9245            0.0000000000
     49988      9438  TIP3      OH2            31.5555133222       24.3829351871       74.1672579072  TIP3      9246            0.0000000000
     49989      9438  TIP3      H1             30.5983306494       24.4135496745       74.3127228948  TIP3      9246            0.0000000000
     49990      9438  TIP3      H2             31.8690346796       23.7374041207       74.8235031085  TIP3      9246            0.0000000000
     49991      9439  TIP3      OH2            33.2651230576       22.9587912443       76.1345088951  TIP3      9247            0.0000000000
     49992      9439  TIP3      H1             33.0919978720       21.9945525257       76.0596582951  TIP3      9247            0.0000000000
     49993      9439  TIP3      H2             32.8717480467       23.3009890479       76.9683690973  TIP3      9247            0.0000000000
     49994      9440  TIP3      OH2            22.9788782303       24.2609435000       75.1964306866  TIP3      9248            0.0000000000
     49995      9440  TIP3      H1             23.2150813689       23.5219088438       74.6097282792  TIP3      9248            0.0000000000
     49996      9440  TIP3      H2             22.8783100937       23.8135701484       76.0613220295  TIP3      9248            0.0000000000
     49997      9441  TIP3      OH2            27.8319023569       20.2772415582       74.1686184835  TIP3      9249            0.0000000000
     49998      9441  TIP3      H1             28.5141976112       19.5788083185       74.1413113758  TIP3      9249            0.0000000000
     49999      9441  TIP3      H2             27.7193636682       20.4334863230       73.2129967655  TIP3      9249            0.0000000000
     50000      9442  TIP3      OH2            28.1702277692       21.8802696850       76.2688376281  TIP3      9250            0.0000000000
     50001      9442  TIP3      H1             28.0174047213       21.3803788923       75.4269151919  TIP3      9250            0.0000000000
     50002      9442  TIP3      H2             27.6047537532       22.6669536754       76.1536983725  TIP3      9250            0.0000000000
     50003      9443  TIP3      OH2            21.2389219497       33.3875252826       58.8896402132  TIP3      9251            0.0000000000
     50004      9443  TIP3      H1             22.1884597912       33.4854588770       59.1223750556  TIP3      9251            0.0000000000
     50005      9443  TIP3      H2             21.2962153810       32.7126196843       58.1758825232  TIP3      9251            0.0000000000
     50006      9444  TIP3      OH2            36.2447957705       34.9537808815       70.9688023716  TIP3      9252            0.0000000000
     50007      9444  TIP3      H1             35.5626173843       35.3922456250       71.4746120487  TIP3      9252            0.0000000000
     50008      9444  TIP3      H2             35.7600469430       34.5812212277       70.1981212544  TIP3      9252            0.0000000000
     50009      9445  TIP3      OH2            35.3648347297       27.9652887961       64.2914765401  TIP3      9253            0.0000000000
     50010      9445  TIP3      H1             35.6215966676       27.0401460011       64.3267611486  TIP3      9253            0.0000000000
     50011      9445  TIP3      H2             35.4803316522       28.2264508975       65.2284882016  TIP3      9253            0.0000000000
     50012      9446  TIP3      OH2            20.8751704890       29.9863767209       68.2576081579  TIP3      9254            0.0000000000
     50013      9446  TIP3      H1             21.0497810390       29.8995429336       67.2945434059  TIP3      9254            0.0000000000
     50014      9446  TIP3      H2             21.7683286558       29.8060674714       68.6101064286  TIP3      9254            0.0000000000
     50015      9447  TIP3      OH2            35.9473852256       23.9112197851       57.6630967095  TIP3      9255            0.0000000000
     50016      9447  TIP3      H1             36.5367984418       23.4915752840       58.2906441600  TIP3      9255            0.0000000000
     50017      9447  TIP3      H2             35.0861122385       23.4997547722       57.8538282154  TIP3      9255            0.0000000000
     50018      9448  TIP3      OH2            35.5026326491       25.4164457355       62.4913613667  TIP3      9256            0.0000000000
     50019      9448  TIP3      H1             35.7875690390       24.5769285401       62.8963448198  TIP3      9256            0.0000000000
     50020      9448  TIP3      H2             36.3527369512       25.7658174930       62.1984687349  TIP3      9256            0.0000000000
     50021      9449  TIP3      OH2           -37.0503134119       25.1886193968       68.0985827349  TIP3      9257            0.0000000000
     50022      9449  TIP3      H1            -36.1639394947       25.5395513578       67.9564147908  TIP3      9257            0.0000000000
     50023      9449  TIP3      H2            -37.2706824178       25.8312570952       68.7942283991  TIP3      9257            0.0000000000
     50024      9450  TIP3      OH2            36.2602528844       26.8055518172       71.1354328880  TIP3      9258            0.0000000000
     50025      9450  TIP3      H1             35.3240255909       27.0703444319       71.2222856730  TIP3      9258            0.0000000000
     50026      9450  TIP3      H2             36.6203545245       27.4901052179       70.5414073807  TIP3      9258            0.0000000000
     50027      9451  TIP3      OH2            20.5002983878       25.2672731190       74.3870899432  TIP3      9259            0.0000000000
     50028      9451  TIP3      H1             21.4326490665       25.0727545172       74.6056821674  TIP3      9259            0.0000000000
     50029      9451  TIP3      H2             20.0371560315       24.4572387532       74.6946344653  TIP3      9259            0.0000000000
     50030      9452  TIP3      OH2            35.3050460982       22.4596407466       63.3525333518  TIP3      9260            0.0000000000
     50031      9452  TIP3      H1             36.2351302578       22.2850604708       63.5805171955  TIP3      9260            0.0000000000
     50032      9452  TIP3      H2             35.3300946275       22.0387256473       62.4672415149  TIP3      9260            0.0000000000
     50033      9453  TIP3      OH2            21.6871451794       23.5594714404       67.2470046192  TIP3      9261            0.0000000000
     50034      9453  TIP3      H1             22.1468419432       22.7475106591       67.5322019942  TIP3      9261            0.0000000000
     50035      9453  TIP3      H2             22.2132679623       24.2631407234       67.6511133149  TIP3      9261            0.0000000000
     50036      9454  TIP3      OH2            19.9730852476       26.5767078003       68.2976351404  TIP3      9262            0.0000000000
     50037      9454  TIP3      H1             20.5360838909       26.3262649326       67.5367854191  TIP3      9262            0.0000000000
     50038      9454  TIP3      H2             20.4418314728       27.3803360253       68.5660344295  TIP3      9262            0.0000000000
     50039      9455  TIP3      OH2            20.3298349842       22.8336544304       62.3924933753  TIP3      9263            0.0000000000
     50040      9455  TIP3      H1             19.3946976320       23.0225338150       62.2077951302  TIP3      9263            0.0000000000
     50041      9455  TIP3      H2             20.7600584315       23.3122110327       61.6622223081  TIP3      9263            0.0000000000
     50042      9456  TIP3      OH2            20.2805739729       21.4848200282       70.6523092187  TIP3      9264            0.0000000000
     50043      9456  TIP3      H1             19.6308046869       21.3082571108       71.3580503231  TIP3      9264            0.0000000000
     50044      9456  TIP3      H2             19.8333334282       22.1822678377       70.1339411060  TIP3      9264            0.0000000000
     50045      9457  TIP3      OH2            22.5121670742       34.7951466443       74.8430904424  TIP3      9265            0.0000000000
     50046      9457  TIP3      H1             21.6551852224       34.8176507831       74.3840925644  TIP3      9265            0.0000000000
     50047      9457  TIP3      H2             22.2501088939       34.5524955220       75.7410372758  TIP3      9265            0.0000000000
     50048      9458  TIP3      OH2            25.4564545283       35.6803022828       71.1686857393  TIP3      9266            0.0000000000
     50049      9458  TIP3      H1             25.0228631708       36.4662929446       70.8044924752  TIP3      9266            0.0000000000
     50050      9458  TIP3      H2             26.3230399273       35.6652609064       70.7361306344  TIP3      9266            0.0000000000
     50051      9459  TIP3      OH2            24.6168603910       36.0381658641       66.4698273715  TIP3      9267            0.0000000000
     50052      9459  TIP3      H1             24.2478149276       35.2715971946       66.9359479473  TIP3      9267            0.0000000000
     50053      9459  TIP3      H2             25.2037357151       36.4008459112       67.1577061455  TIP3      9267            0.0000000000
     50054      9460  TIP3      OH2            30.3262961754       22.4183006353       66.6032977638  TIP3      9268            0.0000000000
     50055      9460  TIP3      H1             29.8017619789       21.7337951354       67.0399074574  TIP3      9268            0.0000000000
     50056      9460  TIP3      H2             31.0219292075       21.9000773848       66.1660498305  TIP3      9268            0.0000000000
     50057      9461  TIP3      OH2            35.5879511965       20.4634727943       66.7876893137  TIP3      9269            0.0000000000
     50058      9461  TIP3      H1             36.1683091142       21.0874499572       66.3426723563  TIP3      9269            0.0000000000
     50059      9461  TIP3      H2             34.6980794313       20.8239662250       66.5734533690  TIP3      9269            0.0000000000
     50060      9462  TIP3      OH2            22.8134519544       21.0534870522       64.5686393694  TIP3      9270            0.0000000000
     50061      9462  TIP3      H1             22.0368008410       20.8710327662       64.0120587961  TIP3      9270            0.0000000000
     50062      9462  TIP3      H2             23.2824846588       20.1933434691       64.4931223557  TIP3      9270            0.0000000000
     50063      9463  TIP3      OH2            21.5857988120       20.8030100138       60.2820571112  TIP3      9271            0.0000000000
     50064      9463  TIP3      H1             22.0755859606       21.4546907233       59.7460605655  TIP3      9271            0.0000000000
     50065      9463  TIP3      H2             21.0134584337       21.3796095536       60.8147314621  TIP3      9271            0.0000000000
     50066      9464  TIP3      OH2            27.3096433468       20.8698851273       64.3537586408  TIP3      9272            0.0000000000
     50067      9464  TIP3      H1             28.2504435232       21.1091756861       64.2315722859  TIP3      9272            0.0000000000
     50068      9464  TIP3      H2             27.2715690392       20.5964752670       65.2768191059  TIP3      9272            0.0000000000
     50069      9465  TIP3      OH2            32.9971372263       20.9609965200       65.9753378458  TIP3      9273            0.0000000000
     50070      9465  TIP3      H1             32.9803172154       21.1279949859       65.0241244124  TIP3      9273            0.0000000000
     50071      9465  TIP3      H2             32.5863144109       20.0687287784       66.0798667541  TIP3      9273            0.0000000000
     50072      9466  TIP3      OH2            34.2300813287       20.9358929415       61.5367261759  TIP3      9274            0.0000000000
     50073      9466  TIP3      H1             33.5356445285       21.6054977903       61.4863967202  TIP3      9274            0.0000000000
     50074      9466  TIP3      H2             33.7633813949       20.1398080819       61.8627789929  TIP3      9274            0.0000000000
     50075      9467  TIP3      OH2            23.4124376318       22.7482743885       58.7927543030  TIP3      9275            0.0000000000
     50076      9467  TIP3      H1             23.9435744390       22.1293959661       58.2648654607  TIP3      9275            0.0000000000
     50077      9467  TIP3      H2             24.0768750334       23.0684307489       59.4292835782  TIP3      9275            0.0000000000
     50078      9468  TIP3      OH2            28.3770754367       22.9898950086       61.2239761653  TIP3      9276            0.0000000000
     50079      9468  TIP3      H1             28.7251440096       22.4090348032       61.9157423459  TIP3      9276            0.0000000000
     50080      9468  TIP3      H2             28.5322111838       23.8700244184       61.6335310326  TIP3      9276            0.0000000000
     50081      9469  TIP3      OH2            22.6900348412       21.5814344336       73.9929064304  TIP3      9277            0.0000000000
     50082      9469  TIP3      H1             22.3040997501       20.7902657484       74.4193538458  TIP3      9277            0.0000000000
     50083      9469  TIP3      H2             23.5991520221       21.5469049432       74.3738618959  TIP3      9277            0.0000000000
     50084      9470  TIP3      OH2            24.7077784191       20.9790374155       75.6309537423  TIP3      9278            0.0000000000
     50085      9470  TIP3      H1             25.5907983811       20.6212967273       75.4097824585  TIP3      9278            0.0000000000
     50086      9470  TIP3      H2             24.3211001830       20.1847635630       76.0552920271  TIP3      9278            0.0000000000
     50087      9471  TIP3      OH2            33.1358708592       20.3100502363       75.8327739739  TIP3      9279            0.0000000000
     50088      9471  TIP3      H1             33.1997546217       19.7209157454       76.5988636348  TIP3      9279            0.0000000000
     50089      9471  TIP3      H2             34.0258328626       20.2407077318       75.4059269136  TIP3      9279            0.0000000000
     50090      9472  TIP3      OH2            36.2187644880      -36.7462597901       74.5681981719  TIP3      9280            0.0000000000
     50091      9472  TIP3      H1             35.5573084187      -36.9087735280       73.8861734765  TIP3      9280            0.0000000000
     50092      9472  TIP3      H2             36.2537580039      -35.7750875284       74.6060728696  TIP3      9280            0.0000000000
     50093      9473  TIP3      OH2           -26.0122428404      -28.6390303086       77.8060565271  TIP3      9281            0.0000000000
     50094      9473  TIP3      H1            -25.2525099919      -28.5579337942       78.4327901730  TIP3      9281            0.0000000000
     50095      9473  TIP3      H2            -25.6282863778      -29.2904663396       77.2042241746  TIP3      9281            0.0000000000
     50096      9474  TIP3      OH2           -23.7978562401      -27.9273428925       79.2569078880  TIP3      9282            0.0000000000
     50097      9474  TIP3      H1            -23.3484671976      -27.6589165524       80.0889339864  TIP3      9282            0.0000000000
     50098      9474  TIP3      H2            -23.3959085735      -27.3173153502       78.6131344328  TIP3      9282            0.0000000000
     50099      9475  TIP3      OH2           -20.0059089423      -35.9408105717       79.1842245673  TIP3      9283            0.0000000000
     50100      9475  TIP3      H1            -20.8761896162      -35.7191133057       79.5417953487  TIP3      9283            0.0000000000
     50101      9475  TIP3      H2            -19.6878197633      -35.0848318006       78.8397646870  TIP3      9283            0.0000000000
     50102      9476  TIP3      OH2           -18.8316602003      -21.6305274438       77.5597538983  TIP3      9284            0.0000000000
     50103      9476  TIP3      H1            -18.7009517258      -20.7099928716       77.8420543417  TIP3      9284            0.0000000000
     50104      9476  TIP3      H2            -17.9088011235      -21.9303580418       77.6344594714  TIP3      9284            0.0000000000
     50105      9477  TIP3      OH2           -23.4183170547      -18.8781837189       78.3021526135  TIP3      9285            0.0000000000
     50106      9477  TIP3      H1            -22.9875751064      -19.6141797684       77.8162251265  TIP3      9285            0.0000000000
     50107      9477  TIP3      H2            -23.3163528361      -19.1680549441       79.2229726566  TIP3      9285            0.0000000000
     50108      9478  TIP3      OH2           -22.1934218153      -26.7028614673       77.1634350596  TIP3      9286            0.0000000000
     50109      9478  TIP3      H1            -22.2670527116      -26.9156740237       76.2000578295  TIP3      9286            0.0000000000
     50110      9478  TIP3      H2            -21.3478686586      -26.2429273632       77.1697898811  TIP3      9286            0.0000000000
     50111      9479  TIP3      OH2           -26.6581415737      -32.8218236605       77.6667259497  TIP3      9287            0.0000000000
     50112      9479  TIP3      H1            -26.9143318682      -32.8074745458       78.5932411337  TIP3      9287            0.0000000000
     50113      9479  TIP3      H2            -26.9559389828      -33.7054139986       77.3886769643  TIP3      9287            0.0000000000
     50114      9480  TIP3      OH2           -29.8256753572      -32.3569580892       76.8235772838  TIP3      9288            0.0000000000
     50115      9480  TIP3      H1            -30.2993343562      -32.8063508614       77.5458156013  TIP3      9288            0.0000000000
     50116      9480  TIP3      H2            -30.5359715480      -31.9993290112       76.2914330118  TIP3      9288            0.0000000000
     50117      9481  TIP3      OH2           -35.3589035604      -31.9576911676       79.2261000239  TIP3      9289            0.0000000000
     50118      9481  TIP3      H1            -34.7380868051      -31.3710355749       78.7436909012  TIP3      9289            0.0000000000
     50119      9481  TIP3      H2            -36.0302122547      -31.3883521455       79.5809547158  TIP3      9289            0.0000000000
     50120      9482  TIP3      OH2           -31.1489959679      -29.6644862692       78.2302736077  TIP3      9290            0.0000000000
     50121      9482  TIP3      H1            -31.6867257109      -30.0098114085       77.5035072949  TIP3      9290            0.0000000000
     50122      9482  TIP3      H2            -30.3265704075      -29.4141050107       77.7804618172  TIP3      9290            0.0000000000
     50123      9483  TIP3      OH2           -23.9386889072      -32.1753108609       78.3592347972  TIP3      9291            0.0000000000
     50124      9483  TIP3      H1            -24.8955363956      -32.0737679351       78.2192576814  TIP3      9291            0.0000000000
     50125      9483  TIP3      H2            -23.6077812413      -31.3469469803       78.7095285177  TIP3      9291            0.0000000000
     50126      9484  TIP3      OH2           -25.7017182163      -23.6433459042       79.1882048360  TIP3      9292            0.0000000000
     50127      9484  TIP3      H1            -26.0588052672      -22.7955389545       79.4900086486  TIP3      9292            0.0000000000
     50128      9484  TIP3      H2            -26.4108541745      -24.2561299706       79.4042734300  TIP3      9292            0.0000000000
     50129      9485  TIP3      OH2           -18.2009951721      -29.8508866037       79.9336912514  TIP3      9293            0.0000000000
     50130      9485  TIP3      H1            -18.6440788661      -30.3977211885       79.2512380324  TIP3      9293            0.0000000000
     50131      9485  TIP3      H2            -18.0831642399      -29.0692562266       79.3541280302  TIP3      9293            0.0000000000
     50132      9486  TIP3      OH2           -34.5875084485      -27.3795510406       77.8665336735  TIP3      9294            0.0000000000
     50133      9486  TIP3      H1            -33.9504977735      -26.7896215958       78.3614087428  TIP3      9294            0.0000000000
     50134      9486  TIP3      H2            -35.4288443156      -27.0468570982       78.1885885401  TIP3      9294            0.0000000000
     50135      9487  TIP3      OH2           -22.5670421805      -23.4048371646       77.9417724621  TIP3      9295            0.0000000000
     50136      9487  TIP3      H1            -22.2916272621      -23.7042812331       78.8165507097  TIP3      9295            0.0000000000
     50137      9487  TIP3      H2            -23.5307826154      -23.4757537080       78.0684622533  TIP3      9295            0.0000000000
     50138      9488  TIP3      OH2           -18.1692971007      -18.9638058889       78.1888319165  TIP3      9296            0.0000000000
     50139      9488  TIP3      H1            -17.4072707796      -18.3576250352       78.1286680394  TIP3      9296            0.0000000000
     50140      9488  TIP3      H2            -18.8397841755      -18.3545031165       78.5525849268  TIP3      9296            0.0000000000
     50141      9489  TIP3      OH2           -28.4873857631      -22.2441545364       76.4350067958  TIP3      9297            0.0000000000
     50142      9489  TIP3      H1            -28.3626323782      -23.0234610577       75.8777427493  TIP3      9297            0.0000000000
     50143      9489  TIP3      H2            -28.8738423501      -22.6570708135       77.2416403599  TIP3      9297            0.0000000000
     50144      9490  TIP3      OH2           -29.6769817726      -22.7390324272       78.8630588847  TIP3      9298            0.0000000000
     50145      9490  TIP3      H1            -29.5084154818      -23.1985360634       79.7030548472  TIP3      9298            0.0000000000
     50146      9490  TIP3      H2            -29.5587373837      -21.8220901585       79.1856215940  TIP3      9298            0.0000000000
     50147      9491  TIP3      OH2           -33.3329117778      -25.4561626344       79.2311700342  TIP3      9299            0.0000000000
     50148      9491  TIP3      H1            -33.8428256734      -25.1459399908       79.9808759927  TIP3      9299            0.0000000000
     50149      9491  TIP3      H2            -32.6325880023      -24.7715657214       79.1603292775  TIP3      9299            0.0000000000
     50150      9492  TIP3      OH2           -27.3538004768      -21.3646985824       78.9044665336  TIP3      9300            0.0000000000
     50151      9492  TIP3      H1            -27.9284838152      -20.7619356005       79.4197993985  TIP3      9300            0.0000000000
     50152      9492  TIP3      H2            -26.5926602734      -20.7754247875       78.7868460409  TIP3      9300            0.0000000000
     50153      9493  TIP3      OH2           -29.4962276922      -20.0280041180       79.7020632696  TIP3      9301            0.0000000000
     50154      9493  TIP3      H1            -29.4335459324      -19.2592791337       79.0841923619  TIP3      9301            0.0000000000
     50155      9493  TIP3      H2            -29.7494076633      -19.5957333655       80.5246935898  TIP3      9301            0.0000000000
     50156      9494  TIP3      OH2           -30.9818078883      -33.5047948212       78.9876725643  TIP3      9302            0.0000000000
     50157      9494  TIP3      H1            -31.2189321068      -32.6695251995       79.4266686685  TIP3      9302            0.0000000000
     50158      9494  TIP3      H2            -30.0709313792      -33.5665986192       79.3107123882  TIP3      9302            0.0000000000
     50159      9495  TIP3      OH2           -32.6336580230      -22.7932087973       78.2515452232  TIP3      9303            0.0000000000
     50160      9495  TIP3      H1            -31.9673869985      -22.1690848777       78.5676445629  TIP3      9303            0.0000000000
     50161      9495  TIP3      H2            -32.0691406306      -23.2921362114       77.6324273721  TIP3      9303            0.0000000000
     50162      9496  TIP3      OH2           -34.2854352519      -30.1558527260       77.3757832176  TIP3      9304            0.0000000000
     50163      9496  TIP3      H1            -34.3058571686      -29.2360341628       77.6836000727  TIP3      9304            0.0000000000
     50164      9496  TIP3      H2            -35.1868163636      -30.3994815527       77.1305919871  TIP3      9304            0.0000000000
     50165      9497  TIP3      OH2           -26.4552758028      -20.3742484761       76.5722870530  TIP3      9305            0.0000000000
     50166      9497  TIP3      H1            -27.1501194468      -21.0320919472       76.8262366543  TIP3      9305            0.0000000000
     50167      9497  TIP3      H2            -25.7482458341      -20.9803707298       76.3045540576  TIP3      9305            0.0000000000
     50168      9498  TIP3      OH2           -21.9057199497      -20.6305256698       76.7285595043  TIP3      9306            0.0000000000
     50169      9498  TIP3      H1            -21.6181565604      -21.3830179296       77.2671937362  TIP3      9306            0.0000000000
     50170      9498  TIP3      H2            -21.1202410199      -20.4339381948       76.1939877053  TIP3      9306            0.0000000000
     50171      9499  TIP3      OH2           -31.0550894949      -24.7571994120       76.5652847143  TIP3      9307            0.0000000000
     50172      9499  TIP3      H1            -30.8398053362      -25.4443599561       77.2141953632  TIP3      9307            0.0000000000
     50173      9499  TIP3      H2            -30.2498094854      -24.7852903693       76.0080604148  TIP3      9307            0.0000000000
     50174      9500  TIP3      OH2           -25.5686890534      -23.6088803508       76.3937427932  TIP3      9308            0.0000000000
     50175      9500  TIP3      H1            -25.8505646263      -23.5277971897       77.3189485575  TIP3      9308            0.0000000000
     50176      9500  TIP3      H2            -25.7869209060      -24.5578440274       76.2119070110  TIP3      9308            0.0000000000
     50177      9501  TIP3      OH2           -29.8597123466      -26.7120674768       78.8912360689  TIP3      9309            0.0000000000
     50178      9501  TIP3      H1            -30.2738296388      -27.2313806022       79.5999159226  TIP3      9309            0.0000000000
     50179      9501  TIP3      H2            -29.4806600935      -27.3975774270       78.3073499620  TIP3      9309            0.0000000000
     50180      9502  TIP3      OH2           -28.7440001249      -28.5055556560       77.2233726614  TIP3      9310            0.0000000000
     50181      9502  TIP3      H1            -28.8547064062      -28.5740009894       76.2563687468  TIP3      9310            0.0000000000
     50182      9502  TIP3      H2            -27.7669623157      -28.4169907179       77.3178238123  TIP3      9310            0.0000000000
     50183      9503  TIP3      OH2           -19.3867228730      -26.0730677116       76.6899324752  TIP3      9311            0.0000000000
     50184      9503  TIP3      H1            -19.5830725714      -26.5048683414       75.8342966553  TIP3      9311            0.0000000000
     50185      9503  TIP3      H2            -19.3103395731      -25.1263789125       76.4429264714  TIP3      9311            0.0000000000
     50186      9504  TIP3      OH2           -28.8900465247      -17.7338915752       78.3546883940  TIP3      9312            0.0000000000
     50187      9504  TIP3      H1            -27.9051970442      -17.7125401175       78.3951569866  TIP3      9312            0.0000000000
     50188      9504  TIP3      H2            -29.0202150754      -17.2028057018       77.5520017186  TIP3      9312            0.0000000000
     50189      9505  TIP3      OH2           -35.3216348480      -23.1417845855       77.7604025117  TIP3      9313            0.0000000000
     50190      9505  TIP3      H1            -34.3669360323      -23.0462491335       77.9671351366  TIP3      9313            0.0000000000
     50191      9505  TIP3      H2            -35.2808127775      -23.8310235226       77.0836149739  TIP3      9313            0.0000000000
     50192      9506  TIP3      OH2           -18.1261571025      -27.3798141446       78.7309025870  TIP3      9314            0.0000000000
     50193      9506  TIP3      H1            -18.6773280076      -26.9967404200       78.0119805794  TIP3      9314            0.0000000000
     50194      9506  TIP3      H2            -18.2076070718      -26.7483226047       79.4763120968  TIP3      9314            0.0000000000
     50195      9507  TIP3      OH2           -20.4056725585      -29.8544855424       77.2608717246  TIP3      9315            0.0000000000
     50196      9507  TIP3      H1            -19.7579546596      -29.4035446054       76.7076428074  TIP3      9315            0.0000000000
     50197      9507  TIP3      H2            -20.0283353100      -30.7552316178       77.0650260979  TIP3      9315            0.0000000000
     50198      9508  TIP3      OH2           -20.6340107016      -32.6840177811       76.4930341830  TIP3      9316            0.0000000000
     50199      9508  TIP3      H1            -19.9895693677      -32.9965303703       77.1442320855  TIP3      9316            0.0000000000
     50200      9508  TIP3      H2            -21.4758330078      -33.0713834204       76.7618356598  TIP3      9316            0.0000000000
     50201      9509  TIP3      OH2           -18.5105503678      -33.9817154754       78.2190967568  TIP3      9317            0.0000000000
     50202      9509  TIP3      H1            -18.0965633432      -34.5634356159       77.5488688137  TIP3      9317            0.0000000000
     50203      9509  TIP3      H2            -17.9875710492      -33.1507725122       78.1037627817  TIP3      9317            0.0000000000
     50204      9510  TIP3      OH2           -34.9983180922      -35.7325438727       79.0884397596  TIP3      9318            0.0000000000
     50205      9510  TIP3      H1            -34.4899878332      -35.0609652804       78.6312881292  TIP3      9318            0.0000000000
     50206      9510  TIP3      H2            -35.5489637586      -35.1792974684       79.6503519616  TIP3      9318            0.0000000000
     50207      9511  TIP3      OH2           -33.1765447649      -33.8241886434       77.5805875641  TIP3      9319            0.0000000000
     50208      9511  TIP3      H1            -32.6233447797      -34.4528312324       77.0822909945  TIP3      9319            0.0000000000
     50209      9511  TIP3      H2            -32.5434748198      -33.5314546672       78.2641541135  TIP3      9319            0.0000000000
     50210      9512  TIP3      OH2           -26.2297751663      -18.4351871083       78.4002248173  TIP3      9320            0.0000000000
     50211      9512  TIP3      H1            -25.2853269242      -18.2601228372       78.2571002708  TIP3      9320            0.0000000000
     50212      9512  TIP3      H2            -26.4007663235      -19.0374399625       77.6454328669  TIP3      9320            0.0000000000
     50213      9513  TIP3      OH2           -33.2345688505      -18.7557531201       77.1118313923  TIP3      9321            0.0000000000
     50214      9513  TIP3      H1            -33.5578032817      -18.6229931806       78.0210584059  TIP3      9321            0.0000000000
     50215      9513  TIP3      H2            -32.4812518094      -19.3693984058       77.2579761881  TIP3      9321            0.0000000000
     50216      9514  TIP3      OH2            -7.1375509229      -28.6184236448       77.8018202036  TIP3      9322            0.0000000000
     50217      9514  TIP3      H1             -6.3848027328      -28.5733576398       78.4362345356  TIP3      9322            0.0000000000
     50218      9514  TIP3      H2             -6.7732903853      -29.2875128795       77.2047489089  TIP3      9322            0.0000000000
     50219      9515  TIP3      OH2            -4.9005424908      -27.9570736792       79.2523647438  TIP3      9323            0.0000000000
     50220      9515  TIP3      H1             -4.4871388602      -27.6554095859       80.0916663808  TIP3      9323            0.0000000000
     50221      9515  TIP3      H2             -4.5571512889      -27.3046096245       78.6155015096  TIP3      9323            0.0000000000
     50222      9516  TIP3      OH2            -1.0890769798      -35.8940463903       79.1650368246  TIP3      9324            0.0000000000
     50223      9516  TIP3      H1             -1.9824654469      -35.7581499438       79.5471197280  TIP3      9324            0.0000000000
     50224      9516  TIP3      H2             -0.8642824802      -35.0332958694       78.8180423051  TIP3      9324            0.0000000000
     50225      9517  TIP3      OH2             0.0246854265      -21.6315519213       77.5602402667  TIP3      9325            0.0000000000
     50226      9517  TIP3      H1              0.1555196210      -20.7101809169       77.8414354403  TIP3      9325            0.0000000000
     50227      9517  TIP3      H2              0.9476647513      -21.9299326887       77.6345657390  TIP3      9325            0.0000000000
     50228      9518  TIP3      OH2            -4.5610677494      -18.8837700688       78.3013577364  TIP3      9326            0.0000000000
     50229      9518  TIP3      H1             -4.1300837873      -19.6151130814       77.8080119935  TIP3      9326            0.0000000000
     50230      9518  TIP3      H2             -4.4514814542      -19.1870214662       79.2136647973  TIP3      9326            0.0000000000
     50231      9519  TIP3      OH2            -3.3328311295      -26.7150193572       77.1598382654  TIP3      9327            0.0000000000
     50232      9519  TIP3      H1             -3.4119396179      -26.9173596400       76.1933639260  TIP3      9327            0.0000000000
     50233      9519  TIP3      H2             -2.4925011702      -26.2414458308       77.1686402396  TIP3      9327            0.0000000000
     50234      9520  TIP3      OH2            -7.8016949895      -32.8263894388       77.6668693077  TIP3      9328            0.0000000000
     50235      9520  TIP3      H1             -8.0610115289      -32.8090293721       78.5918949562  TIP3      9328            0.0000000000
     50236      9520  TIP3      H2             -8.0961032879      -33.7137177528       77.3947115774  TIP3      9328            0.0000000000
     50237      9521  TIP3      OH2           -10.9490826712      -32.3754034225       76.8238540736  TIP3      9329            0.0000000000
     50238      9521  TIP3      H1            -11.4345086049      -32.8234093898       77.5431612796  TIP3      9329            0.0000000000
     50239      9521  TIP3      H2            -11.6581401555      -31.9755369688       76.3005409788  TIP3      9329            0.0000000000
     50240      9522  TIP3      OH2           -16.1402261864      -32.0278097353       79.5499727119  TIP3      9330            0.0000000000
     50241      9522  TIP3      H1            -15.8537070775      -31.5125466921       78.7755166081  TIP3      9330            0.0000000000
     50242      9522  TIP3      H2            -17.0089632725      -31.6333760338       79.6408146493  TIP3      9330            0.0000000000
     50243      9523  TIP3      OH2           -12.2631349179      -29.6482767508       78.2565061750  TIP3      9331            0.0000000000
     50244      9523  TIP3      H1            -12.8558256596      -30.0007166256       77.5516637756  TIP3      9331            0.0000000000
     50245      9523  TIP3      H2            -11.4816706739      -29.4322504626       77.7386208962  TIP3      9331            0.0000000000
     50246      9524  TIP3      OH2            -5.0907761411      -32.1735001743       78.3524084058  TIP3      9332            0.0000000000
     50247      9524  TIP3      H1             -6.0493878731      -32.0767503202       78.2188609458  TIP3      9332            0.0000000000
     50248      9524  TIP3      H2             -4.7700126763      -31.3510638416       78.7201704212  TIP3      9332            0.0000000000
     50249      9525  TIP3      OH2            -6.8586576264      -23.6335227898       79.1608044090  TIP3      9333            0.0000000000
     50250      9525  TIP3      H1             -7.1908475350      -22.7921326352       79.4992754341  TIP3      9333            0.0000000000
     50251      9525  TIP3      H2             -7.5194113095      -24.2625287172       79.4520257483  TIP3      9333            0.0000000000
     50252      9526  TIP3      OH2             0.7082474947      -30.1567234485       79.5956515732  TIP3      9334            0.0000000000
     50253      9526  TIP3      H1              0.0758465604      -30.5019090851       78.9246950604  TIP3      9334            0.0000000000
     50254      9526  TIP3      H2              0.6822704899      -29.2046008585       79.3601764550  TIP3      9334            0.0000000000
     50255      9527  TIP3      OH2           -15.6528257294      -27.3216327330       77.8242481844  TIP3      9335            0.0000000000
     50256      9527  TIP3      H1            -15.0858593616      -26.7695264409       78.3988197320  TIP3      9335            0.0000000000
     50257      9527  TIP3      H2            -16.5551977770      -27.1102474578       78.1386140934  TIP3      9335            0.0000000000
     50258      9528  TIP3      OH2            -3.7048176657      -23.4047067809       77.9411596109  TIP3      9336            0.0000000000
     50259      9528  TIP3      H1             -3.4333384897      -23.7045671580       78.8168023783  TIP3      9336            0.0000000000
     50260      9528  TIP3      H2             -4.6656164429      -23.4722562194       78.0687437773  TIP3      9336            0.0000000000
     50261      9529  TIP3      OH2             0.6826343358      -18.9615013372       78.1886858982  TIP3      9337            0.0000000000
     50262      9529  TIP3      H1              1.4474399188      -18.3580011992       78.1276318799  TIP3      9337            0.0000000000
     50263      9529  TIP3      H2              0.0146241504      -18.3510863406       78.5478448745  TIP3      9337            0.0000000000
     50264      9530  TIP3      OH2            -9.6294608691      -22.2528547596       76.4308566617  TIP3      9338            0.0000000000
     50265      9530  TIP3      H1             -9.4934255858      -23.0184758821       75.8575768942  TIP3      9338            0.0000000000
     50266      9530  TIP3      H2            -10.0175177104      -22.6147851142       77.2381644040  TIP3      9338            0.0000000000
     50267      9531  TIP3      OH2           -10.8299256431      -22.6625316588       78.9424657026  TIP3      9339            0.0000000000
     50268      9531  TIP3      H1            -10.6353233860      -23.0247794565       79.8239624925  TIP3      9339            0.0000000000
     50269      9531  TIP3      H2            -10.7197938272      -21.7122665951       79.1984698259  TIP3      9339            0.0000000000
     50270      9532  TIP3      OH2           -14.4447374461      -25.4301837103       79.2529754801  TIP3      9340            0.0000000000
     50271      9532  TIP3      H1            -15.0038332266      -25.1621461779       79.9868642536  TIP3      9340            0.0000000000
     50272      9532  TIP3      H2            -13.8001934917      -24.7117998009       79.1667592473  TIP3      9340            0.0000000000
     50273      9533  TIP3      OH2            -8.4991989231      -21.3695511712       78.9068990007  TIP3      9341            0.0000000000
     50274      9533  TIP3      H1             -9.0557747638      -20.7476430276       79.4230199788  TIP3      9341            0.0000000000
     50275      9533  TIP3      H2             -7.7316162649      -20.7760122850       78.7837630605  TIP3      9341            0.0000000000
     50276      9534  TIP3      OH2           -10.6486724214      -20.0211994207       79.6879159519  TIP3      9342            0.0000000000
     50277      9534  TIP3      H1            -10.5849497194      -19.2386031246       79.0801694757  TIP3      9342            0.0000000000
     50278      9534  TIP3      H2            -10.8935239488      -19.5879250297       80.5155658194  TIP3      9342            0.0000000000
     50279      9535  TIP3      OH2           -12.1261038992      -33.4994601549       78.9846466431  TIP3      9343            0.0000000000
     50280      9535  TIP3      H1            -12.3575511724      -32.6655196579       79.4245449556  TIP3      9343            0.0000000000
     50281      9535  TIP3      H2            -11.2172328197      -33.5691606145       79.3120323321  TIP3      9343            0.0000000000
     50282      9536  TIP3      OH2           -13.7170325021      -22.8532579004       78.2831541734  TIP3      9344            0.0000000000
     50283      9536  TIP3      H1            -13.1073319997      -22.1527300832       78.5533685234  TIP3      9344            0.0000000000
     50284      9536  TIP3      H2            -13.2181050810      -23.2706033597       77.5648786606  TIP3      9344            0.0000000000
     50285      9537  TIP3      OH2           -15.2673212156      -30.1018546591       77.3627417283  TIP3      9345            0.0000000000
     50286      9537  TIP3      H1            -15.4114274054      -29.1917840688       77.6633450487  TIP3      9345            0.0000000000
     50287      9537  TIP3      H2            -16.1899394936      -30.4139229289       77.2120069315  TIP3      9345            0.0000000000
     50288      9538  TIP3      OH2            -7.6007026907      -20.3792859308       76.5805836591  TIP3      9346            0.0000000000
     50289      9538  TIP3      H1             -8.2927332794      -21.0366939978       76.8197081316  TIP3      9346            0.0000000000
     50290      9538  TIP3      H2             -6.8828809389      -20.9667209751       76.2971133628  TIP3      9346            0.0000000000
     50291      9539  TIP3      OH2            -3.0502072381      -20.6318007607       76.7276453197  TIP3      9347            0.0000000000
     50292      9539  TIP3      H1             -2.7604749838      -21.3827276633       77.2663845265  TIP3      9347            0.0000000000
     50293      9539  TIP3      H2             -2.2646822876      -20.4315938624       76.1936129824  TIP3      9347            0.0000000000
     50294      9540  TIP3      OH2           -12.0504608451      -24.6775969539       76.7259927839  TIP3      9348            0.0000000000
     50295      9540  TIP3      H1            -12.1369945245      -25.5749674839       77.0739801633  TIP3      9348            0.0000000000
     50296      9540  TIP3      H2            -11.4738969413      -24.8134665481       75.9343679044  TIP3      9348            0.0000000000
     50297      9541  TIP3      OH2            -6.7581190453      -23.6024530700       76.3808465311  TIP3      9349            0.0000000000
     50298      9541  TIP3      H1             -6.9427280912      -23.5271273377       77.3267714091  TIP3      9349            0.0000000000
     50299      9541  TIP3      H2             -6.9049094928      -24.5663676111       76.2062845800  TIP3      9349            0.0000000000
     50300      9542  TIP3      OH2           -11.0144586691      -26.7357574761       78.9186313546  TIP3      9350            0.0000000000
     50301      9542  TIP3      H1            -11.4279548606      -27.2790849635       79.6202874292  TIP3      9350            0.0000000000
     50302      9542  TIP3      H2            -10.6967177844      -27.4547422920       78.3146309417  TIP3      9350            0.0000000000
     50303      9543  TIP3      OH2            -9.8774917932      -28.4459710693       77.2315770441  TIP3      9351            0.0000000000
     50304      9543  TIP3      H1            -10.0261669084      -28.5846185497       76.2730074554  TIP3      9351            0.0000000000
     50305      9543  TIP3      H2             -8.8958261774      -28.4380451833       77.2983506607  TIP3      9351            0.0000000000
     50306      9544  TIP3      OH2            -0.5371819479      -26.0945507188       76.6890004690  TIP3      9352            0.0000000000
     50307      9544  TIP3      H1             -0.7236489181      -26.4981561357       75.8183849094  TIP3      9352            0.0000000000
     50308      9544  TIP3      H2             -0.4529839576      -25.1400801355       76.4507094016  TIP3      9352            0.0000000000
     50309      9545  TIP3      OH2           -10.0324246265      -17.7610984267       78.3421081574  TIP3      9353            0.0000000000
     50310      9545  TIP3      H1             -9.0547619260      -17.7043983796       78.3643363581  TIP3      9353            0.0000000000
     50311      9545  TIP3      H2            -10.1927825693      -17.1898187481       77.5711206753  TIP3      9353            0.0000000000
     50312      9546  TIP3      OH2           -16.5189287608      -23.1901910773       77.7544087141  TIP3      9354            0.0000000000
     50313      9546  TIP3      H1            -15.5677938999      -23.0741669603       77.9632463385  TIP3      9354            0.0000000000
     50314      9546  TIP3      H2            -16.4418976470      -23.8411510367       77.0259332848  TIP3      9354            0.0000000000
     50315      9547  TIP3      OH2             0.6872156110      -27.4254652069       78.7516581982  TIP3      9355            0.0000000000
     50316      9547  TIP3      H1              0.1915418511      -26.9955512229       78.0157823646  TIP3      9355            0.0000000000
     50317      9547  TIP3      H2              0.6597186596      -26.7547505576       79.4722592307  TIP3      9355            0.0000000000
     50318      9548  TIP3      OH2            -0.9681060431      -30.0720927405       77.3917717842  TIP3      9356            0.0000000000
     50319      9548  TIP3      H1             -0.9209732174      -29.4313007009       76.6710731637  TIP3      9356            0.0000000000
     50320      9548  TIP3      H2             -1.1819558049      -30.8987554686       76.9109936742  TIP3      9356            0.0000000000
     50321      9549  TIP3      OH2            -1.7537658733      -32.6045311186       76.5492132264  TIP3      9357            0.0000000000
     50322      9549  TIP3      H1             -1.1417954387      -33.0562497072       77.1529053757  TIP3      9357            0.0000000000
     50323      9549  TIP3      H2             -2.5967148984      -33.0532387981       76.7365156569  TIP3      9357            0.0000000000
     50324      9550  TIP3      OH2             0.3112130681      -33.7602660213       78.0812275287  TIP3      9358            0.0000000000
     50325      9550  TIP3      H1              0.7297710983      -34.5105708779       77.5963051022  TIP3      9358            0.0000000000
     50326      9550  TIP3      H2              1.0431060984      -33.1270386225       78.1781274257  TIP3      9358            0.0000000000
     50327      9551  TIP3      OH2           -16.1150929731      -35.7631005100       79.1371593084  TIP3      9359            0.0000000000
     50328      9551  TIP3      H1            -15.6812265486      -35.0885650585       78.6003094076  TIP3      9359            0.0000000000
     50329      9551  TIP3      H2            -16.6947183093      -35.1944651528       79.6390390234  TIP3      9359            0.0000000000
     50330      9552  TIP3      OH2           -14.3340800699      -33.8517300308       77.5794709864  TIP3      9360            0.0000000000
     50331      9552  TIP3      H1            -13.7539674285      -34.4446844543       77.0680062984  TIP3      9360            0.0000000000
     50332      9552  TIP3      H2            -13.7141632249      -33.5219697896       78.2618758024  TIP3      9360            0.0000000000
     50333      9553  TIP3      OH2            -7.3652062147      -18.4153229895       78.4133324971  TIP3      9361            0.0000000000
     50334      9553  TIP3      H1             -6.4216071723      -18.2635100492       78.2465589322  TIP3      9361            0.0000000000
     50335      9553  TIP3      H2             -7.5506903329      -19.0257872936       77.6663785553  TIP3      9361            0.0000000000
     50336      9554  TIP3      OH2           -14.3775179606      -18.7925766705       77.0939582640  TIP3      9362            0.0000000000
     50337      9554  TIP3      H1            -14.6652730967      -18.5852922714       77.9997145390  TIP3      9362            0.0000000000
     50338      9554  TIP3      H2            -13.6181873413      -19.3868928361       77.2500121708  TIP3      9362            0.0000000000
     50339      9555  TIP3      OH2            11.7216591939      -28.6361117916       77.7985134818  TIP3      9363            0.0000000000
     50340      9555  TIP3      H1             12.4705300992      -28.5636065321       78.4348255140  TIP3      9363            0.0000000000
     50341      9555  TIP3      H2             12.0910284193      -29.3025202106       77.2040644580  TIP3      9363            0.0000000000
     50342      9556  TIP3      OH2            13.9537672901      -27.9550307960       79.2520238122  TIP3      9364            0.0000000000
     50343      9556  TIP3      H1             14.3689714262      -27.6558142526       80.0916229027  TIP3      9364            0.0000000000
     50344      9556  TIP3      H2             14.3013708970      -27.3040796947       78.6164200529  TIP3      9364            0.0000000000
     50345      9557  TIP3      OH2            17.7504792789      -35.9058409418       79.1751770581  TIP3      9365            0.0000000000
     50346      9557  TIP3      H1             16.8623419883      -35.7362812724       79.5379149796  TIP3      9365            0.0000000000
     50347      9557  TIP3      H2             17.9768867023      -35.0490728960       78.8196526619  TIP3      9365            0.0000000000
     50348      9558  TIP3      OH2            18.8808974727      -21.6318355467       77.5605567443  TIP3      9366            0.0000000000
     50349      9558  TIP3      H1             19.0110087673      -20.7103964704       77.8411275888  TIP3      9366            0.0000000000
     50350      9558  TIP3      H2             19.8039667469      -21.9299383398       77.6346317124  TIP3      9366            0.0000000000
     50351      9559  TIP3      OH2            14.2939788363      -18.8777035502       78.3041115694  TIP3      9367            0.0000000000
     50352      9559  TIP3      H1             14.7244817889      -19.6143962528       77.8162025087  TIP3      9367            0.0000000000
     50353      9559  TIP3      H2             14.3954827834      -19.1682261642       79.2229078253  TIP3      9367            0.0000000000
     50354      9560  TIP3      OH2            15.5243784542      -26.7145301250       77.1634557582  TIP3      9368            0.0000000000
     50355      9560  TIP3      H1             15.4441625955      -26.9077745647       76.1971768132  TIP3      9368            0.0000000000
     50356      9560  TIP3      H2             16.3642443789      -26.2410430459       77.1699879992  TIP3      9368            0.0000000000
     50357      9561  TIP3      OH2            11.0303657846      -32.8094842929       77.6378812946  TIP3      9369            0.0000000000
     50358      9561  TIP3      H1             10.7986728646      -32.7956331854       78.5730420357  TIP3      9369            0.0000000000
     50359      9561  TIP3      H2             10.7660590084      -33.7129153589       77.3928036928  TIP3      9369            0.0000000000
     50360      9562  TIP3      OH2             7.8833107239      -32.3801577444       76.8208756900  TIP3      9370            0.0000000000
     50361      9562  TIP3      H1              7.4135565806      -32.8047514854       77.5635237758  TIP3      9370            0.0000000000
     50362      9562  TIP3      H2              7.1596792745      -31.9669125778       76.3344670237  TIP3      9370            0.0000000000
     50363      9563  TIP3      OH2             2.3869929629      -32.0599780793       79.1822353977  TIP3      9371            0.0000000000
     50364      9563  TIP3      H1              2.9744365030      -31.4080982258       78.7413229976  TIP3      9371            0.0000000000
     50365      9563  TIP3      H2              1.7523928509      -31.4339411558       79.5736776525  TIP3      9371            0.0000000000
     50366      9564  TIP3      OH2             6.5805031985      -29.7050829241       78.2488810637  TIP3      9372            0.0000000000
     50367      9564  TIP3      H1              6.0175562960      -29.9925114821       77.5077868460  TIP3      9372            0.0000000000
     50368      9564  TIP3      H2              7.3646277819      -29.4105536613       77.7612556145  TIP3      9372            0.0000000000
     50369      9565  TIP3      OH2            13.7697151974      -32.1719502481       78.3439373385  TIP3      9373            0.0000000000
     50370      9565  TIP3      H1             12.8097234177      -32.0772702970       78.2189876905  TIP3      9373            0.0000000000
     50371      9565  TIP3      H2             14.0854361313      -31.3517121406       78.7211043927  TIP3      9373            0.0000000000
     50372      9566  TIP3      OH2            12.0157454231      -23.6394322748       79.1937569658  TIP3      9374            0.0000000000
     50373      9566  TIP3      H1             11.6564604768      -22.7929706608       79.4914560485  TIP3      9374            0.0000000000
     50374      9566  TIP3      H2             11.3060036622      -24.2548740116       79.4041010054  TIP3      9374            0.0000000000
     50375      9567  TIP3      OH2            19.5753376799      -30.1716963010       79.5851860466  TIP3      9375            0.0000000000
     50376      9567  TIP3      H1             18.9132556917      -30.4924036996       78.9332182859  TIP3      9375            0.0000000000
     50377      9567  TIP3      H2             19.5455659861      -29.2151456565       79.3628556523  TIP3      9375            0.0000000000
     50378      9568  TIP3      OH2             3.1694871025      -27.3744460129       77.8586534700  TIP3      9376            0.0000000000
     50379      9568  TIP3      H1              3.7668856164      -26.7737284851       78.3641397309  TIP3      9376            0.0000000000
     50380      9568  TIP3      H2              2.2881671165      -27.0838491812       78.1470555663  TIP3      9376            0.0000000000
     50381      9569  TIP3      OH2            15.1453178581      -23.4055801080       77.9414905199  TIP3      9377            0.0000000000
     50382      9569  TIP3      H1             15.4205173809      -23.7040660154       78.8166781523  TIP3      9377            0.0000000000
     50383      9569  TIP3      H2             14.1823963177      -23.4765174572       78.0688175992  TIP3      9377            0.0000000000
     50384      9570  TIP3      OH2            19.5382521044      -18.9616060992       78.1877732725  TIP3      9378            0.0000000000
     50385      9570  TIP3      H1             20.3030452743      -18.3581302160       78.1275616216  TIP3      9378            0.0000000000
     50386      9570  TIP3      H2             18.8698761755      -18.3512840575       78.5474769018  TIP3      9378            0.0000000000
     50387      9571  TIP3      OH2             9.2266847808      -22.2457141908       76.4351157665  TIP3      9379            0.0000000000
     50388      9571  TIP3      H1              9.3488870268      -23.0240960716       75.8780365340  TIP3      9379            0.0000000000
     50389      9571  TIP3      H2              8.8366477651      -22.6533000398       77.2422562288  TIP3      9379            0.0000000000
     50390      9572  TIP3      OH2             8.0462954315      -22.7363557567       78.8639769797  TIP3      9380            0.0000000000
     50391      9572  TIP3      H1              8.2261069251      -23.1984445733       79.6989658161  TIP3      9380            0.0000000000
     50392      9572  TIP3      H2              8.1538345860      -21.8194943975       79.1875665393  TIP3      9380            0.0000000000
     50393      9573  TIP3      OH2             4.3734081426      -25.4270716798       79.2483881443  TIP3      9381            0.0000000000
     50394      9573  TIP3      H1              3.8668087741      -25.1396208888       80.0058784292  TIP3      9381            0.0000000000
     50395      9573  TIP3      H2              5.0937872439      -24.7692256682       79.1630912384  TIP3      9381            0.0000000000
     50396      9574  TIP3      OH2            10.3598493793      -21.3647483733       78.9053686431  TIP3      9382            0.0000000000
     50397      9574  TIP3      H1              9.7826465204      -20.7611313436       79.4180709429  TIP3      9382            0.0000000000
     50398      9574  TIP3      H2             11.1190940611      -20.7734729266       78.7867828679  TIP3      9382            0.0000000000
     50399      9575  TIP3      OH2             8.2239985078      -20.0198115293       79.6976923182  TIP3      9383            0.0000000000
     50400      9575  TIP3      H1              8.2721357452      -19.2479020236       79.0781624400  TIP3      9383            0.0000000000
     50401      9575  TIP3      H2              7.9632655278      -19.5923840173       80.5199442169  TIP3      9383            0.0000000000
     50402      9576  TIP3      OH2             6.7304487706      -33.5078010559       78.9907020319  TIP3      9384            0.0000000000
     50403      9576  TIP3      H1              6.5009079862      -32.6673361911       79.4208484134  TIP3      9384            0.0000000000
     50404      9576  TIP3      H2              7.6423266003      -33.5668118683       79.3103884867  TIP3      9384            0.0000000000
     50405      9577  TIP3      OH2             5.1211665609      -22.8271003212       78.2562760807  TIP3      9385            0.0000000000
     50406      9577  TIP3      H1              5.7846035334      -22.1991306336       78.5657557749  TIP3      9385            0.0000000000
     50407      9577  TIP3      H2              5.6593435121      -23.3135235171       77.6062120397  TIP3      9385            0.0000000000
     50408      9578  TIP3      OH2             3.4523012730      -30.1523326610       77.4243006517  TIP3      9386            0.0000000000
     50409      9578  TIP3      H1              3.4318716646      -29.2058465661       77.6608255986  TIP3      9386            0.0000000000
     50410      9578  TIP3      H2              2.5614848103      -30.3662205025       77.1477083711  TIP3      9386            0.0000000000
     50411      9579  TIP3      OH2            11.2569125846      -20.3745151151       76.5726850466  TIP3      9387            0.0000000000
     50412      9579  TIP3      H1             10.5614424333      -21.0317917455       76.8262182568  TIP3      9387            0.0000000000
     50413      9579  TIP3      H2             11.9636508149      -20.9807583524       76.3043667358  TIP3      9387            0.0000000000
     50414      9580  TIP3      OH2            15.8059985708      -20.6308032252       76.7278818358  TIP3      9388            0.0000000000
     50415      9580  TIP3      H1             16.0948624156      -21.3827089409       77.2666879271  TIP3      9388            0.0000000000
     50416      9580  TIP3      H2             16.5913950980      -20.4316370051       76.1935816230  TIP3      9388            0.0000000000
     50417      9581  TIP3      OH2             6.6860875090      -24.7136052495       76.6119121301  TIP3      9389            0.0000000000
     50418      9581  TIP3      H1              6.8521747097      -25.4654418980       77.1982181896  TIP3      9389            0.0000000000
     50419      9581  TIP3      H2              7.4382683559      -24.8039704009       75.9938065731  TIP3      9389            0.0000000000
     50420      9582  TIP3      OH2            12.1446278353      -23.6092288957       76.3944160672  TIP3      9390            0.0000000000
     50421      9582  TIP3      H1             11.8604466034      -23.5270268274       77.3185852070  TIP3      9390            0.0000000000
     50422      9582  TIP3      H2             11.9237177511      -24.5573359177       76.2116732231  TIP3      9390            0.0000000000
     50423      9583  TIP3      OH2             7.8832962233      -26.7200161381       78.9114443570  TIP3      9391            0.0000000000
     50424      9583  TIP3      H1              7.4335312532      -27.2335479551       79.5999697264  TIP3      9391            0.0000000000
     50425      9583  TIP3      H2              8.1864653523      -27.4065190580       78.2853175170  TIP3      9391            0.0000000000
     50426      9584  TIP3      OH2             8.9802958879      -28.5376147317       77.2212447140  TIP3      9392            0.0000000000
     50427      9584  TIP3      H1              8.8355046281      -28.5427233813       76.2552429023  TIP3      9392            0.0000000000
     50428      9584  TIP3      H2              9.9503939370      -28.4158942434       77.2995263552  TIP3      9392            0.0000000000
     50429      9585  TIP3      OH2            18.3180281632      -26.0928668566       76.6897236347  TIP3      9393            0.0000000000
     50430      9585  TIP3      H1             18.1291188757      -26.4917462405       75.8182126764  TIP3      9393            0.0000000000
     50431      9585  TIP3      H2             18.4039373001      -25.1390666456       76.4518282052  TIP3      9393            0.0000000000
     50432      9586  TIP3      OH2             8.8297059397      -17.7562468126       78.3467823363  TIP3      9394            0.0000000000
     50433      9586  TIP3      H1              9.8079729060      -17.6907540647       78.3848674104  TIP3      9394            0.0000000000
     50434      9586  TIP3      H2              8.6667869338      -17.1924057844       77.5701320372  TIP3      9394            0.0000000000
     50435      9587  TIP3      OH2             2.3491904811      -23.1944288958       77.7619572137  TIP3      9395            0.0000000000
     50436      9587  TIP3      H1              3.3077418428      -23.0827342639       77.9542097638  TIP3      9395            0.0000000000
     50437      9587  TIP3      H2              2.4130125079      -23.8483622502       77.0335223675  TIP3      9395            0.0000000000
     50438      9588  TIP3      OH2            19.5422632121      -27.4265044636       78.7509292499  TIP3      9396            0.0000000000
     50439      9588  TIP3      H1             19.0466374788      -26.9946758300       78.0153151400  TIP3      9396            0.0000000000
     50440      9588  TIP3      H2             19.5161237354      -26.7557391252       79.4714999837  TIP3      9396            0.0000000000
     50441      9589  TIP3      OH2            17.8975088698      -30.0823408641       77.3888358179  TIP3      9397            0.0000000000
     50442      9589  TIP3      H1             17.9280851523      -29.4232282847       76.6822634732  TIP3      9397            0.0000000000
     50443      9589  TIP3      H2             17.6478567639      -30.8897268376       76.9029416414  TIP3      9397            0.0000000000
     50444      9590  TIP3      OH2            17.1046347258      -32.6405778576       76.5363800358  TIP3      9398            0.0000000000
     50445      9590  TIP3      H1             17.6878617208      -33.0563325742       77.1965363254  TIP3      9398            0.0000000000
     50446      9590  TIP3      H2             16.2411972645      -33.0420997873       76.7349533323  TIP3      9398            0.0000000000
     50447      9591  TIP3      OH2            19.1727891808      -33.7305582681       78.0127697999  TIP3      9399            0.0000000000
     50448      9591  TIP3      H1             19.6012953841      -34.5449783830       77.6778975097  TIP3      9399            0.0000000000
     50449      9591  TIP3      H2             19.8988098024      -33.1180883817       78.2348528925  TIP3      9399            0.0000000000
     50450      9592  TIP3      OH2             2.7371365256      -35.7769975097       79.1046530091  TIP3      9400            0.0000000000
     50451      9592  TIP3      H1              3.1940433818      -35.0840705685       78.6166966039  TIP3      9400            0.0000000000
     50452      9592  TIP3      H2              2.1772641595      -35.2255478632       79.6517580158  TIP3      9400            0.0000000000
     50453      9593  TIP3      OH2             4.5319467270      -33.8363366254       77.5652690576  TIP3      9401            0.0000000000
     50454      9593  TIP3      H1              5.1120114582      -34.4424964303       77.0723508569  TIP3      9401            0.0000000000
     50455      9593  TIP3      H2              5.1413980201      -33.5279641992       78.2690310312  TIP3      9401            0.0000000000
     50456      9594  TIP3      OH2            11.4847661061      -18.4363263354       78.4018959131  TIP3      9402            0.0000000000
     50457      9594  TIP3      H1             12.4279140207      -18.2609121759       78.2566405142  TIP3      9402            0.0000000000
     50458      9594  TIP3      H2             11.3111289205      -19.0367487705       77.6462330458  TIP3      9402            0.0000000000
     50459      9595  TIP3      OH2             4.4787417026      -18.7917252275       77.0935718419  TIP3      9403            0.0000000000
     50460      9595  TIP3      H1              4.1901451300      -18.5856071993       77.9991840541  TIP3      9403            0.0000000000
     50461      9595  TIP3      H2              5.2370373030      -19.3868252077       77.2495645678  TIP3      9403            0.0000000000
     50462      9596  TIP3      OH2            30.5746835440      -28.6345246109       77.7968230917  TIP3      9404            0.0000000000
     50463      9596  TIP3      H1             31.3282756305      -28.5626604354       78.4275175917  TIP3      9404            0.0000000000
     50464      9596  TIP3      H2             30.9418048629      -29.3003633981       77.2024546187  TIP3      9404            0.0000000000
     50465      9597  TIP3      OH2            32.7702285131      -27.9579898056       79.2904824216  TIP3      9405            0.0000000000
     50466      9597  TIP3      H1             33.2212832948      -27.6447868147       80.0996661698  TIP3      9405            0.0000000000
     50467      9597  TIP3      H2             33.1189371123      -27.3228626318       78.6375269497  TIP3      9405            0.0000000000
     50468      9598  TIP3      OH2            33.1275461768      -18.8745396343       78.2669587799  TIP3      9406            0.0000000000
     50469      9598  TIP3      H1             33.5782010041      -19.6172595781       77.8088928074  TIP3      9406            0.0000000000
     50470      9598  TIP3      H2             33.2172982715      -19.1435424257       79.1948305669  TIP3      9406            0.0000000000
     50471      9599  TIP3      OH2            34.3795575081      -26.7392731878       77.1726887960  TIP3      9407            0.0000000000
     50472      9599  TIP3      H1             34.3118243221      -26.9408004740       76.2107126342  TIP3      9407            0.0000000000
     50473      9599  TIP3      H2             35.1849460365      -26.2214906102       77.1847914870  TIP3      9407            0.0000000000
     50474      9600  TIP3      OH2            29.9195296254      -32.8229205864       77.6669353428  TIP3      9408            0.0000000000
     50475      9600  TIP3      H1             29.6461361010      -32.8002037604       78.5895997181  TIP3      9408            0.0000000000
     50476      9600  TIP3      H2             29.6082920251      -33.7014981322       77.3891350360  TIP3      9408            0.0000000000
     50477      9601  TIP3      OH2            26.7577449480      -32.3781245320       76.8221998679  TIP3      9409            0.0000000000
     50478      9601  TIP3      H1             26.2808269177      -32.8005737911       77.5565052520  TIP3      9409            0.0000000000
     50479      9601  TIP3      H2             26.0638322150      -31.9567951867       76.3046704204  TIP3      9409            0.0000000000
     50480      9602  TIP3      OH2            21.2272846940      -32.0805859074       79.1291009928  TIP3      9410            0.0000000000
     50481      9602  TIP3      H1             21.8387765547      -31.4042762175       78.7538540295  TIP3      9410            0.0000000000
     50482      9602  TIP3      H2             20.6212681038      -31.4516407728       79.5748174858  TIP3      9410            0.0000000000
     50483      9603  TIP3      OH2            25.4382513630      -29.6948770799       78.2585808674  TIP3      9411            0.0000000000
     50484      9603  TIP3      H1             24.8780952742      -29.9807944394       77.5159322651  TIP3      9411            0.0000000000
     50485      9603  TIP3      H2             26.2229301587      -29.4080943468       77.7678297183  TIP3      9411            0.0000000000
     50486      9604  TIP3      OH2            32.6473933134      -32.1741253338       78.3396682904  TIP3      9412            0.0000000000
     50487      9604  TIP3      H1             31.6839528443      -32.1145446980       78.2040111903  TIP3      9412            0.0000000000
     50488      9604  TIP3      H2             32.8943827730      -31.3364891971       78.7184147810  TIP3      9412            0.0000000000
     50489      9605  TIP3      OH2            30.8637881679      -23.6421255026       79.2007735826  TIP3      9413            0.0000000000
     50490      9605  TIP3      H1             30.5097088864      -22.7897368696       79.4867167631  TIP3      9413            0.0000000000
     50491      9605  TIP3      H2             30.1548668904      -24.2563749611       79.4106276762  TIP3      9413            0.0000000000
     50492      9606  TIP3      OH2            22.0270351585      -27.3758224051       77.8594202115  TIP3      9414            0.0000000000
     50493      9606  TIP3      H1             22.6233060369      -26.7734546556       78.3640047031  TIP3      9414            0.0000000000
     50494      9606  TIP3      H2             21.1453512001      -27.0827521890       78.1444058903  TIP3      9414            0.0000000000
     50495      9607  TIP3      OH2            33.9625621072      -23.4009168775       77.9456598714  TIP3      9415            0.0000000000
     50496      9607  TIP3      H1             34.2623898720      -23.6986374126       78.8073746081  TIP3      9415            0.0000000000
     50497      9607  TIP3      H2             33.0073827974      -23.4845471967       78.0684279973  TIP3      9415            0.0000000000
     50498      9608  TIP3      OH2            28.0827128722      -22.2460728522       76.4351828554  TIP3      9416            0.0000000000
     50499      9608  TIP3      H1             28.2049068072      -23.0243063334       75.8776508121  TIP3      9416            0.0000000000
     50500      9608  TIP3      H2             27.6926070826      -22.6546459236       77.2418718781  TIP3      9416            0.0000000000
     50501      9609  TIP3      OH2            26.9021995400      -22.7362802306       78.8630428470  TIP3      9417            0.0000000000
     50502      9609  TIP3      H1             27.0807763491      -23.1975244631       79.6976927909  TIP3      9417            0.0000000000
     50503      9609  TIP3      H2             27.0099208808      -21.8198373581       79.1872113093  TIP3      9417            0.0000000000
     50504      9610  TIP3      OH2            23.2290516169      -25.4270513367       79.2483407823  TIP3      9418            0.0000000000
     50505      9610  TIP3      H1             22.7225667264      -25.1406577236       80.0063192474  TIP3      9418            0.0000000000
     50506      9610  TIP3      H2             23.9495807767      -24.7691541388       79.1635289881  TIP3      9418            0.0000000000
     50507      9611  TIP3      OH2            29.2152609210      -21.3649279217       78.9028941219  TIP3      9419            0.0000000000
     50508      9611  TIP3      H1             28.6414297200      -20.7617714693       79.4181639867  TIP3      9419            0.0000000000
     50509      9611  TIP3      H2             29.9751908433      -20.7737825437       78.7867656698  TIP3      9419            0.0000000000
     50510      9612  TIP3      OH2            27.0747507274      -20.0167980699       79.6945716906  TIP3      9420            0.0000000000
     50511      9612  TIP3      H1             27.1279145731      -19.2465388198       79.0772320043  TIP3      9420            0.0000000000
     50512      9612  TIP3      H2             26.8194262797      -19.5920969461       80.5198481717  TIP3      9420            0.0000000000
     50513      9613  TIP3      OH2            25.5648361514      -33.5003743891       78.9786041899  TIP3      9421            0.0000000000
     50514      9613  TIP3      H1             25.3567220479      -32.6625206231       79.4248604638  TIP3      9421            0.0000000000
     50515      9613  TIP3      H2             26.4797770145      -33.5705576431       79.2977029067  TIP3      9421            0.0000000000
     50516      9614  TIP3      OH2            23.9763441140      -22.8267448393       78.2565976721  TIP3      9422            0.0000000000
     50517      9614  TIP3      H1             24.6408085029      -22.1994648294       78.5655197998  TIP3      9422            0.0000000000
     50518      9614  TIP3      H2             24.5115506250      -23.3129294948       77.6043982246  TIP3      9422            0.0000000000
     50519      9615  TIP3      OH2            22.3020841893      -30.1578835712       77.4251727826  TIP3      9423            0.0000000000
     50520      9615  TIP3      H1             22.3014439559      -29.2112254344       77.6692218257  TIP3      9423            0.0000000000
     50521      9615  TIP3      H2             21.4042837944      -30.3287903179       77.1524525149  TIP3      9423            0.0000000000
     50522      9616  TIP3      OH2            30.1210763173      -20.3763873575       76.5687987688  TIP3      9424            0.0000000000
     50523      9616  TIP3      H1             29.4218349094      -21.0289286442       76.8254022449  TIP3      9424            0.0000000000
     50524      9616  TIP3      H2             30.8280037434      -20.9854129023       76.3095981662  TIP3      9424            0.0000000000
     50525      9617  TIP3      OH2            34.6404951788      -20.6174962985       76.7807399521  TIP3      9425            0.0000000000
     50526      9617  TIP3      H1             34.9466429368      -21.3829693844       77.2882748063  TIP3      9425            0.0000000000
     50527      9617  TIP3      H2             35.3981102562      -20.4498159661       76.1868461212  TIP3      9425            0.0000000000
     50528      9618  TIP3      OH2            25.5409351596      -24.7148318825       76.6114114928  TIP3      9426            0.0000000000
     50529      9618  TIP3      H1             25.7085546632      -25.4656354089       77.1985408008  TIP3      9426            0.0000000000
     50530      9618  TIP3      H2             26.2940264655      -24.8040145826       75.9938470641  TIP3      9426            0.0000000000
     50531      9619  TIP3      OH2            30.9918056780      -23.6092069055       76.3932823140  TIP3      9427            0.0000000000
     50532      9619  TIP3      H1             30.7079985572      -23.5276679134       77.3176546003  TIP3      9427            0.0000000000
     50533      9619  TIP3      H2             30.7695476341      -24.5578369477       76.2110575328  TIP3      9427            0.0000000000
     50534      9620  TIP3      OH2            26.7367720233      -26.7147931485       78.9151068669  TIP3      9428            0.0000000000
     50535      9620  TIP3      H1             26.2889053728      -27.2337169354       79.6003995989  TIP3      9428            0.0000000000
     50536      9620  TIP3      H2             27.0471553177      -27.3998346535       78.2877365641  TIP3      9428            0.0000000000
     50537      9621  TIP3      OH2            27.8363375819      -28.5124554669       77.2312815177  TIP3      9429            0.0000000000
     50538      9621  TIP3      H1             27.6983373661      -28.5665966594       76.2628117211  TIP3      9429            0.0000000000
     50539      9621  TIP3      H2             28.8086109174      -28.4163077534       77.3035728017  TIP3      9429            0.0000000000
     50540      9622  TIP3      OH2            27.6927336141      -17.7574174660       78.3418935747  TIP3      9430            0.0000000000
     50541      9622  TIP3      H1             28.6684306871      -17.6899554264       78.3827458766  TIP3      9430            0.0000000000
     50542      9622  TIP3      H2             27.5231573951      -17.1916451136       77.5690764224  TIP3      9430            0.0000000000
     50543      9623  TIP3      OH2            21.2051039011      -23.1942679085       77.7614931467  TIP3      9431            0.0000000000
     50544      9623  TIP3      H1             22.1635976928      -23.0827500337       77.9542056076  TIP3      9431            0.0000000000
     50545      9623  TIP3      H2             21.2691252058      -23.8484678310       77.0333599435  TIP3      9431            0.0000000000
     50546      9624  TIP3      OH2            35.9280836127      -32.6597970974       76.5267028885  TIP3      9432            0.0000000000
     50547      9624  TIP3      H1             36.5380535429      -32.9993258498       77.1939595068  TIP3      9432            0.0000000000
     50548      9624  TIP3      H2             35.0757656204      -33.0730056487       76.7444339860  TIP3      9432            0.0000000000
     50549      9625  TIP3      OH2            21.5629550738      -35.7577212750       79.0604845655  TIP3      9433            0.0000000000
     50550      9625  TIP3      H1             22.0940965442      -35.0720750949       78.6564223612  TIP3      9433            0.0000000000
     50551      9625  TIP3      H2             21.0466463204      -35.2216226325       79.6652529240  TIP3      9433            0.0000000000
     50552      9626  TIP3      OH2            23.3673631872      -33.8386097206       77.5288773953  TIP3      9434            0.0000000000
     50553      9626  TIP3      H1             23.9893832845      -34.4549134079       77.0929134376  TIP3      9434            0.0000000000
     50554      9626  TIP3      H2             23.9640460441      -33.5241131079       78.2528512257  TIP3      9434            0.0000000000
     50555      9627  TIP3      OH2            30.3303688448      -18.4388275036       78.3965028545  TIP3      9435            0.0000000000
     50556      9627  TIP3      H1             31.2763148867      -18.2652569500       78.2535699093  TIP3      9435            0.0000000000
     50557      9627  TIP3      H2             30.1625741657      -19.0440633762       77.6432463827  TIP3      9435            0.0000000000
     50558      9628  TIP3      OH2            23.3347806000      -18.7916770319       77.0935889107  TIP3      9436            0.0000000000
     50559      9628  TIP3      H1             23.0460952227      -18.5855979734       77.9991886740  TIP3      9436            0.0000000000
     50560      9628  TIP3      H2             24.0930124976      -19.3868266357       77.2495876587  TIP3      9436            0.0000000000
     50561      9629  TIP3      OH2           -25.9929618399       -9.7802275787       77.8002664664  TIP3      9437            0.0000000000
     50562      9629  TIP3      H1            -25.2445964346       -9.7077076088       78.4359732626  TIP3      9437            0.0000000000
     50563      9629  TIP3      H2            -25.6224967187      -10.4442239025       77.2030078973  TIP3      9437            0.0000000000
     50564      9630  TIP3      OH2           -23.7581143185       -9.0984692521       79.2514191404  TIP3      9438            0.0000000000
     50565      9630  TIP3      H1            -23.3428781519       -8.7994060130       80.0910390050  TIP3      9438            0.0000000000
     50566      9630  TIP3      H2            -23.4109411048       -8.4480463426       78.6147209491  TIP3      9438            0.0000000000
     50567      9631  TIP3      OH2           -19.9645486131      -17.1247365522       79.2961928713  TIP3      9439            0.0000000000
     50568      9631  TIP3      H1            -20.9001782349      -17.0375787577       79.5296162343  TIP3      9439            0.0000000000
     50569      9631  TIP3      H2            -19.7627761906      -16.2961566017       78.8351630434  TIP3      9439            0.0000000000
     50570      9632  TIP3      OH2           -18.8311784996       -2.7750826022       77.5588693251  TIP3      9440            0.0000000000
     50571      9632  TIP3      H1            -18.7009188945       -1.8540573077       77.8418111790  TIP3      9440            0.0000000000
     50572      9632  TIP3      H2            -17.9085728342       -3.0741523555       77.6346649841  TIP3      9440            0.0000000000
     50573      9633  TIP3      OH2           -23.4184301585       -0.0213927013       78.3030727163  TIP3      9441            0.0000000000
     50574      9633  TIP3      H1            -22.9873178216       -0.7582689890       77.8161860197  TIP3      9441            0.0000000000
     50575      9633  TIP3      H2            -23.3168429872       -0.3116952216       79.2221418362  TIP3      9441            0.0000000000
     50576      9634  TIP3      OH2           -22.1884718487       -7.8594535913       77.1597168591  TIP3      9442            0.0000000000
     50577      9634  TIP3      H1            -22.2678275134       -8.0602384339       76.1928741113  TIP3      9442            0.0000000000
     50578      9634  TIP3      H2            -21.3483189106       -7.3858931377       77.1683202441  TIP3      9442            0.0000000000
     50579      9635  TIP3      OH2           -26.6947877963      -13.9693522549       77.6557019819  TIP3      9443            0.0000000000
     50580      9635  TIP3      H1            -26.8895958024      -13.9428189541       78.6038554845  TIP3      9443            0.0000000000
     50581      9635  TIP3      H2            -26.9165879972      -14.8797750654       77.4097157836  TIP3      9443            0.0000000000
     50582      9636  TIP3      OH2           -29.7097472915      -13.4892798674       76.8425728425  TIP3      9444            0.0000000000
     50583      9636  TIP3      H1            -30.1143484494      -13.8283470734       77.6721939903  TIP3      9444            0.0000000000
     50584      9636  TIP3      H2            -30.3481694183      -12.9170300350       76.3759398537  TIP3      9444            0.0000000000
     50585      9637  TIP3      OH2           -35.2961200523      -13.1243763188       79.2065512741  TIP3      9445            0.0000000000
     50586      9637  TIP3      H1            -34.7446756927      -12.4922564291       78.6997305233  TIP3      9445            0.0000000000
     50587      9637  TIP3      H2            -36.0168204625      -12.5851468804       79.5539673660  TIP3      9445            0.0000000000
     50588      9638  TIP3      OH2           -31.1108682312      -10.8939586909       78.2507860871  TIP3      9446            0.0000000000
     50589      9638  TIP3      H1            -31.7008056221      -11.0763655224       77.4980800008  TIP3      9446            0.0000000000
     50590      9638  TIP3      H2            -30.3442056238      -10.5190628750       77.7829127704  TIP3      9446            0.0000000000
     50591      9639  TIP3      OH2           -23.9185856465      -13.3429079481       78.3460897187  TIP3      9447            0.0000000000
     50592      9639  TIP3      H1            -24.8802643683      -13.2467389184       78.2284988522  TIP3      9447            0.0000000000
     50593      9639  TIP3      H2            -23.6169679135      -12.5099641959       78.7112227648  TIP3      9447            0.0000000000
     50594      9640  TIP3      OH2           -25.6975958023       -4.7829011502       79.1945520114  TIP3      9448            0.0000000000
     50595      9640  TIP3      H1            -26.0602311149       -3.9368410053       79.4901405569  TIP3      9448            0.0000000000
     50596      9640  TIP3      H2            -26.4076452746       -5.3984712471       79.4031610063  TIP3      9448            0.0000000000
     50597      9641  TIP3      OH2           -18.1438033601      -11.3064887213       79.5913392054  TIP3      9449            0.0000000000
     50598      9641  TIP3      H1            -18.7789915538      -11.6473383013       78.9228412802  TIP3      9449            0.0000000000
     50599      9641  TIP3      H2            -18.1723259996      -10.3528518928       79.3624677723  TIP3      9449            0.0000000000
     50600      9642  TIP3      OH2           -34.5924284907       -8.5421541452       77.8952585311  TIP3      9450            0.0000000000
     50601      9642  TIP3      H1            -33.9452396425       -7.9355516112       78.3506559174  TIP3      9450            0.0000000000
     50602      9642  TIP3      H2            -35.4336626057       -8.1790212053       78.1782334749  TIP3      9450            0.0000000000
     50603      9643  TIP3      OH2           -22.5666651972       -4.5494442100       77.9415581882  TIP3      9451            0.0000000000
     50604      9643  TIP3      H1            -22.2915079103       -4.8481218628       78.8166831509  TIP3      9451            0.0000000000
     50605      9643  TIP3      H2            -23.5295915234       -4.6205424467       78.0687598526  TIP3      9451            0.0000000000
     50606      9644  TIP3      OH2           -18.1812200215       -0.1109471390       78.1841868313  TIP3      9452            0.0000000000
     50607      9644  TIP3      H1            -17.4079022402        0.4799132564       78.1376163119  TIP3      9452            0.0000000000
     50608      9644  TIP3      H2            -18.8426158393        0.5044963124       78.5480330748  TIP3      9452            0.0000000000
     50609      9645  TIP3      OH2           -28.4853384927       -3.3886253238       76.4352547371  TIP3      9453            0.0000000000
     50610      9645  TIP3      H1            -28.3632004760       -4.1679137898       75.8778173132  TIP3      9453            0.0000000000
     50611      9645  TIP3      H2            -28.8754788008       -3.7978463561       77.2419786246  TIP3      9453            0.0000000000
     50612      9646  TIP3      OH2           -29.6786238091       -3.8810928859       78.8643381529  TIP3      9454            0.0000000000
     50613      9646  TIP3      H1            -29.5079964944       -4.3424296605       79.7023442617  TIP3      9454            0.0000000000
     50614      9646  TIP3      H2            -29.5589044857       -2.9644105150       79.1860242708  TIP3      9454            0.0000000000
     50615      9647  TIP3      OH2           -33.3334314209       -6.5978360487       79.2541640241  TIP3      9455            0.0000000000
     50616      9647  TIP3      H1            -33.8451174928       -6.2810653401       79.9970382962  TIP3      9455            0.0000000000
     50617      9647  TIP3      H2            -32.6347092399       -5.9144404195       79.1599004232  TIP3      9455            0.0000000000
     50618      9648  TIP3      OH2           -27.3531172447       -2.5091935568       78.9053048397  TIP3      9456            0.0000000000
     50619      9648  TIP3      H1            -27.9289606091       -1.9063482363       79.4195227411  TIP3      9456            0.0000000000
     50620      9648  TIP3      H2            -26.5931657173       -1.9182450398       78.7869880298  TIP3      9456            0.0000000000
     50621      9649  TIP3      OH2           -29.4970361104       -1.1684621908       79.6954579040  TIP3      9457            0.0000000000
     50622      9649  TIP3      H1            -29.4371565597       -0.3960300654       79.0764520472  TIP3      9457            0.0000000000
     50623      9649  TIP3      H2            -29.7487368947       -0.7375255298       80.5188301101  TIP3      9457            0.0000000000
     50624      9650  TIP3      OH2           -30.9701436767      -14.5848067240       78.9378684654  TIP3      9458            0.0000000000
     50625      9650  TIP3      H1            -31.1865257896      -13.7947703005       79.4569679626  TIP3      9458            0.0000000000
     50626      9650  TIP3      H2            -30.0830405465      -14.7462184162       79.3342692580  TIP3      9458            0.0000000000
     50627      9651  TIP3      OH2           -32.6329201149       -3.9428327445       78.2465931518  TIP3      9459            0.0000000000
     50628      9651  TIP3      H1            -31.9601877309       -3.3212447947       78.5602245828  TIP3      9459            0.0000000000
     50629      9651  TIP3      H2            -32.0725907295       -4.4496729388       77.6242363677  TIP3      9459            0.0000000000
     50630      9652  TIP3      OH2           -34.2822821243      -11.3250617330       77.3916843485  TIP3      9460            0.0000000000
     50631      9652  TIP3      H1            -34.2832321254      -10.3775220057       77.6343410682  TIP3      9460            0.0000000000
     50632      9652  TIP3      H2            -35.1834860556      -11.5148618169       77.1082455558  TIP3      9460            0.0000000000
     50633      9653  TIP3      OH2           -26.4551964721       -1.5179658783       76.5722579890  TIP3      9461            0.0000000000
     50634      9653  TIP3      H1            -27.1504851243       -2.1753283238       76.8264960045  TIP3      9461            0.0000000000
     50635      9653  TIP3      H2            -25.7486317411       -2.1248237704       76.3051948370  TIP3      9461            0.0000000000
     50636      9654  TIP3      OH2           -21.9062993450       -1.7748575322       76.7278273391  TIP3      9462            0.0000000000
     50637      9654  TIP3      H1            -21.6174885278       -2.5262918020       77.2667207981  TIP3      9462            0.0000000000
     50638      9654  TIP3      H2            -21.1207531815       -1.5760358507       76.1938277104  TIP3      9462            0.0000000000
     50639      9655  TIP3      OH2           -31.0311831485       -5.8552588793       76.6052592264  TIP3      9463            0.0000000000
     50640      9655  TIP3      H1            -30.8610077337       -6.6063683916       77.1921492813  TIP3      9463            0.0000000000
     50641      9655  TIP3      H2            -30.2736837277       -5.9433571391       75.9937330125  TIP3      9463            0.0000000000
     50642      9656  TIP3      OH2           -25.5674046103       -4.7528701885       76.3945029941  TIP3      9464            0.0000000000
     50643      9656  TIP3      H1            -25.8517689850       -4.6712609531       77.3185678360  TIP3      9464            0.0000000000
     50644      9656  TIP3      H2            -25.7880954888       -5.7012913822       76.2114511814  TIP3      9464            0.0000000000
     50645      9657  TIP3      OH2           -29.8285450497       -7.8571180660       78.9096237320  TIP3      9465            0.0000000000
     50646      9657  TIP3      H1            -30.2733873182       -8.3726545016       79.5999355123  TIP3      9465            0.0000000000
     50647      9657  TIP3      H2            -29.5137287984       -8.5400516486       78.2872353022  TIP3      9465            0.0000000000
     50648      9658  TIP3      OH2           -28.7491308288       -9.6932255638       77.2251929020  TIP3      9466            0.0000000000
     50649      9658  TIP3      H1            -28.8801414070       -9.7059146393       76.2557491473  TIP3      9466            0.0000000000
     50650      9658  TIP3      H2            -27.7775274361       -9.5676192782       77.3061657201  TIP3      9466            0.0000000000
     50651      9659  TIP3      OH2           -19.3931476921       -7.2384625067       76.6888688355  TIP3      9467            0.0000000000
     50652      9659  TIP3      H1            -19.5798642087       -7.6421308590       75.8183418856  TIP3      9467            0.0000000000
     50653      9659  TIP3      H2            -19.3089889543       -6.2843960802       76.4504415400  TIP3      9467            0.0000000000
     50654      9660  TIP3      OH2           -28.8797987134        1.0992211612       78.3452342298  TIP3      9468            0.0000000000
     50655      9660  TIP3      H1            -27.9037713465        1.1657565708       78.3845995257  TIP3      9468            0.0000000000
     50656      9660  TIP3      H2            -29.0452690369        1.6642900141       77.5706322031  TIP3      9468            0.0000000000
     50657      9661  TIP3      OH2           -35.3270809249       -4.3059515728       77.7623374080  TIP3      9469            0.0000000000
     50658      9661  TIP3      H1            -34.3733389414       -4.1888565680       77.9671095546  TIP3      9469            0.0000000000
     50659      9661  TIP3      H2            -35.2699565734       -4.9896277423       77.0769514390  TIP3      9469            0.0000000000
     50660      9662  TIP3      OH2           -18.1693974168       -8.5697978794       78.7513230218  TIP3      9470            0.0000000000
     50661      9662  TIP3      H1            -18.6659086476       -8.1386959344       78.0159250630  TIP3      9470            0.0000000000
     50662      9662  TIP3      H2            -18.1962452664       -7.8991647178       79.4720990638  TIP3      9470            0.0000000000
     50663      9663  TIP3      OH2           -19.8325631717      -11.2186376581       77.3926341255  TIP3      9471            0.0000000000
     50664      9663  TIP3      H1            -19.7760547360      -10.5774803056       76.6707420999  TIP3      9471            0.0000000000
     50665      9663  TIP3      H2            -20.0381196124      -12.0479368271       76.9093594275  TIP3      9471            0.0000000000
     50666      9664  TIP3      OH2           -20.6070473408      -13.7664544997       76.5510115289  TIP3      9472            0.0000000000
     50667      9664  TIP3      H1            -19.9983725025      -14.2222261167       77.1580170372  TIP3      9472            0.0000000000
     50668      9664  TIP3      H2            -21.4584350761      -14.1917147863       76.7350797786  TIP3      9472            0.0000000000
     50669      9665  TIP3      OH2           -18.5611603032      -14.9117539540       78.0910630329  TIP3      9473            0.0000000000
     50670      9665  TIP3      H1            -18.1196736073      -15.6434298757       77.6055236478  TIP3      9473            0.0000000000
     50671      9665  TIP3      H2            -17.8375529499      -14.2662784778       78.1904612227  TIP3      9473            0.0000000000
     50672      9666  TIP3      OH2           -34.9755029712      -16.8410325242       79.1050581812  TIP3      9474            0.0000000000
     50673      9666  TIP3      H1            -34.4783770241      -16.1785944104       78.6179862667  TIP3      9474            0.0000000000
     50674      9666  TIP3      H2            -35.5924013365      -16.3137178876       79.6256745314  TIP3      9474            0.0000000000
     50675      9667  TIP3      OH2           -33.2331409409      -14.9667067855       77.6698313130  TIP3      9475            0.0000000000
     50676      9667  TIP3      H1            -32.8224491377      -15.7374611952       77.2482535982  TIP3      9475            0.0000000000
     50677      9667  TIP3      H2            -32.6034424817      -14.7312679356       78.3807364914  TIP3      9475            0.0000000000
     50678      9668  TIP3      OH2           -26.2270653605        0.4198052675       78.4014831820  TIP3      9476            0.0000000000
     50679      9668  TIP3      H1            -25.2839361690        0.5951836597       78.2564884480  TIP3      9476            0.0000000000
     50680      9668  TIP3      H2            -26.4010922840       -0.1808241015       77.6462314290  TIP3      9476            0.0000000000
     50681      9669  TIP3      OH2           -33.2735052517        0.0384326238       77.1104533181  TIP3      9477            0.0000000000
     50682      9669  TIP3      H1            -33.5511402849        0.2584118453       78.0162993982  TIP3      9477            0.0000000000
     50683      9669  TIP3      H2            -32.4695276626       -0.5016734555       77.2610062382  TIP3      9477            0.0000000000
     50684      9670  TIP3      OH2            -7.1400266385       -9.7947494222       77.8135586054  TIP3      9478            0.0000000000
     50685      9670  TIP3      H1             -6.3826898929       -9.7094214207       78.4376292785  TIP3      9478            0.0000000000
     50686      9670  TIP3      H2             -6.7666532144      -10.4455798366       77.2043763543  TIP3      9478            0.0000000000
     50687      9671  TIP3      OH2            -4.9023163624       -9.1004081894       79.2551603349  TIP3      9479            0.0000000000
     50688      9671  TIP3      H1             -4.4864454726       -8.7989446316       80.0934224381  TIP3      9479            0.0000000000
     50689      9671  TIP3      H2             -4.5567201482       -8.4501969924       78.6169354304  TIP3      9479            0.0000000000
     50690      9672  TIP3      OH2            -1.1051814243      -17.1175121004       79.3041321077  TIP3      9480            0.0000000000
     50691      9672  TIP3      H1             -2.0439150133      -17.0450608058       79.5214483440  TIP3      9480            0.0000000000
     50692      9672  TIP3      H2             -0.9132779288      -16.2915169766       78.8348139850  TIP3      9480            0.0000000000
     50693      9673  TIP3      OH2             0.0207526819       -2.7737872548       77.5600828856  TIP3      9481            0.0000000000
     50694      9673  TIP3      H1              0.1415188776       -1.8477598808       77.8324484795  TIP3      9481            0.0000000000
     50695      9673  TIP3      H2              0.9451216096       -3.0695549019       77.6349958820  TIP3      9481            0.0000000000
     50696      9674  TIP3      OH2            -4.5541006791       -0.0094230843       78.3132187942  TIP3      9482            0.0000000000
     50697      9674  TIP3      H1             -4.1427104210       -0.7397845460       77.8030385823  TIP3      9482            0.0000000000
     50698      9674  TIP3      H2             -4.4669251237       -0.3126313775       79.2261611367  TIP3      9482            0.0000000000
     50699      9675  TIP3      OH2            -3.3315809465       -7.8586116648       77.1565244262  TIP3      9483            0.0000000000
     50700      9675  TIP3      H1             -3.4079220384       -8.0427426038       76.1860315747  TIP3      9483            0.0000000000
     50701      9675  TIP3      H2             -2.4918135826       -7.3852765271       77.1712231151  TIP3      9483            0.0000000000
     50702      9676  TIP3      OH2            -7.7821373230      -13.9803074282       77.6615112714  TIP3      9484            0.0000000000
     50703      9676  TIP3      H1             -8.0824475056      -13.9378057846       78.5761447405  TIP3      9484            0.0000000000
     50704      9676  TIP3      H2             -8.1039115929      -14.8558258951       77.3751882480  TIP3      9484            0.0000000000
     50705      9677  TIP3      OH2           -10.9495524886      -13.5452479103       76.8387268522  TIP3      9485            0.0000000000
     50706      9677  TIP3      H1            -11.4377476523      -13.9663497429       77.5751284708  TIP3      9485            0.0000000000
     50707      9677  TIP3      H2            -11.6569520188      -13.1171167214       76.3292480006  TIP3      9485            0.0000000000
     50708      9678  TIP3      OH2           -16.4709271866      -13.2376115807       79.1675627216  TIP3      9486            0.0000000000
     50709      9678  TIP3      H1            -15.8844878403      -12.5660859591       78.7481194856  TIP3      9486            0.0000000000
     50710      9678  TIP3      H2            -17.0945475656      -12.6033246746       79.5733425659  TIP3      9486            0.0000000000
     50711      9679  TIP3      OH2           -12.2819320598      -10.8345188561       78.2542093772  TIP3      9487            0.0000000000
     50712      9679  TIP3      H1            -12.8373087996      -11.1342834676       77.5113439866  TIP3      9487            0.0000000000
     50713      9679  TIP3      H2            -11.4834140512      -10.5641588449       77.7763865063  TIP3      9487            0.0000000000
     50714      9680  TIP3      OH2            -5.1090011559      -13.3705105628       78.4159912843  TIP3      9488            0.0000000000
     50715      9680  TIP3      H1             -6.0417292351      -13.2331193214       78.1794838201  TIP3      9488            0.0000000000
     50716      9680  TIP3      H2             -4.7598575831      -12.5074208262       78.6578109677  TIP3      9488            0.0000000000
     50717      9681  TIP3      OH2            -6.8402083628       -4.7839104615       79.1939962462  TIP3      9489            0.0000000000
     50718      9681  TIP3      H1             -7.1987717351       -3.9363095481       79.4907890305  TIP3      9489            0.0000000000
     50719      9681  TIP3      H2             -7.5504207884       -5.3984814287       79.4042744194  TIP3      9489            0.0000000000
     50720      9682  TIP3      OH2             0.7124824414      -11.3055306175       79.5918207564  TIP3      9490            0.0000000000
     50721      9682  TIP3      H1              0.0752799434      -11.6473389406       78.9259345400  TIP3      9490            0.0000000000
     50722      9682  TIP3      H2              0.6836606467      -10.3521816304       79.3619023599  TIP3      9490            0.0000000000
     50723      9683  TIP3      OH2           -15.6866819666       -8.5194047618       77.8587021450  TIP3      9491            0.0000000000
     50724      9683  TIP3      H1            -15.0888060877       -7.9198488434       78.3652746129  TIP3      9491            0.0000000000
     50725      9683  TIP3      H2            -16.5677346032       -8.2280000605       78.1472380270  TIP3      9491            0.0000000000
     50726      9684  TIP3      OH2            -3.7103493355       -4.5499613452       77.9414527431  TIP3      9492            0.0000000000
     50727      9684  TIP3      H1             -3.4355263369       -4.8484212851       78.8167828054  TIP3      9492            0.0000000000
     50728      9684  TIP3      H2             -4.6733692480       -4.6204479038       78.0690181442  TIP3      9492            0.0000000000
     50729      9685  TIP3      OH2             0.6890724947       -0.1059772862       78.1980415278  TIP3      9493            0.0000000000
     50730      9685  TIP3      H1              1.4513860964        0.4999794966       78.1277939953  TIP3      9493            0.0000000000
     50731      9685  TIP3      H2              0.0113313394        0.5089481547       78.5369441793  TIP3      9493            0.0000000000
     50732      9686  TIP3      OH2            -9.6330057158       -3.3917027456       76.4348297788  TIP3      9494            0.0000000000
     50733      9686  TIP3      H1             -9.5084635844       -4.1679142915       75.8750396885  TIP3      9494            0.0000000000
     50734      9686  TIP3      H2            -10.0187213577       -3.8002019468       77.2433045041  TIP3      9494            0.0000000000
     50735      9687  TIP3      OH2           -10.8093572472       -3.8792323600       78.8637544123  TIP3      9495            0.0000000000
     50736      9687  TIP3      H1            -10.6299377213       -4.3418881073       79.6980429546  TIP3      9495            0.0000000000
     50737      9687  TIP3      H2            -10.7013425164       -2.9625982891       79.1879456346  TIP3      9495            0.0000000000
     50738      9688  TIP3      OH2           -14.4824435766       -6.5703515222       79.2481410539  TIP3      9496            0.0000000000
     50739      9688  TIP3      H1            -14.9890792752       -6.2841075855       80.0061044004  TIP3      9496            0.0000000000
     50740      9688  TIP3      H2            -13.7618782055       -5.9125064207       79.1635325878  TIP3      9496            0.0000000000
     50741      9689  TIP3      OH2            -8.4896645148       -2.5023576860       78.9050260950  TIP3      9497            0.0000000000
     50742      9689  TIP3      H1             -9.0712860606       -1.9043010475       79.4187821938  TIP3      9497            0.0000000000
     50743      9689  TIP3      H2             -7.7397373843       -1.8960974159       78.7736591493  TIP3      9497            0.0000000000
     50744      9690  TIP3      OH2           -10.6336961700       -1.1618649760       79.6888932415  TIP3      9498            0.0000000000
     50745      9690  TIP3      H1            -10.5826224368       -0.3871408276       79.0736465430  TIP3      9498            0.0000000000
     50746      9690  TIP3      H2            -10.8890584652       -0.7404448855       80.5171855774  TIP3      9498            0.0000000000
     50747      9691  TIP3      OH2           -12.1200889735      -14.6314483361       79.0020032424  TIP3      9499            0.0000000000
     50748      9691  TIP3      H1            -12.3425722298      -13.8013514192       79.4409470127  TIP3      9499            0.0000000000
     50749      9691  TIP3      H2            -11.2190734032      -14.7451394958       79.3397665012  TIP3      9499            0.0000000000
     50750      9692  TIP3      OH2           -13.7351453310       -3.9702246700       78.2555730943  TIP3      9500            0.0000000000
     50751      9692  TIP3      H1            -13.0713684150       -3.3432690582       78.5664933034  TIP3      9500            0.0000000000
     50752      9692  TIP3      H2            -13.1966868126       -4.4556811512       77.6058556055  TIP3      9500            0.0000000000
     50753      9693  TIP3      OH2           -15.4068722491      -11.3127144532       77.4235513227  TIP3      9501            0.0000000000
     50754      9693  TIP3      H1            -15.4252653596      -10.3642307802       77.6592777021  TIP3      9501            0.0000000000
     50755      9693  TIP3      H2            -16.2979478450      -11.5149728622       77.1457259372  TIP3      9501            0.0000000000
     50756      9694  TIP3      OH2            -7.6070495163       -1.5235825556       76.5680798108  TIP3      9502            0.0000000000
     50757      9694  TIP3      H1             -8.2934449548       -2.1797167185       76.8269632744  TIP3      9502            0.0000000000
     50758      9694  TIP3      H2             -6.8832342301       -2.1061179859       76.3027944506  TIP3      9502            0.0000000000
     50759      9695  TIP3      OH2            -3.0484945994       -1.7801189291       76.7349214887  TIP3      9503            0.0000000000
     50760      9695  TIP3      H1             -2.7563600040       -2.5323134426       77.2668649515  TIP3      9503            0.0000000000
     50761      9695  TIP3      H2             -2.2702359737       -1.5745364405       76.1915216243  TIP3      9503            0.0000000000
     50762      9696  TIP3      OH2           -12.1709171028       -5.8562810424       76.6096578542  TIP3      9504            0.0000000000
     50763      9696  TIP3      H1            -12.0034896097       -6.6090307933       77.1983763480  TIP3      9504            0.0000000000
     50764      9696  TIP3      H2            -11.4167583001       -5.9494258606       75.9942846169  TIP3      9504            0.0000000000
     50765      9697  TIP3      OH2            -6.7114860638       -4.7536256342       76.3940642076  TIP3      9505            0.0000000000
     50766      9697  TIP3      H1             -6.9952997241       -4.6712672558       77.3184976154  TIP3      9505            0.0000000000
     50767      9697  TIP3      H2             -6.9322289299       -5.7021539482       76.2122611961  TIP3      9505            0.0000000000
     50768      9698  TIP3      OH2           -10.9737327108       -7.8611057873       78.9136520513  TIP3      9506            0.0000000000
     50769      9698  TIP3      H1            -11.4228850541       -8.3785575101       79.5994855412  TIP3      9506            0.0000000000
     50770      9698  TIP3      H2            -10.6688879176       -8.5440378612       78.2841975976  TIP3      9506            0.0000000000
     50771      9699  TIP3      OH2            -9.8785404878       -9.6557970928       77.2312777052  TIP3      9507            0.0000000000
     50772      9699  TIP3      H1            -10.0190104587       -9.7124792570       76.2643011783  TIP3      9507            0.0000000000
     50773      9699  TIP3      H2             -8.9051148227       -9.5645693741       77.3060988181  TIP3      9507            0.0000000000
     50774      9700  TIP3      OH2            -0.5370825256       -7.2388614876       76.6890091471  TIP3      9508            0.0000000000
     50775      9700  TIP3      H1             -0.7234857721       -7.6423778560       75.8181632625  TIP3      9508            0.0000000000
     50776      9700  TIP3      H2             -0.4527149118       -6.2845631975       76.4506601273  TIP3      9508            0.0000000000
     50777      9701  TIP3      OH2           -10.0177583393        1.0856148518       78.3556781440  TIP3      9509            0.0000000000
     50778      9701  TIP3      H1             -9.0412328883        1.1628199469       78.3781159416  TIP3      9509            0.0000000000
     50779      9701  TIP3      H2            -10.1720424253        1.6804124305       77.5929090841  TIP3      9509            0.0000000000
     50780      9702  TIP3      OH2           -16.5072147049       -4.3374091615       77.7599338257  TIP3      9510            0.0000000000
     50781      9702  TIP3      H1            -15.5480327589       -4.2267837380       77.9549897008  TIP3      9510            0.0000000000
     50782      9702  TIP3      H2            -16.4429810742       -4.9926555191       77.0338471748  TIP3      9510            0.0000000000
     50783      9703  TIP3      OH2             0.6874016782       -8.5697325139       78.7510060422  TIP3      9511            0.0000000000
     50784      9703  TIP3      H1              0.1900297384       -8.1387267900       78.0158877722  TIP3      9511            0.0000000000
     50785      9703  TIP3      H2              0.6599394380       -7.8992581048       79.4719674765  TIP3      9511            0.0000000000
     50786      9704  TIP3      OH2            -0.9769892781      -11.2186093410       77.3908552319  TIP3      9512            0.0000000000
     50787      9704  TIP3      H1             -0.9185623227      -10.5777162854       76.6698684012  TIP3      9512            0.0000000000
     50788      9704  TIP3      H2             -1.1813204038      -12.0482322448       76.9088772558  TIP3      9512            0.0000000000
     50789      9705  TIP3      OH2            -1.7498751179      -13.7646625237       76.5508814913  TIP3      9513            0.0000000000
     50790      9705  TIP3      H1             -1.1417615412      -14.2218691207       77.1578057794  TIP3      9513            0.0000000000
     50791      9705  TIP3      H2             -2.5985236977      -14.1966970097       76.7270787264  TIP3      9513            0.0000000000
     50792      9706  TIP3      OH2             0.2944357234      -14.9112925151       78.0902845901  TIP3      9514            0.0000000000
     50793      9706  TIP3      H1              0.7358184052      -15.6438923905       77.6058408528  TIP3      9514            0.0000000000
     50794      9706  TIP3      H2              1.0184991049      -14.2663668740       78.1903286604  TIP3      9514            0.0000000000
     50795      9707  TIP3      OH2           -16.1335500843      -16.8593075170       79.0882613864  TIP3      9515            0.0000000000
     50796      9707  TIP3      H1            -15.6231427870      -16.2137785190       78.5800643651  TIP3      9515            0.0000000000
     50797      9707  TIP3      H2            -16.6587025318      -16.2821850810       79.6350334195  TIP3      9515            0.0000000000
     50798      9708  TIP3      OH2           -14.2898833349      -14.9329643795       77.5653677183  TIP3      9516            0.0000000000
     50799      9708  TIP3      H1            -13.7645677902      -15.5856938631       77.0762714629  TIP3      9516            0.0000000000
     50800      9708  TIP3      H2            -13.6645034874      -14.6802622030       78.2757934517  TIP3      9516            0.0000000000
     50801      9709  TIP3      OH2            -7.3589790053        0.3525257122       78.4460330819  TIP3      9517            0.0000000000
     50802      9709  TIP3      H1             -6.4540552281        0.6396658632       78.2267497778  TIP3      9517            0.0000000000
     50803      9709  TIP3      H2             -7.5467075547       -0.1576617531       77.6308374915  TIP3      9517            0.0000000000
     50804      9710  TIP3      OH2           -14.3451943522        0.0828490549       77.0727528408  TIP3      9518            0.0000000000
     50805      9710  TIP3      H1            -14.6568897860        0.2791986966       77.9737753559  TIP3      9518            0.0000000000
     50806      9710  TIP3      H2            -13.6204465467       -0.5422781269       77.2606721781  TIP3      9518            0.0000000000
     50807      9711  TIP3      OH2            11.7247236293       -9.7771777664       77.8000915551  TIP3      9519            0.0000000000
     50808      9711  TIP3      H1             12.4721246990       -9.7067336900       78.4380870729  TIP3      9519            0.0000000000
     50809      9711  TIP3      H2             12.0911303791      -10.4441725431       77.2032397983  TIP3      9519            0.0000000000
     50810      9712  TIP3      OH2            13.9540026505       -9.0979559797       79.2511235028  TIP3      9520            0.0000000000
     50811      9712  TIP3      H1             14.3695355028       -8.7987906253       80.0904974837  TIP3      9520            0.0000000000
     50812      9712  TIP3      H2             14.3003040070       -8.4490523362       78.6115927955  TIP3      9520            0.0000000000
     50813      9713  TIP3      OH2            17.7484506376      -17.1255273985       79.2967860150  TIP3      9521            0.0000000000
     50814      9713  TIP3      H1             16.8111901595      -17.0374470294       79.5293133191  TIP3      9521            0.0000000000
     50815      9713  TIP3      H2             17.9472779012      -16.2961609554       78.8352905731  TIP3      9521            0.0000000000
     50816      9714  TIP3      OH2            18.8811726000       -2.7760225938       77.5607292860  TIP3      9522            0.0000000000
     50817      9714  TIP3      H1             19.0115178103       -1.8543225376       77.8413541493  TIP3      9522            0.0000000000
     50818      9714  TIP3      H2             19.8039728489       -3.0745445175       77.6357584771  TIP3      9522            0.0000000000
     50819      9715  TIP3      OH2            14.2944743719       -0.0219698357       78.3021048286  TIP3      9523            0.0000000000
     50820      9715  TIP3      H1             14.7244756135       -0.7583691515       77.8161695145  TIP3      9523            0.0000000000
     50821      9715  TIP3      H2             14.3954114885       -0.3122372845       79.2228739997  TIP3      9523            0.0000000000
     50822      9716  TIP3      OH2            15.5239015108       -7.8598182378       77.1612279971  TIP3      9524            0.0000000000
     50823      9716  TIP3      H1             15.4443414090       -8.0590002289       76.1931551020  TIP3      9524            0.0000000000
     50824      9716  TIP3      H2             16.3636656455       -7.3857451811       77.1684598661  TIP3      9524            0.0000000000
     50825      9717  TIP3      OH2            11.0453394992      -13.9696371951       77.6614126566  TIP3      9525            0.0000000000
     50826      9717  TIP3      H1             10.7938802468      -13.9405830258       78.5939677768  TIP3      9525            0.0000000000
     50827      9717  TIP3      H2             10.7604700303      -14.8615007960       77.3979491833  TIP3      9525            0.0000000000
     50828      9718  TIP3      OH2             7.9002158915      -13.5497337649       76.8295843397  TIP3      9526            0.0000000000
     50829      9718  TIP3      H1              7.4142409505      -13.9696274320       77.5700522196  TIP3      9526            0.0000000000
     50830      9718  TIP3      H2              7.1934328059      -13.1168041501       76.3282899387  TIP3      9526            0.0000000000
     50831      9719  TIP3      OH2             2.3837813816      -13.2379226763       79.1680558882  TIP3      9527            0.0000000000
     50832      9719  TIP3      H1              2.9709038098      -12.5666341169       78.7483323370  TIP3      9527            0.0000000000
     50833      9719  TIP3      H2              1.7608609407      -12.6027351543       79.5734270963  TIP3      9527            0.0000000000
     50834      9720  TIP3      OH2             6.5788956903      -10.8422819563       78.2550942661  TIP3      9528            0.0000000000
     50835      9720  TIP3      H1              6.0168473188      -11.1345003671       77.5149152074  TIP3      9528            0.0000000000
     50836      9720  TIP3      H2              7.3635860318      -10.5536080658       77.7657542657  TIP3      9528            0.0000000000
     50837      9721  TIP3      OH2            13.7757471759      -13.3441383442       78.3446546952  TIP3      9529            0.0000000000
     50838      9721  TIP3      H1             12.8158385610      -13.2460041453       78.2263948206  TIP3      9529            0.0000000000
     50839      9721  TIP3      H2             14.0892434480      -12.5137141681       78.7082814816  TIP3      9529            0.0000000000
     50840      9722  TIP3      OH2            12.0158696811       -4.7836226026       79.1943724161  TIP3      9530            0.0000000000
     50841      9722  TIP3      H1             11.6557219528       -3.9370136775       79.4907640513  TIP3      9530            0.0000000000
     50842      9722  TIP3      H2             11.3057537358       -5.3989193739       79.4037118160  TIP3      9530            0.0000000000
     50843      9723  TIP3      OH2            19.5691992855      -11.3065983810       79.5929585120  TIP3      9531            0.0000000000
     50844      9723  TIP3      H1             18.9333006978      -11.6476254843       78.9225555352  TIP3      9531            0.0000000000
     50845      9723  TIP3      H2             19.5395439024      -10.3528694526       79.3625579974  TIP3      9531            0.0000000000
     50846      9724  TIP3      OH2             3.1707056504       -8.5099672079       77.8504955049  TIP3      9532            0.0000000000
     50847      9724  TIP3      H1              3.7656981118       -7.9073388495       78.3577101840  TIP3      9532            0.0000000000
     50848      9724  TIP3      H2              2.2888055621       -8.2283454976       78.1462657890  TIP3      9532            0.0000000000
     50849      9725  TIP3      OH2            15.1454252684       -4.5492943671       77.9414609594  TIP3      9533            0.0000000000
     50850      9725  TIP3      H1             15.4203906639       -4.8481825449       78.8165205507  TIP3      9533            0.0000000000
     50851      9725  TIP3      H2             14.1818074169       -4.6203239429       78.0660432712  TIP3      9533            0.0000000000
     50852      9726  TIP3      OH2            19.5383597148       -0.1051239671       78.1879815743  TIP3      9534            0.0000000000
     50853      9726  TIP3      H1             20.3034738313        0.4977644618       78.1273112344  TIP3      9534            0.0000000000
     50854      9726  TIP3      H2             18.8701214833        0.5077531982       78.5432792628  TIP3      9534            0.0000000000
     50855      9727  TIP3      OH2             9.2505136088       -3.3970634237       76.4610775040  TIP3      9535            0.0000000000
     50856      9727  TIP3      H1              9.3458082329       -4.1620259422       75.8787278160  TIP3      9535            0.0000000000
     50857      9727  TIP3      H2              8.8348297935       -3.8078910194       77.2519765842  TIP3      9535            0.0000000000
     50858      9728  TIP3      OH2             8.0501129217       -3.8814499129       78.8689709841  TIP3      9536            0.0000000000
     50859      9728  TIP3      H1              8.2264245934       -4.3425101539       79.7013741208  TIP3      9536            0.0000000000
     50860      9728  TIP3      H2              8.1544399801       -2.9631962204       79.1880262394  TIP3      9536            0.0000000000
     50861      9729  TIP3      OH2             4.3729732448       -6.5708406014       79.2487875419  TIP3      9537            0.0000000000
     50862      9729  TIP3      H1              3.8666705404       -6.2843501767       80.0066297444  TIP3      9537            0.0000000000
     50863      9729  TIP3      H2              5.0937144546       -5.9133946691       79.1632767412  TIP3      9537            0.0000000000
     50864      9730  TIP3      OH2            10.3609955785       -2.5088543060       78.9082706565  TIP3      9538            0.0000000000
     50865      9730  TIP3      H1              9.7821674445       -1.9046804703       79.4181406355  TIP3      9538            0.0000000000
     50866      9730  TIP3      H2             11.1191515979       -1.9171558752       78.7866896986  TIP3      9538            0.0000000000
     50867      9731  TIP3      OH2             8.2239881766       -1.1648224889       79.6968484220  TIP3      9539            0.0000000000
     50868      9731  TIP3      H1              8.2721239404       -0.3929083037       79.0770555339  TIP3      9539            0.0000000000
     50869      9731  TIP3      H2              7.9610129177       -0.7379745246       80.5187711843  TIP3      9539            0.0000000000
     50870      9732  TIP3      OH2             6.7467746880      -14.6406487025       79.0113420878  TIP3      9540            0.0000000000
     50871      9732  TIP3      H1              6.5142708543      -13.8061268741       79.4395047564  TIP3      9540            0.0000000000
     50872      9732  TIP3      H2              7.6489847943      -14.7419036974       79.3555698295  TIP3      9540            0.0000000000
     50873      9733  TIP3      OH2             5.1211343535       -3.9708875596       78.2565419432  TIP3      9541            0.0000000000
     50874      9733  TIP3      H1              5.7847448020       -3.3436806772       78.5651862826  TIP3      9541            0.0000000000
     50875      9733  TIP3      H2              5.6591154852       -4.4581723409       77.6063571109  TIP3      9541            0.0000000000
     50876      9734  TIP3      OH2             3.4448063053      -11.3192283856       77.4289696960  TIP3      9542            0.0000000000
     50877      9734  TIP3      H1              3.4318200741      -10.3671764300       77.6558261368  TIP3      9542            0.0000000000
     50878      9734  TIP3      H2              2.5555699771      -11.5140812904       77.1436040447  TIP3      9542            0.0000000000
     50879      9735  TIP3      OH2            11.2568890022       -1.5177926909       76.5722476968  TIP3      9543            0.0000000000
     50880      9735  TIP3      H1             10.5619549385       -2.1766951851       76.8264036633  TIP3      9543            0.0000000000
     50881      9735  TIP3      H2             11.9636137632       -2.1243654474       76.3046891554  TIP3      9543            0.0000000000
     50882      9736  TIP3      OH2            15.8057718857       -1.7744690296       76.7276389104  TIP3      9544            0.0000000000
     50883      9736  TIP3      H1             16.0943710717       -2.5265255531       77.2663049810  TIP3      9544            0.0000000000
     50884      9736  TIP3      H2             16.5913728813       -1.5756742842       76.1935986892  TIP3      9544            0.0000000000
     50885      9737  TIP3      OH2             6.6893697192       -5.8483316639       76.6121569006  TIP3      9545            0.0000000000
     50886      9737  TIP3      H1              6.8447112646       -6.6084396124       77.1899580713  TIP3      9545            0.0000000000
     50887      9737  TIP3      H2              7.4382658441       -5.9484001278       75.9912827497  TIP3      9545            0.0000000000
     50888      9738  TIP3      OH2            12.1462967580       -4.7532425110       76.3947213223  TIP3      9546            0.0000000000
     50889      9738  TIP3      H1             11.8591223093       -4.6711848467       77.3179449852  TIP3      9546            0.0000000000
     50890      9738  TIP3      H2             11.9236127878       -5.7011315146       76.2112828468  TIP3      9546            0.0000000000
     50891      9739  TIP3      OH2             7.8822101298       -7.8625155987       78.9130795902  TIP3      9547            0.0000000000
     50892      9739  TIP3      H1              7.4333612874       -8.3783977072       79.6002003061  TIP3      9547            0.0000000000
     50893      9739  TIP3      H2              8.1890269144       -8.5466136180       78.2858381641  TIP3      9547            0.0000000000
     50894      9740  TIP3      OH2             8.9782605694       -9.6602605252       77.2370729331  TIP3      9548            0.0000000000
     50895      9740  TIP3      H1              8.8357131195       -9.7108630491       76.2700547584  TIP3      9548            0.0000000000
     50896      9740  TIP3      H2              9.9511835457       -9.5605294453       77.3062512515  TIP3      9548            0.0000000000
     50897      9741  TIP3      OH2            18.3191215568       -7.2384636695       76.6889188140  TIP3      9549            0.0000000000
     50898      9741  TIP3      H1             18.1319340186       -7.6422044355       75.8185424460  TIP3      9549            0.0000000000
     50899      9741  TIP3      H2             18.4029747299       -6.2840865914       76.4506391612  TIP3      9549            0.0000000000
     50900      9742  TIP3      OH2             8.8298251766        1.1002019247       78.3468699431  TIP3      9550            0.0000000000
     50901      9742  TIP3      H1              9.8080049129        1.1651274013       78.3846609777  TIP3      9550            0.0000000000
     50902      9742  TIP3      H2              8.6666003761        1.6623917609       77.5689361205  TIP3      9550            0.0000000000
     50903      9743  TIP3      OH2             2.3484547958       -4.3371265211       77.7605111676  TIP3      9551            0.0000000000
     50904      9743  TIP3      H1              3.3075619895       -4.2270400052       77.9581827047  TIP3      9551            0.0000000000
     50905      9743  TIP3      H2              2.4137617871       -4.9925785281       77.0340346062  TIP3      9551            0.0000000000
     50906      9744  TIP3      OH2            19.5429223013       -8.5695903435       78.7517326394  TIP3      9552            0.0000000000
     50907      9744  TIP3      H1             19.0460482399       -8.1387156759       78.0164582150  TIP3      9552            0.0000000000
     50908      9744  TIP3      H2             19.5157131064       -7.8987844496       79.4721948353  TIP3      9552            0.0000000000
     50909      9745  TIP3      OH2            17.8795706875      -11.2187370147       77.3933014145  TIP3      9553            0.0000000000
     50910      9745  TIP3      H1             17.9359112107      -10.5777258412       76.6711729967  TIP3      9553            0.0000000000
     50911      9745  TIP3      H2             17.6739731641      -12.0476937711       76.9095419704  TIP3      9553            0.0000000000
     50912      9746  TIP3      OH2            17.1048973930      -13.7665028041       76.5511723430  TIP3      9554            0.0000000000
     50913      9746  TIP3      H1             17.7135901111      -14.2222745670       77.1581548366  TIP3      9554            0.0000000000
     50914      9746  TIP3      H2             16.2533587923      -14.1917827589       76.7348434004  TIP3      9554            0.0000000000
     50915      9747  TIP3      OH2            19.1506625390      -14.9117102880       78.0911547661  TIP3      9555            0.0000000000
     50916      9747  TIP3      H1             19.5919192383      -15.6436746622       77.6055218808  TIP3      9555            0.0000000000
     50917      9747  TIP3      H2             19.8744777150      -14.2664091323       78.1904225527  TIP3      9555            0.0000000000
     50918      9748  TIP3      OH2             2.7237487598      -16.8605639069       79.0872153078  TIP3      9556            0.0000000000
     50919      9748  TIP3      H1              3.2340234424      -16.2142439260       78.5799888689  TIP3      9556            0.0000000000
     50920      9748  TIP3      H2              2.1980350151      -16.2838014678       79.6338823613  TIP3      9556            0.0000000000
     50921      9749  TIP3      OH2             4.5676625534      -14.9318002189       77.5664799974  TIP3      9557            0.0000000000
     50922      9749  TIP3      H1              5.0908442058      -15.5845382235       77.0758110158  TIP3      9557            0.0000000000
     50923      9749  TIP3      H2              5.1922780383      -14.6801241331       78.2769138337  TIP3      9557            0.0000000000
     50924      9750  TIP3      OH2            11.4848819432        0.4197426759       78.4020605018  TIP3      9558            0.0000000000
     50925      9750  TIP3      H1             12.4279437805        0.5951572501       78.2566045487  TIP3      9558            0.0000000000
     50926      9750  TIP3      H2             11.3111400724       -0.1806962361       77.6463396619  TIP3      9558            0.0000000000
     50927      9751  TIP3      OH2             4.4799891310        0.0707628081       77.1034450693  TIP3      9559            0.0000000000
     50928      9751  TIP3      H1              4.1906705596        0.2708933255       78.0081098670  TIP3      9559            0.0000000000
     50929      9751  TIP3      H2              5.2351230862       -0.5328862539       77.2437257190  TIP3      9559            0.0000000000
     50930      9752  TIP3      OH2            30.5794196059       -9.7740937019       77.7949694663  TIP3      9560            0.0000000000
     50931      9752  TIP3      H1             31.3323920648       -9.7089132067       78.4250185513  TIP3      9560            0.0000000000
     50932      9752  TIP3      H2             30.9424915599      -10.4441857346       77.2026637468  TIP3      9560            0.0000000000
     50933      9753  TIP3      OH2            32.7655944729       -9.1000727545       79.2941570084  TIP3      9561            0.0000000000
     50934      9753  TIP3      H1             33.2225005900       -8.8062295694       80.1116446854  TIP3      9561            0.0000000000
     50935      9753  TIP3      H2             33.1228670218       -8.4674325515       78.6422860523  TIP3      9561            0.0000000000
     50936      9754  TIP3      OH2            33.5312027542        0.1528549752       77.7615696090  TIP3      9562            0.0000000000
     50937      9754  TIP3      H1             33.6077366313       -0.8075217387       77.5834915945  TIP3      9562            0.0000000000
     50938      9754  TIP3      H2             33.3283850344       -0.0040755762       78.7195768031  TIP3      9562            0.0000000000
     50939      9755  TIP3      OH2            34.3810682912       -7.8858364749       77.1720693719  TIP3      9563            0.0000000000
     50940      9755  TIP3      H1             34.3119759407       -8.0848565831       76.2095856451  TIP3      9563            0.0000000000
     50941      9755  TIP3      H2             35.1856952751       -7.3662699675       77.1854318672  TIP3      9563            0.0000000000
     50942      9756  TIP3      OH2            29.9056730105      -13.9698617539       77.6623956218  TIP3      9564            0.0000000000
     50943      9756  TIP3      H1             29.6496580278      -13.9403661995       78.5940130623  TIP3      9564            0.0000000000
     50944      9756  TIP3      H2             29.6181223224      -14.8597060743       77.3973868204  TIP3      9564            0.0000000000
     50945      9757  TIP3      OH2            26.7558180291      -13.5507026352       76.8301075968  TIP3      9565            0.0000000000
     50946      9757  TIP3      H1             26.2692369077      -13.9702789853       77.5700516925  TIP3      9565            0.0000000000
     50947      9757  TIP3      H2             26.0501537982      -13.1165962118       76.3280475570  TIP3      9565            0.0000000000
     50948      9758  TIP3      OH2            21.2397421274      -13.2379346685       79.1672509175  TIP3      9566            0.0000000000
     50949      9758  TIP3      H1             21.8270287481      -12.5666727510       78.7486044472  TIP3      9566            0.0000000000
     50950      9758  TIP3      H2             20.6167441651      -12.6032348356       79.5734738943  TIP3      9566            0.0000000000
     50951      9759  TIP3      OH2            25.4355073240      -10.8421554328       78.2550328931  TIP3      9567            0.0000000000
     50952      9759  TIP3      H1             24.8735108087      -11.1363961622       77.5157266413  TIP3      9567            0.0000000000
     50953      9759  TIP3      H2             26.2197374837      -10.5533140190       77.7648463959  TIP3      9567            0.0000000000
     50954      9760  TIP3      OH2            32.6531814570      -13.3401004286       78.3257592144  TIP3      9568            0.0000000000
     50955      9760  TIP3      H1             31.6891343890      -13.2748853255       78.2143526406  TIP3      9568            0.0000000000
     50956      9760  TIP3      H2             32.9002207900      -12.5021883604       78.7121225295  TIP3      9568            0.0000000000
     50957      9761  TIP3      OH2            30.8715993253       -4.7866044086       79.2105378094  TIP3      9569            0.0000000000
     50958      9761  TIP3      H1             30.5456569637       -3.9154107637       79.4780815945  TIP3      9569            0.0000000000
     50959      9761  TIP3      H2             30.1471661292       -5.3788327389       79.4191187380  TIP3      9569            0.0000000000
     50960      9762  TIP3      OH2            22.0255238749       -8.5188973165       77.8586215429  TIP3      9570            0.0000000000
     50961      9762  TIP3      H1             22.6229435275       -7.9181677963       78.3642816403  TIP3      9570            0.0000000000
     50962      9762  TIP3      H2             21.1442335524       -8.2281102555       78.1472393206  TIP3      9570            0.0000000000
     50963      9763  TIP3      OH2            33.9592853733       -4.5637773219       77.9431257087  TIP3      9571            0.0000000000
     50964      9763  TIP3      H1             34.2543991726       -4.8337494595       78.8140437360  TIP3      9571            0.0000000000
     50965      9763  TIP3      H2             33.0031826847       -4.6110194016       78.0727942178  TIP3      9571            0.0000000000
     50966      9764  TIP3      OH2            28.0642722910       -3.3940907339       76.4188727865  TIP3      9572            0.0000000000
     50967      9764  TIP3      H1             28.2078769284       -4.1762607966       75.8768675484  TIP3      9572            0.0000000000
     50968      9764  TIP3      H2             27.6957952861       -3.7951037672       77.2393720449  TIP3      9572            0.0000000000
     50969      9765  TIP3      OH2            26.9023662111       -3.8768136290       78.8673990852  TIP3      9573            0.0000000000
     50970      9765  TIP3      H1             27.0733044093       -4.3415562093       79.6999467834  TIP3      9573            0.0000000000
     50971      9765  TIP3      H2             27.0212440419       -2.9571026904       79.1856473170  TIP3      9573            0.0000000000
     50972      9766  TIP3      OH2            23.2303048284       -6.5703589308       79.2484474919  TIP3      9574            0.0000000000
     50973      9766  TIP3      H1             22.7229953662       -6.2839636645       80.0057604293  TIP3      9574            0.0000000000
     50974      9766  TIP3      H2             23.9501567086       -5.9119119229       79.1630750029  TIP3      9574            0.0000000000
     50975      9767  TIP3      OH2            29.2227272383       -2.5437813362       78.7369632958  TIP3      9575            0.0000000000
     50976      9767  TIP3      H1             28.6977095619       -1.9646794696       79.3351380159  TIP3      9575            0.0000000000
     50977      9767  TIP3      H2             30.0200058516       -1.9919916359       78.7669473499  TIP3      9575            0.0000000000
     50978      9768  TIP3      OH2            27.0048299282       -1.1779426376       79.6707226468  TIP3      9576            0.0000000000
     50979      9768  TIP3      H1             27.1574676708       -0.3978773714       79.0811500949  TIP3      9576            0.0000000000
     50980      9768  TIP3      H2             26.8608992140       -0.7422943205       80.5183145856  TIP3      9576            0.0000000000
     50981      9769  TIP3      OH2            25.6021977568      -14.6413183852       79.0121842361  TIP3      9577            0.0000000000
     50982      9769  TIP3      H1             25.3701860404      -13.8062040641       79.4395818188  TIP3      9577            0.0000000000
     50983      9769  TIP3      H2             26.5053028490      -14.7421749589       79.3541310428  TIP3      9577            0.0000000000
     50984      9770  TIP3      OH2            23.9792433639       -3.9684127149       78.2586613768  TIP3      9578            0.0000000000
     50985      9770  TIP3      H1             24.6476508030       -3.3439330262       78.5688275005  TIP3      9578            0.0000000000
     50986      9770  TIP3      H2             24.5111615026       -4.4558946955       77.6044125505  TIP3      9578            0.0000000000
     50987      9771  TIP3      OH2            22.3052253257      -11.3125326522       77.4234281103  TIP3      9579            0.0000000000
     50988      9771  TIP3      H1             22.2862581898      -10.3640872020       77.6592139976  TIP3      9579            0.0000000000
     50989      9771  TIP3      H2             21.4140889540      -11.5150250127       77.1456499618  TIP3      9579            0.0000000000
     50990      9772  TIP3      OH2            30.1210965438       -1.5117468823       76.5212182887  TIP3      9580            0.0000000000
     50991      9772  TIP3      H1             29.4437791413       -2.1589680380       76.8510687211  TIP3      9580            0.0000000000
     50992      9772  TIP3      H2             30.8521301771       -2.1175398829       76.3479262188  TIP3      9580            0.0000000000
     50993      9773  TIP3      OH2            34.6202733277       -1.9131385189       76.6820296927  TIP3      9581            0.0000000000
     50994      9773  TIP3      H1             34.9765246912       -2.5463081781       77.3123372801  TIP3      9581            0.0000000000
     50995      9773  TIP3      H2             35.4123465694       -1.5971887860       76.2077709806  TIP3      9581            0.0000000000
     50996      9774  TIP3      OH2            25.5419071759       -5.8560109322       76.6137748584  TIP3      9582            0.0000000000
     50997      9774  TIP3      H1             25.7104855916       -6.6104467062       77.1991052520  TIP3      9582            0.0000000000
     50998      9774  TIP3      H2             26.2935472929       -5.9472917772       75.9947275366  TIP3      9582            0.0000000000
     50999      9775  TIP3      OH2            30.9829214296       -4.7662110662       76.3807553523  TIP3      9583            0.0000000000
     51000      9775  TIP3      H1             30.7180396314       -4.6589343451       77.3109536998  TIP3      9583            0.0000000000
     51001      9775  TIP3      H2             30.7629860907       -5.7160230819       76.2145367774  TIP3      9583            0.0000000000
     51002      9776  TIP3      OH2            26.7378420061       -7.8631807084       78.9129456629  TIP3      9584            0.0000000000
     51003      9776  TIP3      H1             26.2893461697       -8.3788520864       79.6002464729  TIP3      9584            0.0000000000
     51004      9776  TIP3      H2             27.0458229093       -8.5464757597       78.2854213041  TIP3      9584            0.0000000000
     51005      9777  TIP3      OH2            27.8354320994       -9.6568451378       77.2301545191  TIP3      9585            0.0000000000
     51006      9777  TIP3      H1             27.6978152743       -9.7096620758       76.2621914398  TIP3      9585            0.0000000000
     51007      9777  TIP3      H2             28.8076301942       -9.5602563863       77.3041918501  TIP3      9585            0.0000000000
     51008      9778  TIP3      OH2            27.6631284268        1.1132807851       78.3397149714  TIP3      9586            0.0000000000
     51009      9778  TIP3      H1             28.6508259362        1.1482230597       78.3714507018  TIP3      9586            0.0000000000
     51010      9778  TIP3      H2             27.5166159929        1.6746358118       77.5618824903  TIP3      9586            0.0000000000
     51011      9779  TIP3      OH2            21.2071488176       -4.3370536417       77.7607206910  TIP3      9587            0.0000000000
     51012      9779  TIP3      H1             22.1678682007       -4.2226628925       77.9556256880  TIP3      9587            0.0000000000
     51013      9779  TIP3      H2             21.2698862113       -4.9920888599       77.0337287588  TIP3      9587            0.0000000000
     51014      9780  TIP3      OH2            35.9718462617      -13.8435316300       76.5167190989  TIP3      9588            0.0000000000
     51015      9780  TIP3      H1             36.5253905497      -14.2005673053       77.2123055417  TIP3      9588            0.0000000000
     51016      9780  TIP3      H2             35.0919681615      -14.2050841495       76.7229740306  TIP3      9588            0.0000000000
     51017      9781  TIP3      OH2            21.5804341004      -16.8607068788       79.0871910547  TIP3      9589            0.0000000000
     51018      9781  TIP3      H1             22.0902166407      -16.2141877797       78.5798021673  TIP3      9589            0.0000000000
     51019      9781  TIP3      H2             21.0543105618      -16.2842310089       79.6336802532  TIP3      9589            0.0000000000
     51020      9782  TIP3      OH2            23.4237348111      -14.9318113766       77.5665207688  TIP3      9590            0.0000000000
     51021      9782  TIP3      H1             23.9472226343      -15.5847213450       77.0755275278  TIP3      9590            0.0000000000
     51022      9782  TIP3      H2             24.0486346345      -14.6803774598       78.2767883310  TIP3      9590            0.0000000000
     51023      9783  TIP3      OH2            30.2494938105        0.5314358948       78.2729354437  TIP3      9591            0.0000000000
     51024      9783  TIP3      H1             31.2247465052        0.5610131055       78.3256549141  TIP3      9591            0.0000000000
     51025      9783  TIP3      H2             30.1667476695       -0.2028838167       77.6331329248  TIP3      9591            0.0000000000
     51026      9784  TIP3      OH2            23.3343154398        0.0646340901       77.0936102657  TIP3      9592            0.0000000000
     51027      9784  TIP3      H1             23.0466201165        0.2699357708       77.9995958662  TIP3      9592            0.0000000000
     51028      9784  TIP3      H2             24.0931472357       -0.5306515656       77.2491900718  TIP3      9592            0.0000000000
     51029      9785  TIP3      OH2           -25.9889315783        9.0793296729       77.7991248232  TIP3      9593            0.0000000000
     51030      9785  TIP3      H1            -25.2414270099        9.1491542034       78.4356529651  TIP3      9593            0.0000000000
     51031      9785  TIP3      H2            -25.6228198612        8.4116734661       77.2034355304  TIP3      9593            0.0000000000
     51032      9786  TIP3      OH2           -23.7575248488        9.7577137638       79.2511014545  TIP3      9594            0.0000000000
     51033      9786  TIP3      H1            -23.3445958020       10.0558615414       80.0921263281  TIP3      9594            0.0000000000
     51034      9786  TIP3      H2            -23.4112176046       10.4085490954       78.6150082312  TIP3      9594            0.0000000000
     51035      9787  TIP3      OH2           -19.9653908392        1.7242602312       79.2994756729  TIP3      9595            0.0000000000
     51036      9787  TIP3      H1            -20.9021961322        1.8119930837       79.5326815208  TIP3      9595            0.0000000000
     51037      9787  TIP3      H2            -19.7769056440        2.5528938863       78.8422000388  TIP3      9595            0.0000000000
     51038      9788  TIP3      OH2           -18.8313117709       16.0798712889       77.5604324981  TIP3      9596            0.0000000000
     51039      9788  TIP3      H1            -18.7022970070       17.0010921375       77.8404656494  TIP3      9596            0.0000000000
     51040      9788  TIP3      H2            -17.9090528150       15.7800363355       77.6364468427  TIP3      9596            0.0000000000
     51041      9789  TIP3      OH2           -23.4174098606       18.8344258371       78.3036937290  TIP3      9597            0.0000000000
     51042      9789  TIP3      H1            -22.9896021197       18.0968421450       77.8151474232  TIP3      9597            0.0000000000
     51043      9789  TIP3      H2            -23.3170325719       18.5432810647       79.2223640668  TIP3      9597            0.0000000000
     51044      9790  TIP3      OH2           -22.1669680568       10.9696692166       77.1628160840  TIP3      9598            0.0000000000
     51045      9790  TIP3      H1            -22.2858700732       10.8158128858       76.1923514263  TIP3      9598            0.0000000000
     51046      9790  TIP3      H2            -21.3635520638       11.4945515143       77.1663583743  TIP3      9598            0.0000000000
     51047      9791  TIP3      OH2           -26.6663942851        4.8855294396       77.6605013992  TIP3      9599            0.0000000000
     51048      9791  TIP3      H1            -26.9189948991        4.9144827983       78.5929765356  TIP3      9599            0.0000000000
     51049      9791  TIP3      H2            -26.9518163848        3.9941102910       77.3936267416  TIP3      9599            0.0000000000
     51050      9792  TIP3      OH2           -29.8179437933        5.3082968503       76.8325852230  TIP3      9600            0.0000000000
     51051      9792  TIP3      H1            -30.2999457931        4.8859168606       77.5710136596  TIP3      9600            0.0000000000
     51052      9792  TIP3      H2            -30.5219982721        5.7370885829       76.3263907883  TIP3      9600            0.0000000000
     51053      9793  TIP3      OH2           -35.3516716085        5.7439974336       79.2100893867  TIP3      9601            0.0000000000
     51054      9793  TIP3      H1            -34.7416499770        6.3576337350       78.7492720176  TIP3      9601            0.0000000000
     51055      9793  TIP3      H2            -36.0288999298        6.3010429868       79.5818500386  TIP3      9601            0.0000000000
     51056      9794  TIP3      OH2           -31.1340224369        8.0155798889       78.2507589405  TIP3      9602            0.0000000000
     51057      9794  TIP3      H1            -31.6887370468        7.7227616538       77.5046684726  TIP3      9602            0.0000000000
     51058      9794  TIP3      H2            -30.3424312934        8.3040119220       77.7712386876  TIP3      9602            0.0000000000
     51059      9795  TIP3      OH2           -23.9384958009        5.5148459569       78.3387603930  TIP3      9603            0.0000000000
     51060      9795  TIP3      H1            -24.8994570543        5.6098666620       78.2272186433  TIP3      9603            0.0000000000
     51061      9795  TIP3      H2            -23.6264296378        6.3421459964       78.7107654503  TIP3      9603            0.0000000000
     51062      9796  TIP3      OH2           -25.6987060519       14.0751505476       79.1954062099  TIP3      9604            0.0000000000
     51063      9796  TIP3      H1            -26.0642632120       14.9217332921       79.4919423544  TIP3      9604            0.0000000000
     51064      9796  TIP3      H2            -26.4076861946       13.4576531272       79.4030692494  TIP3      9604            0.0000000000
     51065      9797  TIP3      OH2           -18.0933207423        7.5768528512       79.5071771638  TIP3      9605            0.0000000000
     51066      9797  TIP3      H1            -18.8475565800        7.2218328428       78.9810390722  TIP3      9605            0.0000000000
     51067      9797  TIP3      H2            -18.2347033093        8.5350867961       79.4206292772  TIP3      9605            0.0000000000
     51068      9798  TIP3      OH2           -34.5897669511       10.3294225033       77.8922313454  TIP3      9606            0.0000000000
     51069      9798  TIP3      H1            -33.9433797799       10.9275760193       78.3543930092  TIP3      9606            0.0000000000
     51070      9798  TIP3      H2            -35.4345046527       10.6810547842       78.1819070007  TIP3      9606            0.0000000000
     51071      9799  TIP3      OH2           -22.5746875572       14.3147297154       77.9406012587  TIP3      9607            0.0000000000
     51072      9799  TIP3      H1            -22.2936207648       14.0110048725       78.8140066730  TIP3      9607            0.0000000000
     51073      9799  TIP3      H2            -23.5358390645       14.2378903893       78.0695878635  TIP3      9607            0.0000000000
     51074      9800  TIP3      OH2           -18.1729739713       18.7505245808       78.1913724984  TIP3      9608            0.0000000000
     51075      9800  TIP3      H1            -17.4088290605       19.3539813686       78.1258125576  TIP3      9608            0.0000000000
     51076      9800  TIP3      H2            -18.8434440997       19.3614470318       78.5450945877  TIP3      9608            0.0000000000
     51077      9801  TIP3      OH2           -28.4853975157       15.4659094456       76.4354824842  TIP3      9609            0.0000000000
     51078      9801  TIP3      H1            -28.3631023088       14.6879331955       75.8776185585  TIP3      9609            0.0000000000
     51079      9801  TIP3      H2            -28.8754378622       15.0571089814       77.2418647986  TIP3      9609            0.0000000000
     51080      9802  TIP3      OH2           -29.6762447479       14.9744660162       78.8639874638  TIP3      9610            0.0000000000
     51081      9802  TIP3      H1            -29.5080691715       14.5132391215       79.7028619253  TIP3      9610            0.0000000000
     51082      9802  TIP3      H2            -29.5587423476       15.8912015467       79.1860993654  TIP3      9610            0.0000000000
     51083      9803  TIP3      OH2           -33.3326550587       12.2598040809       79.2574508576  TIP3      9611            0.0000000000
     51084      9803  TIP3      H1            -33.8488493261       12.5809788437       79.9956009043  TIP3      9611            0.0000000000
     51085      9803  TIP3      H2            -32.6343606318       12.9426138200       79.1598746050  TIP3      9611            0.0000000000
     51086      9804  TIP3      OH2           -27.3529938210       16.3470212176       78.9053338885  TIP3      9612            0.0000000000
     51087      9804  TIP3      H1            -27.9295539761       16.9502533124       79.4185036738  TIP3      9612            0.0000000000
     51088      9804  TIP3      H2            -26.5932845457       16.9381471850       78.7867533677  TIP3      9612            0.0000000000
     51089      9805  TIP3      OH2           -29.4968518688       17.6872796912       79.6952584874  TIP3      9613            0.0000000000
     51090      9805  TIP3      H1            -29.4376869004       18.4602659777       79.0769476503  TIP3      9613            0.0000000000
     51091      9805  TIP3      H2            -29.7472613982       18.1176317359       80.5191619990  TIP3      9613            0.0000000000
     51092      9806  TIP3      OH2           -30.9659024603        4.2147311306       79.0117845435  TIP3      9614            0.0000000000
     51093      9806  TIP3      H1            -31.2043895912        5.0467421667       79.4451822464  TIP3      9614            0.0000000000
     51094      9806  TIP3      H2            -30.0624888311        4.1155254380       79.3540249046  TIP3      9614            0.0000000000
     51095      9807  TIP3      OH2           -32.6334772262       14.9115157507       78.2460483357  TIP3      9615            0.0000000000
     51096      9807  TIP3      H1            -31.9664298807       15.5377479140       78.5611805424  TIP3      9615            0.0000000000
     51097      9807  TIP3      H2            -32.0716354901       14.4070376055       77.6244233672  TIP3      9615            0.0000000000
     51098      9808  TIP3      OH2           -34.2884142002        7.5367339514       77.3939735944  TIP3      9616            0.0000000000
     51099      9808  TIP3      H1            -34.2838000570        8.4841390916       77.6211081970  TIP3      9616            0.0000000000
     51100      9808  TIP3      H2            -35.1796158988        7.3265822382       77.0986586725  TIP3      9616            0.0000000000
     51101      9809  TIP3      OH2           -26.4553966023       17.3376648671       76.5725194535  TIP3      9617            0.0000000000
     51102      9809  TIP3      H1            -27.1505287730       16.6801602348       76.8262645214  TIP3      9617            0.0000000000
     51103      9809  TIP3      H2            -25.7484331689       16.7315417743       76.3044260776  TIP3      9617            0.0000000000
     51104      9810  TIP3      OH2           -21.9074075395       17.0774584932       76.7227863533  TIP3      9618            0.0000000000
     51105      9810  TIP3      H1            -21.6145396697       16.3300350516       77.2663192935  TIP3      9618            0.0000000000
     51106      9810  TIP3      H2            -21.1218897400       17.2897427203       76.1932304554  TIP3      9618            0.0000000000
     51107      9811  TIP3      OH2           -31.0301197459       13.0009316453       76.6059424830  TIP3      9619            0.0000000000
     51108      9811  TIP3      H1            -30.8614157080       12.2485132617       77.1918262555  TIP3      9619            0.0000000000
     51109      9811  TIP3      H2            -30.2734151622       12.9100161624       75.9936562471  TIP3      9619            0.0000000000
     51110      9812  TIP3      OH2           -25.5668217942       14.1028174626       76.3947000447  TIP3      9620            0.0000000000
     51111      9812  TIP3      H1            -25.8522959895       14.1846201107       77.3184529574  TIP3      9620            0.0000000000
     51112      9812  TIP3      H2            -25.7885812943       13.1547390880       76.2113010969  TIP3      9620            0.0000000000
     51113      9813  TIP3      OH2           -29.8307352189       10.9955180206       78.9108669534  TIP3      9621            0.0000000000
     51114      9813  TIP3      H1            -30.2761684727       10.4766732382       79.5982828294  TIP3      9621            0.0000000000
     51115      9813  TIP3      H2            -29.5160246142       10.3134621620       78.2849692862  TIP3      9621            0.0000000000
     51116      9814  TIP3      OH2           -28.7363084178        9.2001226985       77.2318555016  TIP3      9622            0.0000000000
     51117      9814  TIP3      H1            -28.8752520933        9.1445058746       76.2644171919  TIP3      9622            0.0000000000
     51118      9814  TIP3      H2            -27.7611131537        9.2956836916       77.3039752646  TIP3      9622            0.0000000000
     51119      9815  TIP3      OH2           -19.3258560960       11.5925038570       76.6549510740  TIP3      9623            0.0000000000
     51120      9815  TIP3      H1            -19.6354901636       11.2449848246       75.7908129796  TIP3      9623            0.0000000000
     51121      9815  TIP3      H2            -19.3214725049       12.5643767297       76.4651678747  TIP3      9623            0.0000000000
     51122      9816  TIP3      OH2           -28.8827500364       19.9555563084       78.3468973428  TIP3      9624            0.0000000000
     51123      9816  TIP3      H1            -27.9047626618       20.0215063891       78.3846417924  TIP3      9624            0.0000000000
     51124      9816  TIP3      H2            -29.0451115885       20.5199176894       77.5703673717  TIP3      9624            0.0000000000
     51125      9817  TIP3      OH2           -35.3285745061       14.5512480530       77.7648475397  TIP3      9625            0.0000000000
     51126      9817  TIP3      H1            -34.3737933088       14.6665386453       77.9661507548  TIP3      9625            0.0000000000
     51127      9817  TIP3      H2            -35.2776646211       13.8721570447       77.0759280060  TIP3      9625            0.0000000000
     51128      9818  TIP3      OH2           -18.2630323249       10.2339389904       78.7358967231  TIP3      9626            0.0000000000
     51129      9818  TIP3      H1            -18.7589203062       10.7813286020       78.0732240492  TIP3      9626            0.0000000000
     51130      9818  TIP3      H2            -18.2193065811       10.8874063273       79.4788312736  TIP3      9626            0.0000000000
     51131      9819  TIP3      OH2           -19.6868832439        7.6254415361       77.3277196294  TIP3      9627            0.0000000000
     51132      9819  TIP3      H1            -19.8910445924        8.2827552987       76.6551599751  TIP3      9627            0.0000000000
     51133      9819  TIP3      H2            -20.0951423397        6.8160809785       76.9319600307  TIP3      9627            0.0000000000
     51134      9820  TIP3      OH2           -20.5841547998        5.1189473369       76.5604541742  TIP3      9628            0.0000000000
     51135      9820  TIP3      H1            -20.0201922885        4.6084837360       77.1723149455  TIP3      9628            0.0000000000
     51136      9820  TIP3      H2            -21.4454027249        4.6922056768       76.7121772643  TIP3      9628            0.0000000000
     51137      9821  TIP3      OH2           -18.5519402656        3.9789532533       78.0510349794  TIP3      9629            0.0000000000
     51138      9821  TIP3      H1            -18.1285849480        3.1923117491       77.6331681883  TIP3      9629            0.0000000000
     51139      9821  TIP3      H2            -17.8088849876        4.5568523846       78.2766838142  TIP3      9629            0.0000000000
     51140      9822  TIP3      OH2           -35.0267321527        1.9955273928       79.0440318781  TIP3      9630            0.0000000000
     51141      9822  TIP3      H1            -34.4719142536        2.6572278881       78.6199826632  TIP3      9630            0.0000000000
     51142      9822  TIP3      H2            -35.5438998979        2.5373097211       79.6506804657  TIP3      9630            0.0000000000
     51143      9823  TIP3      OH2           -33.1377740424        3.9306100561       77.5702831291  TIP3      9631            0.0000000000
     51144      9823  TIP3      H1            -32.6218685741        3.2724482965       77.0818570383  TIP3      9631            0.0000000000
     51145      9823  TIP3      H2            -32.5037883904        4.1629059871       78.2746688193  TIP3      9631            0.0000000000
     51146      9824  TIP3      OH2           -26.2271433584       19.2757699454       78.4015896129  TIP3      9632            0.0000000000
     51147      9824  TIP3      H1            -25.2840215111       19.4512124330       78.2561000131  TIP3      9632            0.0000000000
     51148      9824  TIP3      H2            -26.4008904277       18.6752700432       77.6460060188  TIP3      9632            0.0000000000
     51149      9825  TIP3      OH2           -33.2669924169       18.8932524366       77.1082805961  TIP3      9633            0.0000000000
     51150      9825  TIP3      H1            -33.5339215251       19.1041855113       78.0178041364  TIP3      9633            0.0000000000
     51151      9825  TIP3      H2            -32.4649537286       18.3518619856       77.2563636475  TIP3      9633            0.0000000000
     51152      9826  TIP3      OH2            -7.1292069046        9.0572024101       77.7896062889  TIP3      9634            0.0000000000
     51153      9826  TIP3      H1             -6.3759816711        9.1437660522       78.4180223662  TIP3      9634            0.0000000000
     51154      9826  TIP3      H2             -6.7654940357        8.3828388596       77.1997781680  TIP3      9634            0.0000000000
     51155      9827  TIP3      OH2            -4.9048026052        9.7616251844       79.2460765331  TIP3      9635            0.0000000000
     51156      9827  TIP3      H1             -4.4925845292       10.0553022041       80.0855062228  TIP3      9635            0.0000000000
     51157      9827  TIP3      H2             -4.5482608473       10.4054524690       78.6084635138  TIP3      9635            0.0000000000
     51158      9828  TIP3      OH2            -1.1167272527        1.7343927896       79.3055956846  TIP3      9636            0.0000000000
     51159      9828  TIP3      H1             -2.0602589010        1.8261368450       79.5043124175  TIP3      9636            0.0000000000
     51160      9828  TIP3      H2             -0.9062436719        2.5567888549       78.8345999081  TIP3      9636            0.0000000000
     51161      9829  TIP3      OH2             0.0247173614       16.0803994098       77.5614532628  TIP3      9637            0.0000000000
     51162      9829  TIP3      H1              0.1553485060       17.0022219854       77.8408736600  TIP3      9637            0.0000000000
     51163      9829  TIP3      H2              0.9479384959       15.7821375451       77.6331670616  TIP3      9637            0.0000000000
     51164      9830  TIP3      OH2            -4.5620219778       18.8343785972       78.3038438107  TIP3      9638            0.0000000000
     51165      9830  TIP3      H1             -4.1316066254       18.0975805762       77.8159529147  TIP3      9638            0.0000000000
     51166      9830  TIP3      H2             -4.4603973211       18.5439888762       79.2226362966  TIP3      9638            0.0000000000
     51167      9831  TIP3      OH2            -3.3325915997       10.9960610037       77.1619483608  TIP3      9639            0.0000000000
     51168      9831  TIP3      H1             -3.4129622479       10.7940313034       76.1954474118  TIP3      9639            0.0000000000
     51169      9831  TIP3      H2             -2.4925412628       11.4695858818       77.1688483359  TIP3      9639            0.0000000000
     51170      9832  TIP3      OH2            -8.0087213127        5.0358391070       77.7421604532  TIP3      9640            0.0000000000
     51171      9832  TIP3      H1             -8.0584078634        4.8948421913       78.6880237443  TIP3      9640            0.0000000000
     51172      9832  TIP3      H2             -7.9583491313        4.1033504082       77.3896373380  TIP3      9640            0.0000000000
     51173      9833  TIP3      OH2           -10.9524909178        5.3378955685       76.8410233928  TIP3      9641            0.0000000000
     51174      9833  TIP3      H1            -11.4159750163        4.8742706021       77.5639792513  TIP3      9641            0.0000000000
     51175      9833  TIP3      H2            -11.6470483152        5.7378658362       76.3176864404  TIP3      9641            0.0000000000
     51176      9834  TIP3      OH2           -16.5141471469        5.6307122628       79.0472793981  TIP3      9642            0.0000000000
     51177      9834  TIP3      H1            -15.8385856191        6.3041247752       78.8457350902  TIP3      9642            0.0000000000
     51178      9834  TIP3      H2            -17.0844869948        6.2141493616       79.5999547048  TIP3      9642            0.0000000000
     51179      9835  TIP3      OH2           -12.2979244934        8.0481479131       78.2342242407  TIP3      9643            0.0000000000
     51180      9835  TIP3      H1            -12.7898658959        7.6951094740       77.4799451013  TIP3      9643            0.0000000000
     51181      9835  TIP3      H2            -11.4691408373        8.3047543857       77.7913018284  TIP3      9643            0.0000000000
     51182      9836  TIP3      OH2            -5.0910427718        5.5297673008       78.3760594505  TIP3      9644            0.0000000000
     51183      9836  TIP3      H1             -6.0425988850        5.5957106452       78.2010487328  TIP3      9644            0.0000000000
     51184      9836  TIP3      H2             -4.7856668815        6.3743845946       78.7012853560  TIP3      9644            0.0000000000
     51185      9837  TIP3      OH2            -6.8375469532       14.0748927883       79.1957063630  TIP3      9645            0.0000000000
     51186      9837  TIP3      H1             -7.2027521352       14.9209541515       79.4862298928  TIP3      9645            0.0000000000
     51187      9837  TIP3      H2             -7.5507050034       13.4580276729       79.3901430839  TIP3      9645            0.0000000000
     51188      9838  TIP3      OH2             0.6970764138        7.5607201772       79.6002826415  TIP3      9646            0.0000000000
     51189      9838  TIP3      H1              0.0728148806        7.2023127919       78.9255040407  TIP3      9646            0.0000000000
     51190      9838  TIP3      H2              0.6881245978        8.5033686071       79.3343118137  TIP3      9646            0.0000000000
     51191      9839  TIP3      OH2           -15.7305571618       10.5572650019       78.1995298213  TIP3      9647            0.0000000000
     51192      9839  TIP3      H1            -14.8863787536       11.0454762332       78.3989494042  TIP3      9647            0.0000000000
     51193      9839  TIP3      H2            -16.2180900136       11.0753747819       78.8819350108  TIP3      9647            0.0000000000
     51194      9840  TIP3      OH2            -3.7094431251       14.3065343538       77.9420517760  TIP3      9648            0.0000000000
     51195      9840  TIP3      H1             -3.4342881221       14.0078011201       78.8172122005  TIP3      9648            0.0000000000
     51196      9840  TIP3      H2             -4.6720680053       14.2332396964       78.0680440100  TIP3      9648            0.0000000000
     51197      9841  TIP3      OH2             0.6798177053       18.7539778669       78.1892445749  TIP3      9649            0.0000000000
     51198      9841  TIP3      H1              1.4472104236       19.3541130626       78.1271911012  TIP3      9649            0.0000000000
     51199      9841  TIP3      H2              0.0103273396       19.3742578627       78.5336449768  TIP3      9649            0.0000000000
     51200      9842  TIP3      OH2            -9.6307725395       15.4647310598       76.4353372241  TIP3      9650            0.0000000000
     51201      9842  TIP3      H1             -9.5062149437       14.6876632261       75.8771421316  TIP3      9650            0.0000000000
     51202      9842  TIP3      H2            -10.0185012124       15.0541564797       77.2420637934  TIP3      9650            0.0000000000
     51203      9843  TIP3      OH2           -10.8062377592       14.9756116354       78.8645733512  TIP3      9651            0.0000000000
     51204      9843  TIP3      H1            -10.6326883378       14.5156254146       79.7013232050  TIP3      9651            0.0000000000
     51205      9843  TIP3      H2            -10.7034430207       15.8946401590       79.1834001395  TIP3      9651            0.0000000000
     51206      9844  TIP3      OH2           -14.4104785533       12.3339871401       79.3192691345  TIP3      9652            0.0000000000
     51207      9844  TIP3      H1            -14.9661249424       12.6295728465       80.0387959231  TIP3      9652            0.0000000000
     51208      9844  TIP3      H2            -13.7264314699       13.0249884939       79.1979009945  TIP3      9652            0.0000000000
     51209      9845  TIP3      OH2            -8.4950726881       16.3558473103       78.8936036219  TIP3      9653            0.0000000000
     51210      9845  TIP3      H1             -9.0723544051       16.9500403622       79.4169196385  TIP3      9653            0.0000000000
     51211      9845  TIP3      H2             -7.7338552804       16.9432933745       78.7855074586  TIP3      9653            0.0000000000
     51212      9846  TIP3      OH2           -10.6346776380       17.6898211271       79.6987631143  TIP3      9654            0.0000000000
     51213      9846  TIP3      H1            -10.5836399319       18.4630677101       79.0778497300  TIP3      9654            0.0000000000
     51214      9846  TIP3      H2            -10.8856021290       18.1234171353       80.5207620990  TIP3      9654            0.0000000000
     51215      9847  TIP3      OH2           -12.1275348160        4.2318181757       78.9956251265  TIP3      9655            0.0000000000
     51216      9847  TIP3      H1            -12.3279724956        5.0537583886       79.4561794799  TIP3      9655            0.0000000000
     51217      9847  TIP3      H2            -11.2171360381        4.1103205642       79.3227924997  TIP3      9655            0.0000000000
     51218      9848  TIP3      OH2           -13.7320891301       14.8897470886       78.2577566120  TIP3      9656            0.0000000000
     51219      9848  TIP3      H1            -13.0676751798       15.5196046161       78.5651162933  TIP3      9656            0.0000000000
     51220      9848  TIP3      H2            -13.1998798859       14.4026709073       77.6036505209  TIP3      9656            0.0000000000
     51221      9849  TIP3      OH2           -15.4675907343        7.5681474919       77.2401428159  TIP3      9657            0.0000000000
     51222      9849  TIP3      H1            -15.3073299497        8.3925519641       77.7555207165  TIP3      9657            0.0000000000
     51223      9849  TIP3      H2            -16.3840986067        7.3785954334       77.3439637226  TIP3      9657            0.0000000000
     51224      9850  TIP3      OH2            -7.5988342917       17.3383478401       76.5720688233  TIP3      9658            0.0000000000
     51225      9850  TIP3      H1             -8.2941652779       16.6808575980       76.8266738295  TIP3      9658            0.0000000000
     51226      9850  TIP3      H2             -6.8924727757       16.7316967779       76.3046211699  TIP3      9658            0.0000000000
     51227      9851  TIP3      OH2            -3.0497997116       17.0816316317       76.7293231945  TIP3      9659            0.0000000000
     51228      9851  TIP3      H1             -2.7613754429       16.3283782758       77.2666362766  TIP3      9659            0.0000000000
     51229      9851  TIP3      H2             -2.2652295599       17.2813724164       76.1939560296  TIP3      9659            0.0000000000
     51230      9852  TIP3      OH2           -12.1775385388       12.9846960314       76.6050255293  TIP3      9660            0.0000000000
     51231      9852  TIP3      H1            -11.9761516146       12.2540160482       77.2073658968  TIP3      9660            0.0000000000
     51232      9852  TIP3      H2            -11.4167147811       12.9134110274       75.9932114343  TIP3      9660            0.0000000000
     51233      9853  TIP3      OH2            -6.7120030579       14.1031365026       76.3936894134  TIP3      9661            0.0000000000
     51234      9853  TIP3      H1             -6.9967283220       14.1832221181       77.3173368723  TIP3      9661            0.0000000000
     51235      9853  TIP3      H2             -6.9326382110       13.1546865361       76.2102663386  TIP3      9661            0.0000000000
     51236      9854  TIP3      OH2           -10.9742617222       11.0004455103       78.9309670296  TIP3      9662            0.0000000000
     51237      9854  TIP3      H1            -11.4272420303       10.4797774460       79.6087806043  TIP3      9662            0.0000000000
     51238      9854  TIP3      H2            -10.6633117577       10.3092810290       78.3094259785  TIP3      9662            0.0000000000
     51239      9855  TIP3      OH2            -9.9078023831        9.2127169779       77.2269713604  TIP3      9663            0.0000000000
     51240      9855  TIP3      H1            -10.0379630635        9.1344849325       76.2603047037  TIP3      9663            0.0000000000
     51241      9855  TIP3      H2             -8.9300775418        9.2932134512       77.3022256992  TIP3      9663            0.0000000000
     51242      9856  TIP3      OH2            -0.5328312523       11.6161748180       76.6894302159  TIP3      9664            0.0000000000
     51243      9856  TIP3      H1             -0.7242423699       11.2133918888       75.8194825367  TIP3      9664            0.0000000000
     51244      9856  TIP3      H2             -0.4529585229       12.5709985746       76.4512739875  TIP3      9664            0.0000000000
     51245      9857  TIP3      OH2           -10.0273514101       19.9559713093       78.3467680627  TIP3      9665            0.0000000000
     51246      9857  TIP3      H1             -9.0494289156       20.0219929071       78.3836768642  TIP3      9665            0.0000000000
     51247      9857  TIP3      H2            -10.1891200614       20.5190198921       77.5692884937  TIP3      9665            0.0000000000
     51248      9858  TIP3      OH2           -16.5098443495       14.4945969743       77.7698340771  TIP3      9666            0.0000000000
     51249      9858  TIP3      H1            -15.5530077295       14.6503819172       77.9543731116  TIP3      9666            0.0000000000
     51250      9858  TIP3      H2            -16.4358991800       13.8773584930       77.0181421061  TIP3      9666            0.0000000000
     51251      9859  TIP3      OH2             0.6701032616       10.2834308804       78.7708334969  TIP3      9667            0.0000000000
     51252      9859  TIP3      H1              0.2004216682       10.7080355262       78.0121449747  TIP3      9667            0.0000000000
     51253      9859  TIP3      H2              0.6668860450       10.9842356863       79.4551764510  TIP3      9667            0.0000000000
     51254      9860  TIP3      OH2            -0.9653321474        7.6455503916       77.3982318056  TIP3      9668            0.0000000000
     51255      9860  TIP3      H1             -0.9237248711        8.2776148224       76.6689995371  TIP3      9668            0.0000000000
     51256      9860  TIP3      H2             -1.1741008219        6.8024672974       76.9298880704  TIP3      9668            0.0000000000
     51257      9861  TIP3      OH2            -1.6607093554        5.1631661972       76.5822651925  TIP3      9669            0.0000000000
     51258      9861  TIP3      H1             -1.1279747221        4.6112808250       77.1770971052  TIP3      9669            0.0000000000
     51259      9861  TIP3      H2             -2.5503332691        4.7239654825       76.6641087810  TIP3      9669            0.0000000000
     51260      9862  TIP3      OH2             0.2874262207        3.9304429517       78.0913134138  TIP3      9670            0.0000000000
     51261      9862  TIP3      H1              0.7340913185        3.2061397694       77.6013749470  TIP3      9670            0.0000000000
     51262      9862  TIP3      H2              1.0079905531        4.5827866460       78.1884155486  TIP3      9670            0.0000000000
     51263      9863  TIP3      OH2           -16.1405294027        1.9912510004       79.0817333250  TIP3      9671            0.0000000000
     51264      9863  TIP3      H1            -15.5934378603        2.6260167775       78.6132235693  TIP3      9671            0.0000000000
     51265      9863  TIP3      H2            -16.6567440746        2.5576386428       79.6467170100  TIP3      9671            0.0000000000
     51266      9864  TIP3      OH2           -14.2851230353        3.9849717510       77.5303683551  TIP3      9672            0.0000000000
     51267      9864  TIP3      H1            -13.7747345533        3.2671469758       77.1165079361  TIP3      9672            0.0000000000
     51268      9864  TIP3      H2            -13.6687870245        4.1651263961       78.2850118592  TIP3      9672            0.0000000000
     51269      9865  TIP3      OH2            -7.3714950853       19.2776761356       78.4002139226  TIP3      9673            0.0000000000
     51270      9865  TIP3      H1             -6.4278168715       19.4509970415       78.2559469848  TIP3      9673            0.0000000000
     51271      9865  TIP3      H2             -7.5448166625       18.6753473275       77.6458316121  TIP3      9673            0.0000000000
     51272      9866  TIP3      OH2           -14.3781693517       18.9192031018       77.0925295315  TIP3      9674            0.0000000000
     51273      9866  TIP3      H1            -14.6644830586       19.1275962456       77.9983319747  TIP3      9674            0.0000000000
     51274      9866  TIP3      H2            -13.6186150584       18.3256889324       77.2491806684  TIP3      9674            0.0000000000
     51275      9867  TIP3      OH2            11.7154235674        9.0767457000       77.7949183182  TIP3      9675            0.0000000000
     51276      9867  TIP3      H1             12.4501896043        9.1342010899       78.4453827776  TIP3      9675            0.0000000000
     51277      9867  TIP3      H2             12.0797554940        8.4027431492       77.2069377596  TIP3      9675            0.0000000000
     51278      9868  TIP3      OH2            13.9687620473        9.7466464549       79.2456955819  TIP3      9676            0.0000000000
     51279      9868  TIP3      H1             14.3588894682       10.0493202279       80.0984807675  TIP3      9676            0.0000000000
     51280      9868  TIP3      H2             14.2839573221       10.4236606518       78.6316384472  TIP3      9676            0.0000000000
     51281      9869  TIP3      OH2            17.7498605072        1.7281636417       79.3030734157  TIP3      9677            0.0000000000
     51282      9869  TIP3      H1             16.8101597295        1.8231491923       79.5239612962  TIP3      9677            0.0000000000
     51283      9869  TIP3      H2             17.9478368774        2.5577957253       78.8360342116  TIP3      9677            0.0000000000
     51284      9870  TIP3      OH2            18.8767012511       16.0585111494       77.5374305010  TIP3      9678            0.0000000000
     51285      9870  TIP3      H1             18.9919656495       16.9810330634       77.8378777489  TIP3      9678            0.0000000000
     51286      9870  TIP3      H2             19.8068340045       15.7881980433       77.6387965169  TIP3      9678            0.0000000000
     51287      9871  TIP3      OH2            14.2787711935       18.8236628858       78.2971692025  TIP3      9679            0.0000000000
     51288      9871  TIP3      H1             14.7336312386       18.0973009439       77.8216632110  TIP3      9679            0.0000000000
     51289      9871  TIP3      H2             14.3958599462       18.5485975394       79.2193558558  TIP3      9679            0.0000000000
     51290      9872  TIP3      OH2            15.4873451179       11.0557310553       77.1436062800  TIP3      9680            0.0000000000
     51291      9872  TIP3      H1             15.3928027249       10.6587249338       76.2523934760  TIP3      9680            0.0000000000
     51292      9872  TIP3      H2             16.3773142291       11.4210623201       77.2486253604  TIP3      9680            0.0000000000
     51293      9873  TIP3      OH2            11.0455045822        4.8867693257       77.6621099633  TIP3      9681            0.0000000000
     51294      9873  TIP3      H1             10.7936381061        4.9154542655       78.5943433630  TIP3      9681            0.0000000000
     51295      9873  TIP3      H2             10.7605680317        3.9949761895       77.3977851202  TIP3      9681            0.0000000000
     51296      9874  TIP3      OH2             7.8980125860        5.3075636101       76.8326211969  TIP3      9682            0.0000000000
     51297      9874  TIP3      H1              7.4123932610        4.8852182820       77.5709070880  TIP3      9682            0.0000000000
     51298      9874  TIP3      H2              7.1931431259        5.7388732540       76.3280698840  TIP3      9682            0.0000000000
     51299      9875  TIP3      OH2             2.3823339284        5.6246678714       79.1695402204  TIP3      9683            0.0000000000
     51300      9875  TIP3      H1              2.9731460020        6.2858826070       78.7429267754  TIP3      9683            0.0000000000
     51301      9875  TIP3      H2              1.7582983084        6.2554984473       79.5730586093  TIP3      9683            0.0000000000
     51302      9876  TIP3      OH2             6.5734281569        8.0289590022       78.2335573405  TIP3      9684            0.0000000000
     51303      9876  TIP3      H1              6.0159836999        7.7184346957       77.4973215784  TIP3      9684            0.0000000000
     51304      9876  TIP3      H2              7.3666866784        8.3025022926       77.7533680996  TIP3      9684            0.0000000000
     51305      9877  TIP3      OH2            13.7774146096        5.5157512371       78.3375415857  TIP3      9685            0.0000000000
     51306      9877  TIP3      H1             12.8167806139        5.6097719206       78.2274227717  TIP3      9685            0.0000000000
     51307      9877  TIP3      H2             14.0878675215        6.3438650084       78.7103597635  TIP3      9685            0.0000000000
     51308      9878  TIP3      OH2            12.0126889229       14.0740391453       79.1976861501  TIP3      9686            0.0000000000
     51309      9878  TIP3      H1             11.6535347485       14.9203295138       79.4933928117  TIP3      9686            0.0000000000
     51310      9878  TIP3      H2             11.3038186497       13.4568534305       79.4069588571  TIP3      9686            0.0000000000
     51311      9879  TIP3      OH2            19.5671311927        7.5529861582       79.5840262177  TIP3      9687            0.0000000000
     51312      9879  TIP3      H1             18.9285510958        7.2090837993       78.9214521587  TIP3      9687            0.0000000000
     51313      9879  TIP3      H2             19.5370808143        8.5060708920       79.3601018804  TIP3      9687            0.0000000000
     51314      9880  TIP3      OH2             3.1638400828       10.3361038381       77.8613597936  TIP3      9688            0.0000000000
     51315      9880  TIP3      H1              3.7653448646       10.9380198107       78.3608191654  TIP3      9688            0.0000000000
     51316      9880  TIP3      H2              2.2852251836       10.6301153032       78.1491915799  TIP3      9688            0.0000000000
     51317      9881  TIP3      OH2            15.1495171560       14.2433792544       77.9076311686  TIP3      9689            0.0000000000
     51318      9881  TIP3      H1             15.4152376358       14.0282619535       78.8154126683  TIP3      9689            0.0000000000
     51319      9881  TIP3      H2             14.1861408061       14.2531924305       78.0691237242  TIP3      9689            0.0000000000
     51320      9882  TIP3      OH2            19.5375946988       18.7515362158       78.1873211408  TIP3      9690            0.0000000000
     51321      9882  TIP3      H1             20.3027079961       19.3541044300       78.1267236891  TIP3      9690            0.0000000000
     51322      9882  TIP3      H2             18.8791720676       19.3591902335       78.5771327309  TIP3      9690            0.0000000000
     51323      9883  TIP3      OH2             9.2301253498       15.4648666834       76.4360048982  TIP3      9691            0.0000000000
     51324      9883  TIP3      H1              9.3471472962       14.6870364991       75.8772579383  TIP3      9691            0.0000000000
     51325      9883  TIP3      H2              8.8360529347       15.0576348935       77.2418623973  TIP3      9691            0.0000000000
     51326      9884  TIP3      OH2             8.0460161250       14.9754608301       78.8620976009  TIP3      9692            0.0000000000
     51327      9884  TIP3      H1              8.2246778858       14.5149254265       79.6970155061  TIP3      9692            0.0000000000
     51328      9884  TIP3      H2              8.1538485445       15.8917540340       79.1866357156  TIP3      9692            0.0000000000
     51329      9885  TIP3      OH2             4.3756114366       12.2859152615       79.2489336918  TIP3      9693            0.0000000000
     51330      9885  TIP3      H1              3.8697400748       12.5801257828       80.0043109768  TIP3      9693            0.0000000000
     51331      9885  TIP3      H2              5.0994772654       12.9426215282       79.1575416826  TIP3      9693            0.0000000000
     51332      9886  TIP3      OH2            10.3579998222       16.3469167107       78.9070618005  TIP3      9694            0.0000000000
     51333      9886  TIP3      H1              9.7805145179       16.9533380962       79.4165690234  TIP3      9694            0.0000000000
     51334      9886  TIP3      H2             11.1173304324       16.9379744700       78.7882358390  TIP3      9694            0.0000000000
     51335      9887  TIP3      OH2             8.2261826933       17.6931447768       79.6972973237  TIP3      9695            0.0000000000
     51336      9887  TIP3      H1              8.2722432596       18.4651720258       79.0776517783  TIP3      9695            0.0000000000
     51337      9887  TIP3      H2              7.9632236615       18.1192601178       80.5194683127  TIP3      9695            0.0000000000
     51338      9888  TIP3      OH2             6.7512267157        4.2202576046       79.0153470187  TIP3      9696            0.0000000000
     51339      9888  TIP3      H1              6.5140904450        5.0531249243       79.4433726313  TIP3      9696            0.0000000000
     51340      9888  TIP3      H2              7.6525115947        4.1148100063       79.3569782413  TIP3      9696            0.0000000000
     51341      9889  TIP3      OH2             5.1198654326       14.8856826077       78.2572170632  TIP3      9697            0.0000000000
     51342      9889  TIP3      H1              5.7864097422       15.5134042069       78.5627341438  TIP3      9697            0.0000000000
     51343      9889  TIP3      H2              5.6584510403       14.3982666618       77.6052831107  TIP3      9697            0.0000000000
     51344      9890  TIP3      OH2             3.4493081192        7.5434617168       77.4205946986  TIP3      9698            0.0000000000
     51345      9890  TIP3      H1              3.4301802493        8.4911869091       77.6583541365  TIP3      9698            0.0000000000
     51346      9890  TIP3      H2              2.5575811787        7.3403580469       77.1450472118  TIP3      9698            0.0000000000
     51347      9891  TIP3      OH2            11.2579555546       17.3391735197       76.5767674348  TIP3      9699            0.0000000000
     51348      9891  TIP3      H1             10.5612320761       16.6820963912       76.8268073769  TIP3      9699            0.0000000000
     51349      9891  TIP3      H2             11.9625913512       16.7330536208       76.3059004332  TIP3      9699            0.0000000000
     51350      9892  TIP3      OH2            15.7957979444       17.0682299534       76.7158582847  TIP3      9700            0.0000000000
     51351      9892  TIP3      H1             16.1075036473       16.3574735588       77.2946923969  TIP3      9700            0.0000000000
     51352      9892  TIP3      H2             16.5880684672       17.2968271887       76.2019733120  TIP3      9700            0.0000000000
     51353      9893  TIP3      OH2             6.6910270128       12.9978802822       76.6240489475  TIP3      9701            0.0000000000
     51354      9893  TIP3      H1              6.8535541333       12.2411465436       77.2028718247  TIP3      9701            0.0000000000
     51355      9893  TIP3      H2              7.4364192212       12.9066536535       75.9968843037  TIP3      9701            0.0000000000
     51356      9894  TIP3      OH2            12.1846461844       14.0856746474       76.4023361516  TIP3      9702            0.0000000000
     51357      9894  TIP3      H1             11.8477774709       14.1955085748       77.3085596301  TIP3      9702            0.0000000000
     51358      9894  TIP3      H2             11.8992373033       13.1565136720       76.2140917105  TIP3      9702            0.0000000000
     51359      9895  TIP3      OH2             7.8855074389       10.9913389032       78.9162672668  TIP3      9703            0.0000000000
     51360      9895  TIP3      H1              7.4315933186       10.4755387211       79.5993716413  TIP3      9703            0.0000000000
     51361      9895  TIP3      H2              8.1892778223       10.3093741589       78.2848167265  TIP3      9703            0.0000000000
     51362      9896  TIP3      OH2             8.9791299382        9.1998292720       77.2316224678  TIP3      9704            0.0000000000
     51363      9896  TIP3      H1              8.8394491273        9.1432112879       76.2648958041  TIP3      9704            0.0000000000
     51364      9896  TIP3      H2              9.9523237010        9.2956984834       77.3027891046  TIP3      9704            0.0000000000
     51365      9897  TIP3      OH2            18.2134319829       11.6151038129       76.6705176940  TIP3      9705            0.0000000000
     51366      9897  TIP3      H1             18.3569097304       11.1468504034       75.8296169965  TIP3      9705            0.0000000000
     51367      9897  TIP3      H2             18.4820644543       12.5580735442       76.4978546045  TIP3      9705            0.0000000000
     51368      9898  TIP3      OH2             8.8295243563       19.9559459820       78.3468947815  TIP3      9706            0.0000000000
     51369      9898  TIP3      H1              9.8079573828       20.0210712405       78.3847925030  TIP3      9706            0.0000000000
     51370      9898  TIP3      H2              8.6667898846       20.5198083252       77.5702388938  TIP3      9706            0.0000000000
     51371      9899  TIP3      OH2             2.3484821622       14.5219727895       77.7546080463  TIP3      9707            0.0000000000
     51372      9899  TIP3      H1              3.3064586371       14.6298066159       77.9529885477  TIP3      9707            0.0000000000
     51373      9899  TIP3      H2              2.4155304047       13.8684103492       77.0258541036  TIP3      9707            0.0000000000
     51374      9900  TIP3      OH2            19.5464797267       10.2865128083       78.7442176417  TIP3      9708            0.0000000000
     51375      9900  TIP3      H1             19.0449720364       10.7279396224       78.0301740216  TIP3      9708            0.0000000000
     51376      9900  TIP3      H2             19.5324823649       10.9402167776       79.4845711646  TIP3      9708            0.0000000000
     51377      9901  TIP3      OH2            17.8602063708        7.6530156126       77.3890608485  TIP3      9709            0.0000000000
     51378      9901  TIP3      H1             17.9638695155        8.2609727644       76.6519528027  TIP3      9709            0.0000000000
     51379      9901  TIP3      H2             17.6853782740        6.7984286104       76.9314323618  TIP3      9709            0.0000000000
     51380      9902  TIP3      OH2            17.1032562155        5.1026494117       76.5507307180  TIP3      9710            0.0000000000
     51381      9902  TIP3      H1             17.7117911889        4.6384980307       77.1528227507  TIP3      9710            0.0000000000
     51382      9902  TIP3      H2             16.2542340143        4.6691644465       76.7310604220  TIP3      9710            0.0000000000
     51383      9903  TIP3      OH2            19.1501046431        3.9452047626       78.0894917414  TIP3      9711            0.0000000000
     51384      9903  TIP3      H1             19.5918006113        3.2124648261       77.6056643006  TIP3      9711            0.0000000000
     51385      9903  TIP3      H2             19.8747588388        4.5892878450       78.1908202035  TIP3      9711            0.0000000000
     51386      9904  TIP3      OH2             2.7340597923        1.9877647583       79.0939371879  TIP3      9712            0.0000000000
     51387      9904  TIP3      H1              3.2340376478        2.6377236330       78.5800422523  TIP3      9712            0.0000000000
     51388      9904  TIP3      H2              2.2002279073        2.5661830601       79.6313818807  TIP3      9712            0.0000000000
     51389      9905  TIP3      OH2             4.5681171854        3.9250575706       77.5677892551  TIP3      9713            0.0000000000
     51390      9905  TIP3      H1              5.0911271798        3.2723523238       77.0761911088  TIP3      9713            0.0000000000
     51391      9905  TIP3      H2              5.1934405610        4.1756190136       78.2772776646  TIP3      9713            0.0000000000
     51392      9906  TIP3      OH2            11.4837084203       19.2771306233       78.4016529800  TIP3      9714            0.0000000000
     51393      9906  TIP3      H1             12.4275531327       19.4505086379       78.2566304496  TIP3      9714            0.0000000000
     51394      9906  TIP3      H2             11.3108231290       18.6755552535       77.6466086139  TIP3      9714            0.0000000000
     51395      9907  TIP3      OH2             4.4789663795       18.9203459935       77.0931798984  TIP3      9715            0.0000000000
     51396      9907  TIP3      H1              4.1905323171       19.1280630725       77.9985064695  TIP3      9715            0.0000000000
     51397      9907  TIP3      H2              5.2369722757       18.3251157652       77.2497779242  TIP3      9715            0.0000000000
     51398      9908  TIP3      OH2            30.5785615201        9.0816167899       77.7949654662  TIP3      9716            0.0000000000
     51399      9908  TIP3      H1             31.3301622642        9.1494929674       78.4274837675  TIP3      9716            0.0000000000
     51400      9908  TIP3      H2             30.9424603741        8.4116800397       77.2024993493  TIP3      9716            0.0000000000
     51401      9909  TIP3      OH2            32.7696914088        9.7552809808       79.2914581889  TIP3      9717            0.0000000000
     51402      9909  TIP3      H1             33.2216264403       10.0672120073       80.1005971939  TIP3      9717            0.0000000000
     51403      9909  TIP3      H2             33.1214845990       10.3877747050       78.6376323879  TIP3      9717            0.0000000000
     51404      9910  TIP3      OH2            33.2322573383       18.9011128112       78.3046749611  TIP3      9718            0.0000000000
     51405      9910  TIP3      H1             33.5683676239       18.1062116274       77.8045736145  TIP3      9718            0.0000000000
     51406      9910  TIP3      H2             33.1820823639       18.4976624516       79.1919386364  TIP3      9718            0.0000000000
     51407      9911  TIP3      OH2            34.3802134179       10.9716366935       77.1721114251  TIP3      9719            0.0000000000
     51408      9911  TIP3      H1             34.3122609682       10.7709487434       76.2098452565  TIP3      9719            0.0000000000
     51409      9911  TIP3      H2             35.1851972208       11.4906795433       77.1840878844  TIP3      9719            0.0000000000
     51410      9912  TIP3      OH2            29.9043419731        4.8868093386       77.6633841208  TIP3      9720            0.0000000000
     51411      9912  TIP3      H1             29.6490448248        4.9140532503       78.5948143954  TIP3      9720            0.0000000000
     51412      9912  TIP3      H2             29.6180622809        3.9968227752       77.3957543913  TIP3      9720            0.0000000000
     51413      9913  TIP3      OH2            26.7555927201        5.3053207392       76.8312224103  TIP3      9721            0.0000000000
     51414      9913  TIP3      H1             26.2770814682        4.8770025435       77.5704997760  TIP3      9721            0.0000000000
     51415      9913  TIP3      H2             26.0495613081        5.7382250156       76.3298859731  TIP3      9721            0.0000000000
     51416      9914  TIP3      OH2            21.2416918059        5.6182813667       79.1667479327  TIP3      9722            0.0000000000
     51417      9914  TIP3      H1             21.8271358829        6.2894684848       78.7485939109  TIP3      9722            0.0000000000
     51418      9914  TIP3      H2             20.6168911618        6.2529181372       79.5736536560  TIP3      9722            0.0000000000
     51419      9915  TIP3      OH2            25.4352660724        8.0142554718       78.2550647066  TIP3      9723            0.0000000000
     51420      9915  TIP3      H1             24.8735021229        7.7193610914       77.5158721251  TIP3      9723            0.0000000000
     51421      9915  TIP3      H2             26.2196508407        8.3021767224       77.7651444631  TIP3      9723            0.0000000000
     51422      9916  TIP3      OH2            32.6484150752        5.5077112274       78.3418476691  TIP3      9724            0.0000000000
     51423      9916  TIP3      H1             31.6874075726        5.5838274939       78.2060841327  TIP3      9724            0.0000000000
     51424      9916  TIP3      H2             32.9039750705        6.3516267005       78.7065846195  TIP3      9724            0.0000000000
     51425      9917  TIP3      OH2            30.8638632564       14.0705641178       79.2008043593  TIP3      9725            0.0000000000
     51426      9917  TIP3      H1             30.5080484313       14.9216246294       79.4873092871  TIP3      9725            0.0000000000
     51427      9917  TIP3      H2             30.1553071531       13.4552337572       79.4097388329  TIP3      9725            0.0000000000
     51428      9918  TIP3      OH2            22.0329494450       10.3363186925       77.8597856761  TIP3      9726            0.0000000000
     51429      9918  TIP3      H1             22.6293611145       10.9372592493       78.3650295819  TIP3      9726            0.0000000000
     51430      9918  TIP3      H2             21.1579149926       10.6235295288       78.1633372951  TIP3      9726            0.0000000000
     51431      9919  TIP3      OH2            33.9612036107       14.3138642058       77.9449393134  TIP3      9727            0.0000000000
     51432      9919  TIP3      H1             34.2635342126       14.0132399993       78.8059042770  TIP3      9727            0.0000000000
     51433      9919  TIP3      H2             33.0074812561       14.2263759889       78.0690015143  TIP3      9727            0.0000000000
     51434      9920  TIP3      OH2            28.0860990819       15.4676484408       76.4356355038  TIP3      9728            0.0000000000
     51435      9920  TIP3      H1             28.2049179742       14.6888967285       75.8777609676  TIP3      9728            0.0000000000
     51436      9920  TIP3      H2             27.6933650384       15.0586727912       77.2412107307  TIP3      9728            0.0000000000
     51437      9921  TIP3      OH2            26.9003987822       14.9753826277       78.8628181936  TIP3      9729            0.0000000000
     51438      9921  TIP3      H1             27.0809484591       14.5144881456       79.6973345219  TIP3      9729            0.0000000000
     51439      9921  TIP3      H2             27.0100751620       15.8917350757       79.1869546458  TIP3      9729            0.0000000000
     51440      9922  TIP3      OH2            23.2297578844       12.2858379190       79.2480985765  TIP3      9730            0.0000000000
     51441      9922  TIP3      H1             22.7231042296       12.5721539042       80.0060344095  TIP3      9730            0.0000000000
     51442      9922  TIP3      H2             23.9503921322       12.9435154092       79.1635501358  TIP3      9730            0.0000000000
     51443      9923  TIP3      OH2            29.2091310349       16.3409250467       78.9092236170  TIP3      9731            0.0000000000
     51444      9923  TIP3      H1             28.6388269535       16.9503271406       79.4204364731  TIP3      9731            0.0000000000
     51445      9923  TIP3      H2             29.9681485208       16.9269303775       78.7863936410  TIP3      9731            0.0000000000
     51446      9924  TIP3      OH2            27.0712180362       17.6943380860       79.6977104247  TIP3      9732            0.0000000000
     51447      9924  TIP3      H1             27.1261816036       18.4657289110       79.0771003236  TIP3      9732            0.0000000000
     51448      9924  TIP3      H2             26.8096236495       18.1207718543       80.5232131609  TIP3      9732            0.0000000000
     51449      9925  TIP3      OH2            25.5965745782        4.2256530849       79.0081697777  TIP3      9733            0.0000000000
     51450      9925  TIP3      H1             25.3689553949        5.0546769094       79.4419695137  TIP3      9733            0.0000000000
     51451      9925  TIP3      H2             26.5004844053        4.1143108037       79.3521305924  TIP3      9733            0.0000000000
     51452      9926  TIP3      OH2            23.9761217997       14.8860256283       78.2567949373  TIP3      9734            0.0000000000
     51453      9926  TIP3      H1             24.6413529764       15.5127924127       78.5653618763  TIP3      9734            0.0000000000
     51454      9926  TIP3      H2             24.5112396376       14.3992402035       77.6049934693  TIP3      9734            0.0000000000
     51455      9927  TIP3      OH2            22.3059279489        7.5439454945       77.4220477509  TIP3      9735            0.0000000000
     51456      9927  TIP3      H1             22.2862792852        8.4916636852       77.6597119121  TIP3      9735            0.0000000000
     51457      9927  TIP3      H2             21.4142537457        7.3405234282       77.1462669227  TIP3      9735            0.0000000000
     51458      9928  TIP3      OH2            30.1446191164       17.3404362722       76.5842698405  TIP3      9736            0.0000000000
     51459      9928  TIP3      H1             29.4283278890       16.6960696533       76.8242111556  TIP3      9736            0.0000000000
     51460      9928  TIP3      H2             30.8296573660       16.7180679071       76.3009058753  TIP3      9736            0.0000000000
     51461      9929  TIP3      OH2            34.6589909090       17.1343298598       76.8077779410  TIP3      9737            0.0000000000
     51462      9929  TIP3      H1             34.9363996819       16.3251387203       77.2713328188  TIP3      9737            0.0000000000
     51463      9929  TIP3      H2             35.3960727025       17.2441308713       76.1724281852  TIP3      9737            0.0000000000
     51464      9930  TIP3      OH2            25.5403028780       12.9967325454       76.6102161232  TIP3      9738            0.0000000000
     51465      9930  TIP3      H1             25.7086372694       12.2465722717       77.1983270638  TIP3      9738            0.0000000000
     51466      9930  TIP3      H2             26.2944942979       12.9076305174       75.9938752507  TIP3      9738            0.0000000000
     51467      9931  TIP3      OH2            30.9917769750       14.1036110941       76.3932836804  TIP3      9739            0.0000000000
     51468      9931  TIP3      H1             30.7078821557       14.1838167647       77.3177929070  TIP3      9739            0.0000000000
     51469      9931  TIP3      H2             30.7696779830       13.1547696164       76.2109616843  TIP3      9739            0.0000000000
     51470      9932  TIP3      OH2            26.7383152818       10.9929532301       78.9128851979  TIP3      9740            0.0000000000
     51471      9932  TIP3      H1             26.2890985010       10.4775077349       79.5999299161  TIP3      9740            0.0000000000
     51472      9932  TIP3      H2             27.0453388997       10.3091281216       78.2853976424  TIP3      9740            0.0000000000
     51473      9933  TIP3      OH2            27.8343824438        9.1999293101       77.2300248719  TIP3      9741            0.0000000000
     51474      9933  TIP3      H1             27.6959364022        9.1416293373       76.2631479801  TIP3      9741            0.0000000000
     51475      9933  TIP3      H2             28.8074603835        9.2965319130       77.3031598318  TIP3      9741            0.0000000000
     51476      9934  TIP3      OH2            27.6837413816       19.9495536511       78.3371123400  TIP3      9742            0.0000000000
     51477      9934  TIP3      H1             28.6562791947       20.0200291433       78.3849854008  TIP3      9742            0.0000000000
     51478      9934  TIP3      H2             27.5199573527       20.5214232049       77.5679775753  TIP3      9742            0.0000000000
     51479      9935  TIP3      OH2            21.2068124586       14.4976850921       77.7505728205  TIP3      9743            0.0000000000
     51480      9935  TIP3      H1             22.1634618452       14.6285316137       77.9550895989  TIP3      9743            0.0000000000
     51481      9935  TIP3      H2             21.2953855879       13.8539219441       77.0248159840  TIP3      9743            0.0000000000
     51482      9936  TIP3      OH2            35.9564215495        5.0440930388       76.5183500188  TIP3      9744            0.0000000000
     51483      9936  TIP3      H1             36.5482832635        4.6697940410       77.1812118658  TIP3      9744            0.0000000000
     51484      9936  TIP3      H2             35.0924429255        4.6553234066       76.7302329416  TIP3      9744            0.0000000000
     51485      9937  TIP3      OH2            21.5769928397        1.9963785614       79.0873928502  TIP3      9745            0.0000000000
     51486      9937  TIP3      H1             22.0892562368        2.6417804875       78.5811226506  TIP3      9745            0.0000000000
     51487      9937  TIP3      H2             21.0529594749        2.5738025151       79.6349774202  TIP3      9745            0.0000000000
     51488      9938  TIP3      OH2            23.4242085540        3.9230918927       77.5657322143  TIP3      9746            0.0000000000
     51489      9938  TIP3      H1             23.9491212036        3.2677545922       77.0788477484  TIP3      9746            0.0000000000
     51490      9938  TIP3      H2             24.0484681817        4.1759375656       78.2766830805  TIP3      9746            0.0000000000
     51491      9939  TIP3      OH2            30.3438789991       19.2839649283       78.3968764413  TIP3      9747            0.0000000000
     51492      9939  TIP3      H1             31.2751992144       19.4379902860       78.2303576475  TIP3      9747            0.0000000000
     51493      9939  TIP3      H2             30.1391880062       18.6688069307       77.6558447738  TIP3      9747            0.0000000000
     51494      9940  TIP3      OH2            23.3417031285       18.9133511817       77.0762827772  TIP3      9748            0.0000000000
     51495      9940  TIP3      H1             23.0483232542       19.1244495323       77.9835425681  TIP3      9748            0.0000000000
     51496      9940  TIP3      H2             24.0977491704       18.3217709467       77.2457300997  TIP3      9748            0.0000000000
     51497      9941  TIP3      OH2           -25.9891774390       27.9356837080       77.8012984190  TIP3      9749            0.0000000000
     51498      9941  TIP3      H1            -25.2395552348       28.0048244719       78.4359561558  TIP3      9749            0.0000000000
     51499      9941  TIP3      H2            -25.6198499693       27.2737062182       77.2035112491  TIP3      9749            0.0000000000
     51500      9942  TIP3      OH2           -23.7611178140       28.6134750738       79.2525985379  TIP3      9750            0.0000000000
     51501      9942  TIP3      H1            -23.3439153753       28.9114531811       80.0918981283  TIP3      9750            0.0000000000
     51502      9942  TIP3      H2            -23.4076652252       29.2605431965       78.6163800300  TIP3      9750            0.0000000000
     51503      9943  TIP3      OH2           -19.9677237387       20.5848921968       79.2914669145  TIP3      9751            0.0000000000
     51504      9943  TIP3      H1            -20.9035210100       20.6748554633       79.5272229926  TIP3      9751            0.0000000000
     51505      9943  TIP3      H2            -19.7660780506       21.4153198874       78.8326207149  TIP3      9751            0.0000000000
     51506      9944  TIP3      OH2           -18.7794253884       34.8882730958       77.5556262481  TIP3      9752            0.0000000000
     51507      9944  TIP3      H1            -18.7387256677       35.8255201233       77.7868555149  TIP3      9752            0.0000000000
     51508      9944  TIP3      H2            -17.8466769952       34.6234987543       77.6312075166  TIP3      9752            0.0000000000
     51509      9945  TIP3      OH2           -22.1739692191       29.8251667142       77.1631784268  TIP3      9753            0.0000000000
     51510      9945  TIP3      H1            -22.2695921732       29.6685624255       76.1904732954  TIP3      9753            0.0000000000
     51511      9945  TIP3      H2            -21.3616017631       30.3463269292       77.1612949060  TIP3      9753            0.0000000000
     51512      9946  TIP3      OH2           -26.6669151579       23.7422772561       77.6616765084  TIP3      9754            0.0000000000
     51513      9946  TIP3      H1            -26.9179831390       23.7711084868       78.5942923133  TIP3      9754            0.0000000000
     51514      9946  TIP3      H2            -26.9514968302       22.8503544025       77.3981737302  TIP3      9754            0.0000000000
     51515      9947  TIP3      OH2           -29.8181149446       24.1639234354       76.8322952625  TIP3      9755            0.0000000000
     51516      9947  TIP3      H1            -30.2999333385       23.7421296381       77.5709256559  TIP3      9755            0.0000000000
     51517      9947  TIP3      H2            -30.5220664296       24.5936340276       76.3265057605  TIP3      9755            0.0000000000
     51518      9948  TIP3      OH2           -35.3852845946       24.5899276266       79.1870207763  TIP3      9756            0.0000000000
     51519      9948  TIP3      H1            -34.7405180867       25.1997633437       78.7576970988  TIP3      9756            0.0000000000
     51520      9948  TIP3      H2            -36.0119498871       25.1784591643       79.5947736627  TIP3      9756            0.0000000000
     51521      9949  TIP3      OH2           -31.1312830928       26.8734495237       78.2543422633  TIP3      9757            0.0000000000
     51522      9949  TIP3      H1            -31.6898943859       26.5902693870       77.5092593390  TIP3      9757            0.0000000000
     51523      9949  TIP3      H2            -30.3412967034       27.1603702448       77.7717320791  TIP3      9757            0.0000000000
     51524      9950  TIP3      OH2           -23.9365543072       24.3674996218       78.3419097354  TIP3      9758            0.0000000000
     51525      9950  TIP3      H1            -24.8965408456       24.4658301570       78.2260036016  TIP3      9758            0.0000000000
     51526      9950  TIP3      H2            -23.6239295076       25.1978205882       78.7077824554  TIP3      9758            0.0000000000
     51527      9951  TIP3      OH2           -25.6917055806       32.9034403074       79.2123561827  TIP3      9759            0.0000000000
     51528      9951  TIP3      H1            -26.0521854672       33.7723582123       79.4622713880  TIP3      9759            0.0000000000
     51529      9951  TIP3      H2            -26.4168594760       32.3140369404       79.4199674772  TIP3      9759            0.0000000000
     51530      9952  TIP3      OH2           -18.1404942740       26.4073269172       79.5927746652  TIP3      9760            0.0000000000
     51531      9952  TIP3      H1            -18.7773401798       26.0661035380       78.9231905614  TIP3      9760            0.0000000000
     51532      9952  TIP3      H2            -18.1714703108       27.3600124279       79.3629506752  TIP3      9760            0.0000000000
     51533      9953  TIP3      OH2           -34.5915689114       29.1681897498       77.8987292394  TIP3      9761            0.0000000000
     51534      9953  TIP3      H1            -33.9428255322       29.7739609086       78.3521214630  TIP3      9761            0.0000000000
     51535      9953  TIP3      H2            -35.4312360248       29.5368295273       78.1782118252  TIP3      9761            0.0000000000
     51536      9954  TIP3      OH2           -22.5625396162       33.1346017478       77.9490366339  TIP3      9762            0.0000000000
     51537      9954  TIP3      H1            -22.2885509722       32.8505964712       78.8271441427  TIP3      9762            0.0000000000
     51538      9954  TIP3      H2            -23.5243689684       33.1014542453       78.0570128779  TIP3      9762            0.0000000000
     51539      9955  TIP3      OH2           -28.4865710614       34.3059858645       76.4400437799  TIP3      9763            0.0000000000
     51540      9955  TIP3      H1            -28.3889832566       33.5201038359       75.8796872294  TIP3      9763            0.0000000000
     51541      9955  TIP3      H2            -28.8701677216       33.9065826456       77.2513575514  TIP3      9763            0.0000000000
     51542      9956  TIP3      OH2           -29.7142355250       33.8329360887       78.8849063208  TIP3      9764            0.0000000000
     51543      9956  TIP3      H1            -29.5042950430       33.3556090522       79.7049637543  TIP3      9764            0.0000000000
     51544      9956  TIP3      H2            -29.5845882269       34.7460231648       79.1869409959  TIP3      9764            0.0000000000
     51545      9957  TIP3      OH2           -33.3412964873       31.1321433893       79.2506719807  TIP3      9765            0.0000000000
     51546      9957  TIP3      H1            -33.8485624673       31.4412725075       80.0004774603  TIP3      9765            0.0000000000
     51547      9957  TIP3      H2            -32.6446523983       31.8193930076       79.1635759441  TIP3      9765            0.0000000000
     51548      9958  TIP3      OH2           -27.2956774503       35.1589130209       79.0046040861  TIP3      9766            0.0000000000
     51549      9958  TIP3      H1            -27.8779061856       35.8000216916       79.4493472221  TIP3      9766            0.0000000000
     51550      9958  TIP3      H2            -26.5732609250       35.7643797907       78.7615550299  TIP3      9766            0.0000000000
     51551      9959  TIP3      OH2           -29.4395106262      -36.4500327128       79.7116987812  TIP3      9767            0.0000000000
     51552      9959  TIP3      H1            -29.4643468484      -35.7130736234       79.0810876313  TIP3      9767            0.0000000000
     51553      9959  TIP3      H2            -29.8121195267      -36.1014808446       80.5188563615  TIP3      9767            0.0000000000
     51554      9960  TIP3      OH2           -30.9667233255       23.0694383169       79.0133692513  TIP3      9768            0.0000000000
     51555      9960  TIP3      H1            -31.2038223984       23.9027831288       79.4447213629  TIP3      9768            0.0000000000
     51556      9960  TIP3      H2            -30.0623916173       22.9716324988       79.3536569958  TIP3      9768            0.0000000000
     51557      9961  TIP3      OH2           -32.6404206111       33.8109076707       78.2298409426  TIP3      9769            0.0000000000
     51558      9961  TIP3      H1            -31.9695922368       34.4223317491       78.5702877937  TIP3      9769            0.0000000000
     51559      9961  TIP3      H2            -32.0736166441       33.2804677796       77.6325161673  TIP3      9769            0.0000000000
     51560      9962  TIP3      OH2           -34.2881096195       26.3913421069       77.3962998405  TIP3      9770            0.0000000000
     51561      9962  TIP3      H1            -34.2839356718       27.3397665811       77.6209636263  TIP3      9770            0.0000000000
     51562      9962  TIP3      H2            -35.1791346675       26.1811221310       77.0997250060  TIP3      9770            0.0000000000
     51563      9963  TIP3      OH2           -26.4443973976       36.1303193763       76.6903369525  TIP3      9771            0.0000000000
     51564      9963  TIP3      H1            -27.1772641225       35.4936164430       76.7991851792  TIP3      9771            0.0000000000
     51565      9963  TIP3      H2            -25.7303053618       35.6074130840       76.2960002996  TIP3      9771            0.0000000000
     51566      9964  TIP3      OH2           -21.7082737763       35.9043689768       76.9402255960  TIP3      9772            0.0000000000
     51567      9964  TIP3      H1            -21.4763546423       35.0441992277       77.2836835366  TIP3      9772            0.0000000000
     51568      9964  TIP3      H2            -21.0457595014       36.0680252464       76.2408362121  TIP3      9772            0.0000000000
     51569      9965  TIP3      OH2           -31.0263014136       31.8397389963       76.6217017779  TIP3      9773            0.0000000000
     51570      9965  TIP3      H1            -30.8534093606       31.0842881181       77.1994935570  TIP3      9773            0.0000000000
     51571      9965  TIP3      H2            -30.2735349095       31.7588988150       76.0005184163  TIP3      9773            0.0000000000
     51572      9966  TIP3      OH2           -25.5831966235       32.9608533932       76.4023025490  TIP3      9774            0.0000000000
     51573      9966  TIP3      H1            -25.8633797700       33.0639447089       77.3208567601  TIP3      9774            0.0000000000
     51574      9966  TIP3      H2            -25.7838552043       32.0176075612       76.2158498954  TIP3      9774            0.0000000000
     51575      9967  TIP3      OH2           -29.8285708082       29.8494965403       78.9085318766  TIP3      9775            0.0000000000
     51576      9967  TIP3      H1            -30.2757237932       29.3330206349       79.5970585761  TIP3      9775            0.0000000000
     51577      9967  TIP3      H2            -29.5154980282       29.1671092055       78.2833957382  TIP3      9775            0.0000000000
     51578      9968  TIP3      OH2           -28.7336552734       28.0556004613       77.2310388596  TIP3      9776            0.0000000000
     51579      9968  TIP3      H1            -28.8733177574       28.0034329838       76.2635929308  TIP3      9776            0.0000000000
     51580      9968  TIP3      H2            -27.7603990361       28.1510238045       77.3039798595  TIP3      9776            0.0000000000
     51581      9969  TIP3      OH2           -19.3520767837       30.4423860117       76.6795838290  TIP3      9777            0.0000000000
     51582      9969  TIP3      H1            -19.5883894872       30.0789081910       75.8080794206  TIP3      9777            0.0000000000
     51583      9969  TIP3      H2            -19.3252775512       31.4120956957       76.4612035381  TIP3      9777            0.0000000000
     51584      9970  TIP3      OH2           -35.3235515798       33.4301007103       77.7453560159  TIP3      9778            0.0000000000
     51585      9970  TIP3      H1            -34.3782612232       33.5204874098       77.9807583713  TIP3      9778            0.0000000000
     51586      9970  TIP3      H2            -35.2747159704       32.7196514207       77.0881681790  TIP3      9778            0.0000000000
     51587      9971  TIP3      OH2           -18.1662570801       29.1371478859       78.7554217921  TIP3      9779            0.0000000000
     51588      9971  TIP3      H1            -18.6631142533       29.5712927614       78.0168363343  TIP3      9779            0.0000000000
     51589      9971  TIP3      H2            -18.1970105428       29.8131529365       79.4723067858  TIP3      9779            0.0000000000
     51590      9972  TIP3      OH2           -19.8318151061       26.4929232223       77.3929005274  TIP3      9780            0.0000000000
     51591      9972  TIP3      H1            -19.7781198656       27.1377596129       76.6730454062  TIP3      9780            0.0000000000
     51592      9972  TIP3      H2            -20.0382460316       25.6645018940       76.9084995495  TIP3      9780            0.0000000000
     51593      9973  TIP3      OH2           -20.6068392920       23.9456128619       76.5515139827  TIP3      9781            0.0000000000
     51594      9973  TIP3      H1            -19.9983169453       23.4901911095       77.1583215184  TIP3      9781            0.0000000000
     51595      9973  TIP3      H2            -21.4585944623       23.5200238669       76.7347401112  TIP3      9781            0.0000000000
     51596      9974  TIP3      OH2           -18.5591836100       22.7956241206       78.0952233819  TIP3      9782            0.0000000000
     51597      9974  TIP3      H1            -18.1258094844       22.0667314547       77.5938854579  TIP3      9782            0.0000000000
     51598      9974  TIP3      H2            -17.8364363941       23.4447323275       78.1865793830  TIP3      9782            0.0000000000
     51599      9975  TIP3      OH2           -35.0639503570       20.8640905662       79.0301873789  TIP3      9783            0.0000000000
     51600      9975  TIP3      H1            -34.4493061277       21.4918648688       78.6259837194  TIP3      9783            0.0000000000
     51601      9975  TIP3      H2            -35.4902116990       21.4219826319       79.6804792508  TIP3      9783            0.0000000000
     51602      9976  TIP3      OH2           -33.1369322113       22.7855230838       77.5717070940  TIP3      9784            0.0000000000
     51603      9976  TIP3      H1            -32.6211446051       22.1287208907       77.0799415568  TIP3      9784            0.0000000000
     51604      9976  TIP3      H2            -32.5021648432       23.0191904347       78.2743609988  TIP3      9784            0.0000000000
     51605      9977  TIP3      OH2            -7.1304405607       27.9505403153       77.8056948274  TIP3      9785            0.0000000000
     51606      9977  TIP3      H1             -6.3788964309       28.0046286004       78.4399443663  TIP3      9785            0.0000000000
     51607      9977  TIP3      H2             -6.7672190041       27.2884345210       77.2041464001  TIP3      9785            0.0000000000
     51608      9978  TIP3      OH2            -4.8867224907       28.5971597677       79.2525564343  TIP3      9786            0.0000000000
     51609      9978  TIP3      H1             -4.4884141844       28.9238742410       80.0902046314  TIP3      9786            0.0000000000
     51610      9978  TIP3      H2             -4.5643344885       29.2702061036       78.6219621629  TIP3      9786            0.0000000000
     51611      9979  TIP3      OH2            -1.1109212304       20.5811112254       79.2948781945  TIP3      9787            0.0000000000
     51612      9979  TIP3      H1             -2.0453083485       20.6758867859       79.5279225900  TIP3      9787            0.0000000000
     51613      9979  TIP3      H2             -0.9086320808       21.4143640492       78.8366621779  TIP3      9787            0.0000000000
     51614      9980  TIP3      OH2             0.1024688909       34.8961984900       77.5028995701  TIP3      9788            0.0000000000
     51615      9980  TIP3      H1              0.1160252965       35.8192758940       77.8042651416  TIP3      9788            0.0000000000
     51616      9980  TIP3      H2              1.0255944276       34.6244184083       77.6504092126  TIP3      9788            0.0000000000
     51617      9981  TIP3      OH2            -3.3056312562       29.7762012389       77.1580623209  TIP3      9789            0.0000000000
     51618      9981  TIP3      H1             -3.4200072024       29.6706969875       76.1855545772  TIP3      9789            0.0000000000
     51619      9981  TIP3      H2             -2.5401861438       30.3661254909       77.1836170935  TIP3      9789            0.0000000000
     51620      9982  TIP3      OH2            -7.8106530102       23.7421306120       77.6615525085  TIP3      9790            0.0000000000
     51621      9982  TIP3      H1             -8.0618542145       23.7710816293       78.5941047003  TIP3      9790            0.0000000000
     51622      9982  TIP3      H2             -8.0956523081       22.8503077156       77.3982660006  TIP3      9790            0.0000000000
     51623      9983  TIP3      OH2           -10.9571018815       24.1608444195       76.8326418312  TIP3      9791            0.0000000000
     51624      9983  TIP3      H1            -11.4457948977       23.7385508125       77.5695914576  TIP3      9791            0.0000000000
     51625      9983  TIP3      H2            -11.6609391905       24.5954231508       76.3288483423  TIP3      9791            0.0000000000
     51626      9984  TIP3      OH2           -16.4732822251       24.4735713253       79.1680888307  TIP3      9792            0.0000000000
     51627      9984  TIP3      H1            -15.8855425761       25.1448907528       78.7488288885  TIP3      9792            0.0000000000
     51628      9984  TIP3      H2            -17.0943629522       25.1117360769       79.5725728979  TIP3      9792            0.0000000000
     51629      9985  TIP3      OH2           -12.2737970675       26.8711992769       78.2595591141  TIP3      9793            0.0000000000
     51630      9985  TIP3      H1            -12.8397062219       26.5876688202       77.5199980019  TIP3      9793            0.0000000000
     51631      9985  TIP3      H2            -11.4912728348       27.1581046857       77.7665926361  TIP3      9793            0.0000000000
     51632      9986  TIP3      OH2            -5.0798537546       24.3673531306       78.3425798075  TIP3      9794            0.0000000000
     51633      9986  TIP3      H1             -6.0395286804       24.4655393583       78.2262566249  TIP3      9794            0.0000000000
     51634      9986  TIP3      H2             -4.7657268728       25.1979508960       78.7071305922  TIP3      9794            0.0000000000
     51635      9987  TIP3      OH2            -7.4639068947       32.7112749800       78.9422212559  TIP3      9795            0.0000000000
     51636      9987  TIP3      H1             -7.1486000895       33.5491384595       79.3822704342  TIP3      9795            0.0000000000
     51637      9987  TIP3      H2             -7.7031662442       32.1516586263       79.6623095807  TIP3      9795            0.0000000000
     51638      9988  TIP3      OH2             0.7138272327       26.4065260186       79.5916771607  TIP3      9796            0.0000000000
     51639      9988  TIP3      H1              0.0782390769       26.0654317385       78.9238740730  TIP3      9796            0.0000000000
     51640      9988  TIP3      H2              0.6845126246       27.3605330517       79.3624206548  TIP3      9796            0.0000000000
     51641      9989  TIP3      OH2           -15.6800673765       29.1847626625       77.8657388973  TIP3      9797            0.0000000000
     51642      9989  TIP3      H1            -15.0874120914       29.7925263071       78.3666225973  TIP3      9797            0.0000000000
     51643      9989  TIP3      H2            -16.5647633414       29.4824445337       78.1449644658  TIP3      9797            0.0000000000
     51644      9990  TIP3      OH2            -3.4544394589       32.6882780750       77.7294659072  TIP3      9798            0.0000000000
     51645      9990  TIP3      H1             -3.3564671179       32.8898724965       78.6710231806  TIP3      9798            0.0000000000
     51646      9990  TIP3      H2             -4.3854040455       33.0014040956       77.7362601480  TIP3      9798            0.0000000000
     51647      9991  TIP3      OH2            -9.6669026889       34.3107774436       76.4133280994  TIP3      9799            0.0000000000
     51648      9991  TIP3      H1             -9.4878846402       33.5170126732       75.8942828771  TIP3      9799            0.0000000000
     51649      9991  TIP3      H2             -9.9805673770       33.9127874097       77.2560107671  TIP3      9799            0.0000000000
     51650      9992  TIP3      OH2           -10.9034512184       33.8490367481       78.9013869717  TIP3      9800            0.0000000000
     51651      9992  TIP3      H1            -10.5912667524       33.3617011500       79.6809807420  TIP3      9800            0.0000000000
     51652      9992  TIP3      H2            -10.6929027104       34.7525310080       79.1803344401  TIP3      9800            0.0000000000
     51653      9993  TIP3      OH2           -14.4820386638       31.1472181415       79.2545222386  TIP3      9801            0.0000000000
     51654      9993  TIP3      H1            -14.9929637209       31.4512870307       80.0034453940  TIP3      9801            0.0000000000
     51655      9993  TIP3      H2            -13.7720720510       31.8193539083       79.1650889776  TIP3      9801            0.0000000000
     51656      9994  TIP3      OH2            -8.5300370162       35.2405776113       78.9388120697  TIP3      9802            0.0000000000
     51657      9994  TIP3      H1             -9.0242672270       35.8618916007       79.4865249706  TIP3      9802            0.0000000000
     51658      9994  TIP3      H2             -7.6913673238       35.7222643060       78.7941564695  TIP3      9802            0.0000000000
     51659      9995  TIP3      OH2           -10.5997830697      -36.4354692847       79.7253923041  TIP3      9803            0.0000000000
     51660      9995  TIP3      H1            -10.6112590368      -35.7087584072       79.0821341004  TIP3      9803            0.0000000000
     51661      9995  TIP3      H2            -10.9679484699      -36.0886841818       80.5298441816  TIP3      9803            0.0000000000
     51662      9996  TIP3      OH2           -12.1129120517       23.0748763674       79.0112493245  TIP3      9804            0.0000000000
     51663      9996  TIP3      H1            -12.3400631431       23.9084658871       79.4421890443  TIP3      9804            0.0000000000
     51664      9996  TIP3      H2            -11.2086119562       22.9690487313       79.3520946011  TIP3      9804            0.0000000000
     51665      9997  TIP3      OH2           -13.7364156369       33.7833512991       78.2442144146  TIP3      9805            0.0000000000
     51666      9997  TIP3      H1            -13.0648928930       34.4010582293       78.5704360232  TIP3      9805            0.0000000000
     51667      9997  TIP3      H2            -13.1905108842       33.2704454444       77.6176569206  TIP3      9805            0.0000000000
     51668      9998  TIP3      OH2           -15.4063038032       26.3999637807       77.4243319464  TIP3      9806            0.0000000000
     51669      9998  TIP3      H1            -15.4243172129       27.3494778293       77.6571002625  TIP3      9806            0.0000000000
     51670      9998  TIP3      H2            -16.2943634019       26.2033680946       77.1352341141  TIP3      9806            0.0000000000
     51671      9999  TIP3      OH2            -7.6075158847       36.1513116424       76.6210786590  TIP3      9807            0.0000000000
     51672      9999  TIP3      H1             -8.3026875644       35.5000796090       76.8438934155  TIP3      9807            0.0000000000
     51673      9999  TIP3      H2             -6.8711429978       35.5968546193       76.3624665709  TIP3      9807            0.0000000000
     51674     10000  TIP3      OH2            -2.8608109148       35.9139372117       76.9353581070  TIP3      9808            0.0000000000
     51675     10000  TIP3      H1             -2.6508792434       35.0658890919       77.3249166886  TIP3      9808            0.0000000000
     51676     10000  TIP3      H2             -2.1620596483       36.0747290859       76.2794777367  TIP3      9808            0.0000000000
     51677     10001  TIP3      OH2           -12.1946564725       31.8247906388       76.5986184356  TIP3      9809            0.0000000000
     51678     10001  TIP3      H1            -12.0009938871       31.0929882677       77.2039351203  TIP3      9809            0.0000000000
     51679     10001  TIP3      H2            -11.4201515346       31.7627876543       76.0027564155  TIP3      9809            0.0000000000
     51680     10002  TIP3      OH2            -6.7077096229       32.9764547632       76.3675281862  TIP3      9810            0.0000000000
     51681     10002  TIP3      H1             -6.9874056787       33.0795953137       77.3079186099  TIP3      9810            0.0000000000
     51682     10002  TIP3      H2             -6.9365841113       32.0293227328       76.2384732889  TIP3      9810            0.0000000000
     51683     10003  TIP3      OH2           -10.9683743950       29.8439261140       78.9105030155  TIP3      9811            0.0000000000
     51684     10003  TIP3      H1            -11.4228748935       29.3328957245       79.5974822268  TIP3      9811            0.0000000000
     51685     10003  TIP3      H2            -10.6657808134       29.1619786000       78.2822012169  TIP3      9811            0.0000000000
     51686     10004  TIP3      OH2            -9.8871332947       28.0196126112       77.2244252464  TIP3      9812            0.0000000000
     51687     10004  TIP3      H1            -10.0212840554       28.0038770304       76.2557350588  TIP3      9812            0.0000000000
     51688     10004  TIP3      H2             -8.9173396425       28.1510986311       77.3024054666  TIP3      9812            0.0000000000
     51689     10005  TIP3      OH2            -0.5111157047       30.4656407363       76.6828572368  TIP3      9813            0.0000000000
     51690     10005  TIP3      H1             -0.7263471566       30.0658612617       75.8187742295  TIP3      9813            0.0000000000
     51691     10005  TIP3      H2             -0.4692628969       31.4230073815       76.4483658479  TIP3      9813            0.0000000000
     51692     10006  TIP3      OH2           -16.4769506798       33.3923974747       77.7394007681  TIP3      9814            0.0000000000
     51693     10006  TIP3      H1            -15.5295428163       33.4859199878       77.9748634614  TIP3      9814            0.0000000000
     51694     10006  TIP3      H2            -16.4132539451       32.7026501971       77.0471702275  TIP3      9814            0.0000000000
     51695     10007  TIP3      OH2             0.7056555461       29.1281165749       78.7520209785  TIP3      9815            0.0000000000
     51696     10007  TIP3      H1              0.2000781221       29.5582283245       78.0204935587  TIP3      9815            0.0000000000
     51697     10007  TIP3      H2              0.6612236180       29.8020957958       79.4711026565  TIP3      9815            0.0000000000
     51698     10008  TIP3      OH2            -0.9762661904       26.4938002317       77.3905842198  TIP3      9816            0.0000000000
     51699     10008  TIP3      H1             -0.9210918041       27.1350244464       76.6709309126  TIP3      9816            0.0000000000
     51700     10008  TIP3      H2             -1.1836173039       25.6649943015       76.9098952709  TIP3      9816            0.0000000000
     51701     10009  TIP3      OH2            -1.7527639186       23.9465847167       76.5501156295  TIP3      9817            0.0000000000
     51702     10009  TIP3      H1             -1.1424096408       23.4898766920       77.1581270714  TIP3      9817            0.0000000000
     51703     10009  TIP3      H2             -2.6026828856       23.5200397452       76.7349652850  TIP3      9817            0.0000000000
     51704     10010  TIP3      OH2             0.2943538392       22.8004124105       78.0902115487  TIP3      9818            0.0000000000
     51705     10010  TIP3      H1              0.7362137318       22.0682009108       77.6056819753  TIP3      9818            0.0000000000
     51706     10010  TIP3      H2              1.0183170622       23.4454569065       78.1909321327  TIP3      9818            0.0000000000
     51707     10011  TIP3      OH2           -16.1276348529       20.8464244823       79.1037118786  TIP3      9819            0.0000000000
     51708     10011  TIP3      H1            -15.6198165633       21.4853346041       78.5828235114  TIP3      9819            0.0000000000
     51709     10011  TIP3      H2            -16.6711042007       21.4419055612       79.6055921193  TIP3      9819            0.0000000000
     51710     10012  TIP3      OH2           -14.2958348418       22.7687976978       77.5763910745  TIP3      9820            0.0000000000
     51711     10012  TIP3      H1            -13.7681348469       22.1280614492       77.0731348673  TIP3      9820            0.0000000000
     51712     10012  TIP3      H2            -13.6627824466       23.0308004305       78.2758141468  TIP3      9820            0.0000000000
     51713     10013  TIP3      OH2            11.7232290173       27.9322113293       77.7939036538  TIP3      9821            0.0000000000
     51714     10013  TIP3      H1             12.4784602040       28.0024677604       78.4216561403  TIP3      9821            0.0000000000
     51715     10013  TIP3      H2             12.0895744833       27.2688546566       77.1984557082  TIP3      9821            0.0000000000
     51716     10014  TIP3      OH2            13.9525343371       28.6121451670       79.2522356478  TIP3      9822            0.0000000000
     51717     10014  TIP3      H1             14.3686275299       28.9132352393       80.0909493020  TIP3      9822            0.0000000000
     51718     10014  TIP3      H2             14.3024506945       29.2616070641       78.6160340867  TIP3      9822            0.0000000000
     51719     10015  TIP3      OH2            17.7196304960       20.5677519429       79.2433690481  TIP3      9823            0.0000000000
     51720     10015  TIP3      H1             16.8168949912       20.6805443927       79.5790428245  TIP3      9823            0.0000000000
     51721     10015  TIP3      H2             17.9489837260       21.4282871757       78.8616507608  TIP3      9823            0.0000000000
     51722     10016  TIP3      OH2            18.9444407687       34.9105050389       77.4971852528  TIP3      9824            0.0000000000
     51723     10016  TIP3      H1             18.9782391435       35.8127856098       77.8387369958  TIP3      9824            0.0000000000
     51724     10016  TIP3      H2             19.8572001374       34.5979828856       77.6577573295  TIP3      9824            0.0000000000
     51725     10017  TIP3      OH2            15.5254233498       29.8492809032       77.1618685427  TIP3      9825            0.0000000000
     51726     10017  TIP3      H1             15.4429528194       29.6525553989       76.1944320396  TIP3      9825            0.0000000000
     51727     10017  TIP3      H2             16.3621971779       30.3273145779       77.1713520184  TIP3      9825            0.0000000000
     51728     10018  TIP3      OH2            11.0450139493       23.7424978525       77.6616586493  TIP3      9826            0.0000000000
     51729     10018  TIP3      H1             10.7941750787       23.7708614728       78.5943067157  TIP3      9826            0.0000000000
     51730     10018  TIP3      H2             10.7605306617       22.8504386467       77.3982219235  TIP3      9826            0.0000000000
     51731     10019  TIP3      OH2             7.8999511516       24.1618632899       76.8301605930  TIP3      9827            0.0000000000
     51732     10019  TIP3      H1              7.4129931678       23.7403440299       77.5689724140  TIP3      9827            0.0000000000
     51733     10019  TIP3      H2              7.1940972806       24.5953012545       76.3279794769  TIP3      9827            0.0000000000
     51734     10020  TIP3      OH2             2.3835813103       24.4749282970       79.1669452398  TIP3      9828            0.0000000000
     51735     10020  TIP3      H1              2.9709980286       25.1460216904       78.7488895274  TIP3      9828            0.0000000000
     51736     10020  TIP3      H2              1.7606103533       25.1093236023       79.5738458197  TIP3      9828            0.0000000000
     51737     10021  TIP3      OH2             6.5841619916       26.8702818133       78.2583122924  TIP3      9829            0.0000000000
     51738     10021  TIP3      H1              6.0180167264       26.5789103970       77.5192963833  TIP3      9829            0.0000000000
     51739     10021  TIP3      H2              7.3647502243       27.1592810467       77.7652926754  TIP3      9829            0.0000000000
     51740     10022  TIP3      OH2            13.7754055660       24.3691803431       78.3405887393  TIP3      9830            0.0000000000
     51741     10022  TIP3      H1             12.8151806164       24.4666005464       78.2262061764  TIP3      9830            0.0000000000
     51742     10022  TIP3      H2             14.0875997387       25.1988036023       78.7083421266  TIP3      9830            0.0000000000
     51743     10023  TIP3      OH2            12.0245836363       32.9056026166       79.2181569095  TIP3      9831            0.0000000000
     51744     10023  TIP3      H1             11.6615099714       33.7739207639       79.4632937863  TIP3      9831            0.0000000000
     51745     10023  TIP3      H2             11.3025872023       32.3117859621       79.4224481737  TIP3      9831            0.0000000000
     51746     10024  TIP3      OH2            19.5726572462       26.4034103642       79.5930137419  TIP3      9832            0.0000000000
     51747     10024  TIP3      H1             18.9347698875       26.0630013208       78.9247721978  TIP3      9832            0.0000000000
     51748     10024  TIP3      H2             19.5411829988       27.3566366058       79.3644639418  TIP3      9832            0.0000000000
     51749     10025  TIP3      OH2             3.1759356921       29.1931643053       77.8557557662  TIP3      9833            0.0000000000
     51750     10025  TIP3      H1              3.7682772172       29.7938929889       78.3649824228  TIP3      9833            0.0000000000
     51751     10025  TIP3      H2              2.2915624123       29.4806172039       78.1454495789  TIP3      9833            0.0000000000
     51752     10026  TIP3      OH2            15.1556612368       33.1380364491       77.9364448704  TIP3      9834            0.0000000000
     51753     10026  TIP3      H1             15.4289203172       32.8749553944       78.8254700309  TIP3      9834            0.0000000000
     51754     10026  TIP3      H2             14.1924330325       33.0976329170       78.0647237365  TIP3      9834            0.0000000000
     51755     10027  TIP3      OH2             9.2382952706       34.3068871016       76.4351933296  TIP3      9835            0.0000000000
     51756     10027  TIP3      H1              9.3338574543       33.5222007811       75.8757624207  TIP3      9835            0.0000000000
     51757     10027  TIP3      H2              8.8460359634       33.9060461348       77.2460634927  TIP3      9835            0.0000000000
     51758     10028  TIP3      OH2             8.0074506895       33.8458140682       78.8814626611  TIP3      9836            0.0000000000
     51759     10028  TIP3      H1              8.2051286057       33.3592234883       79.7007875958  TIP3      9836            0.0000000000
     51760     10028  TIP3      H2              8.1300367793       34.7542360304       79.1910281333  TIP3      9836            0.0000000000
     51761     10029  TIP3      OH2             4.3746610823       31.1460464406       79.2568491707  TIP3      9837            0.0000000000
     51762     10029  TIP3      H1              3.8606884257       31.4498369927       80.0034429921  TIP3      9837            0.0000000000
     51763     10029  TIP3      H2              5.0742626404       31.8197418439       79.1648013760  TIP3      9837            0.0000000000
     51764     10030  TIP3      OH2            10.4086103364       35.1607875837       79.0072585787  TIP3      9838            0.0000000000
     51765     10030  TIP3      H1              9.8263680043       35.8039142986       79.4550832896  TIP3      9838            0.0000000000
     51766     10030  TIP3      H2             11.1366290630       35.7636459491       78.7672547241  TIP3      9838            0.0000000000
     51767     10031  TIP3      OH2             8.2972112030      -36.4462776643       79.7199979840  TIP3      9839            0.0000000000
     51768     10031  TIP3      H1              8.2485554722      -35.7146247363       79.0824227384  TIP3      9839            0.0000000000
     51769     10031  TIP3      H2              7.8992199049      -36.1023768806       80.5182337005  TIP3      9839            0.0000000000
     51770     10032  TIP3      OH2             6.7478940066       23.0730941306       79.0098779074  TIP3      9840            0.0000000000
     51771     10032  TIP3      H1              6.5139991334       23.9057405154       79.4400446333  TIP3      9840            0.0000000000
     51772     10032  TIP3      H2              7.6493627132       22.9686744341       79.3545568374  TIP3      9840            0.0000000000
     51773     10033  TIP3      OH2             5.1192381802       33.7794141718       78.2475886366  TIP3      9841            0.0000000000
     51774     10033  TIP3      H1              5.7774756100       34.4103958173       78.5694034584  TIP3      9841            0.0000000000
     51775     10033  TIP3      H2              5.6632750427       33.2690913717       77.6173420784  TIP3      9841            0.0000000000
     51776     10034  TIP3      OH2             3.4498047336       26.3999710507       77.4205652330  TIP3      9842            0.0000000000
     51777     10034  TIP3      H1              3.4298498608       27.3476116649       77.6601908920  TIP3      9842            0.0000000000
     51778     10034  TIP3      H2              2.5578748449       26.1964223108       77.1464241717  TIP3      9842            0.0000000000
     51779     10035  TIP3      OH2            11.2676713946       36.1333208185       76.6869226814  TIP3      9843            0.0000000000
     51780     10035  TIP3      H1             10.5309992032       35.4985499633       76.8023453463  TIP3      9843            0.0000000000
     51781     10035  TIP3      H2             11.9742241456       35.6025501626       76.3145848175  TIP3      9843            0.0000000000
     51782     10036  TIP3      OH2            15.9689922546       35.8793009140       76.9157138484  TIP3      9844            0.0000000000
     51783     10036  TIP3      H1             16.2384754390       35.0491512657       77.3069571860  TIP3      9844            0.0000000000
     51784     10036  TIP3      H2             16.6701324964       36.0798539669       76.2726711618  TIP3      9844            0.0000000000
     51785     10037  TIP3      OH2             6.6883516365       31.8448142277       76.6250549278  TIP3      9845            0.0000000000
     51786     10037  TIP3      H1              6.8587911881       31.0888181958       77.2066499097  TIP3      9845            0.0000000000
     51787     10037  TIP3      H2              7.4374047066       31.7573740562       76.0007945164  TIP3      9845            0.0000000000
     51788     10038  TIP3      OH2            12.1670984616       32.9826736505       76.3994513673  TIP3      9846            0.0000000000
     51789     10038  TIP3      H1             11.8442384311       33.0681524304       77.3098796914  TIP3      9846            0.0000000000
     51790     10038  TIP3      H2             11.9282888685       32.0397484386       76.2140366290  TIP3      9846            0.0000000000
     51791     10039  TIP3      OH2             7.8830492817       29.8476817885       78.9114275270  TIP3      9847            0.0000000000
     51792     10039  TIP3      H1              7.4330724214       29.3329011742       79.5983459720  TIP3      9847            0.0000000000
     51793     10039  TIP3      H2              8.1906593749       29.1637275373       78.2848243606  TIP3      9847            0.0000000000
     51794     10040  TIP3      OH2             8.9763409749       28.0549824076       77.2305810494  TIP3      9848            0.0000000000
     51795     10040  TIP3      H1              8.8247357512       27.9901387966       76.2671977278  TIP3      9848            0.0000000000
     51796     10040  TIP3      H2              9.9500449673       28.1510399489       77.3008433556  TIP3      9848            0.0000000000
     51797     10041  TIP3      OH2            18.3404787829       30.4643594870       76.6805697326  TIP3      9849            0.0000000000
     51798     10041  TIP3      H1             18.1332727024       30.0649853640       75.8118863739  TIP3      9849            0.0000000000
     51799     10041  TIP3      H2             18.3944699392       31.4220851466       76.4469545248  TIP3      9849            0.0000000000
     51800     10042  TIP3      OH2             2.3943126005       33.4029355557       77.7380879942  TIP3      9850            0.0000000000
     51801     10042  TIP3      H1              3.3424474407       33.4747003356       77.9705083190  TIP3      9850            0.0000000000
     51802     10042  TIP3      H2              2.4215412964       32.7038353510       77.0519319211  TIP3      9850            0.0000000000
     51803     10043  TIP3      OH2            19.5462681985       29.1383069144       78.7541925098  TIP3      9851            0.0000000000
     51804     10043  TIP3      H1             19.0498123263       29.5708506255       78.0160883042  TIP3      9851            0.0000000000
     51805     10043  TIP3      H2             19.5154469255       29.8130835928       79.4722219406  TIP3      9851            0.0000000000
     51806     10044  TIP3      OH2            17.8783767404       26.4939418347       77.3899741083  TIP3      9852            0.0000000000
     51807     10044  TIP3      H1             17.9361540008       27.1342757913       76.6699231834  TIP3      9852            0.0000000000
     51808     10044  TIP3      H2             17.6738868679       25.6640448392       76.9091579990  TIP3      9852            0.0000000000
     51809     10045  TIP3      OH2            17.1005915034       23.9495866283       76.5496862019  TIP3      9853            0.0000000000
     51810     10045  TIP3      H1             17.7116950727       23.4896640539       77.1578918336  TIP3      9853            0.0000000000
     51811     10045  TIP3      H2             16.2539226199       23.5187059584       76.7357110998  TIP3      9853            0.0000000000
     51812     10046  TIP3      OH2            19.1515430481       22.7998183944       78.0886534656  TIP3      9854            0.0000000000
     51813     10046  TIP3      H1             19.5860531561       22.0668544245       77.5943462545  TIP3      9854            0.0000000000
     51814     10046  TIP3      H2             19.8770771911       23.4432061127       78.1888089107  TIP3      9854            0.0000000000
     51815     10047  TIP3      OH2             2.7236096708       20.8494628765       79.0792541608  TIP3      9855            0.0000000000
     51816     10047  TIP3      H1              3.2351579704       21.4988239999       78.5781559764  TIP3      9855            0.0000000000
     51817     10047  TIP3      H2              2.2012393322       21.4291827536       79.6312585391  TIP3      9855            0.0000000000
     51818     10048  TIP3      OH2             4.5679411491       22.7801046337       77.5665017707  TIP3      9856            0.0000000000
     51819     10048  TIP3      H1              5.0909772784       22.1274344987       77.0757428382  TIP3      9856            0.0000000000
     51820     10048  TIP3      H2              5.1927338741       23.0315763435       78.2768738782  TIP3      9856            0.0000000000
     51821     10049  TIP3      OH2            30.5772447743       27.9370467439       77.7971169148  TIP3      9857            0.0000000000
     51822     10049  TIP3      H1             31.3304977007       28.0058662842       78.4275354173  TIP3      9857            0.0000000000
     51823     10049  TIP3      H2             30.9451214177       27.2739929369       77.2025318035  TIP3      9857            0.0000000000
     51824     10050  TIP3      OH2            32.7694190187       28.6105321998       79.2923603614  TIP3      9858            0.0000000000
     51825     10050  TIP3      H1             33.2216313784       28.9243014299       80.1014184240  TIP3      9858            0.0000000000
     51826     10050  TIP3      H2             33.1211187521       29.2436526545       78.6392871553  TIP3      9858            0.0000000000
     51827     10051  TIP3      OH2            34.3824546657       29.8256334666       77.1720399248  TIP3      9859            0.0000000000
     51828     10051  TIP3      H1             34.3123385477       29.6334748942       76.2083448839  TIP3      9859            0.0000000000
     51829     10051  TIP3      H2             35.1846020735       30.3489174811       77.1855021910  TIP3      9859            0.0000000000
     51830     10052  TIP3      OH2            29.9621211435       23.7018331118       77.6799422806  TIP3      9860            0.0000000000
     51831     10052  TIP3      H1             29.6311093368       23.7767463079       78.5893809857  TIP3      9860            0.0000000000
     51832     10052  TIP3      H2             29.5825349549       22.8552967824       77.3895193301  TIP3      9860            0.0000000000
     51833     10053  TIP3      OH2            26.7590424635       24.1643924769       76.8383690677  TIP3      9861            0.0000000000
     51834     10053  TIP3      H1             26.2686956405       23.7413334790       77.5722073013  TIP3      9861            0.0000000000
     51835     10053  TIP3      H2             26.0538872687       24.5940414847       76.3304441474  TIP3      9861            0.0000000000
     51836     10054  TIP3      OH2            21.2415394242       24.4729315366       79.1668143481  TIP3      9862            0.0000000000
     51837     10054  TIP3      H1             21.8281350334       25.1439758165       78.7494488977  TIP3      9862            0.0000000000
     51838     10054  TIP3      H2             20.6177540333       25.1091141423       79.5733943025  TIP3      9862            0.0000000000
     51839     10055  TIP3      OH2            25.4384432204       26.8723077151       78.2584473737  TIP3      9863            0.0000000000
     51840     10055  TIP3      H1             24.8722037337       26.5869241710       77.5208026309  TIP3      9863            0.0000000000
     51841     10055  TIP3      H2             26.2204645180       27.1593647292       77.7656016089  TIP3      9863            0.0000000000
     51842     10056  TIP3      OH2            32.6571349374       24.3282481733       78.3659418595  TIP3      9864            0.0000000000
     51843     10056  TIP3      H1             31.6967178044       24.4375919589       78.2039382750  TIP3      9864            0.0000000000
     51844     10056  TIP3      H2             32.9058329115       25.1994411844       78.6891539689  TIP3      9864            0.0000000000
     51845     10057  TIP3      OH2            30.8694429184       32.9019387293       79.2203115215  TIP3      9865            0.0000000000
     51846     10057  TIP3      H1             30.5149927412       33.7753993405       79.4600473946  TIP3      9865            0.0000000000
     51847     10057  TIP3      H2             30.1468597198       32.3107483246       79.4284784707  TIP3      9865            0.0000000000
     51848     10058  TIP3      OH2            22.0258789386       29.1921698858       77.8597799247  TIP3      9866            0.0000000000
     51849     10058  TIP3      H1             22.6232274656       29.7916316333       78.3665155698  TIP3      9866            0.0000000000
     51850     10058  TIP3      H2             21.1442080404       29.4834810563       78.1464058790  TIP3      9866            0.0000000000
     51851     10059  TIP3      OH2            33.9542701002       33.1198937557       77.9294210829  TIP3      9867            0.0000000000
     51852     10059  TIP3      H1             34.2690293212       32.8781305830       78.8061987984  TIP3      9867            0.0000000000
     51853     10059  TIP3      H2             33.0000820011       33.0751870082       78.0709510624  TIP3      9867            0.0000000000
     51854     10060  TIP3      OH2            28.0945877764       34.3040827282       76.4348799241  TIP3      9868            0.0000000000
     51855     10060  TIP3      H1             28.1777435569       33.5164616090       75.8759395033  TIP3      9868            0.0000000000
     51856     10060  TIP3      H2             27.7031684162       33.9075021082       77.2472482752  TIP3      9868            0.0000000000
     51857     10061  TIP3      OH2            26.8656523599       33.8360726109       78.8858813420  TIP3      9869            0.0000000000
     51858     10061  TIP3      H1             27.0852681137       33.3559551378       79.7010137844  TIP3      9869            0.0000000000
     51859     10061  TIP3      H2             26.9845713615       34.7488007327       79.1897378387  TIP3      9869            0.0000000000
     51860     10062  TIP3      OH2            23.2286518561       31.1456715542       79.2503570471  TIP3      9870            0.0000000000
     51861     10062  TIP3      H1             22.7227100092       31.4319957601       80.0092574786  TIP3      9870            0.0000000000
     51862     10062  TIP3      H2             23.9376891176       31.8185934133       79.1657911545  TIP3      9870            0.0000000000
     51863     10063  TIP3      OH2            29.2741477624       35.1600312469       78.9962174179  TIP3      9871            0.0000000000
     51864     10063  TIP3      H1             28.6837786333       35.7921278645       79.4551372406  TIP3      9871            0.0000000000
     51865     10063  TIP3      H2             30.0011012147       35.7673615388       78.7676821709  TIP3      9871            0.0000000000
     51866     10064  TIP3      OH2            27.1452593266      -36.4402818698       79.7112111713  TIP3      9872            0.0000000000
     51867     10064  TIP3      H1             27.1052616560      -35.7066341929       79.0785353447  TIP3      9872            0.0000000000
     51868     10064  TIP3      H2             26.7563575799      -36.1004651257       80.5159616420  TIP3      9872            0.0000000000
     51869     10065  TIP3      OH2            25.6046531882       23.0736054049       79.0052362551  TIP3      9873            0.0000000000
     51870     10065  TIP3      H1             25.3660084578       23.9025270044       79.4418347519  TIP3      9873            0.0000000000
     51871     10065  TIP3      H2             26.4980991446       22.9662102920       79.3648507489  TIP3      9873            0.0000000000
     51872     10066  TIP3      OH2            23.9735051740       33.7797725136       78.2464237645  TIP3      9874            0.0000000000
     51873     10066  TIP3      H1             24.6330841087       34.4109341944       78.5670177127  TIP3      9874            0.0000000000
     51874     10066  TIP3      H2             24.5177807241       33.2690770794       77.6172093027  TIP3      9874            0.0000000000
     51875     10067  TIP3      OH2            22.3060335155       26.4008356556       77.4176510869  TIP3      9875            0.0000000000
     51876     10067  TIP3      H1             22.2864506726       27.3481159466       77.6585309081  TIP3      9875            0.0000000000
     51877     10067  TIP3      H2             21.4134208061       26.1961323117       77.1466118321  TIP3      9875            0.0000000000
     51878     10068  TIP3      OH2            30.1286724867       36.1353664167       76.6793006455  TIP3      9876            0.0000000000
     51879     10068  TIP3      H1             29.3902515169       35.5024348702       76.8022206851  TIP3      9876            0.0000000000
     51880     10068  TIP3      H2             30.8356753959       35.5958851296       76.3195491678  TIP3      9876            0.0000000000
     51881     10069  TIP3      OH2            34.8874049424       35.9118283519       76.9685327018  TIP3      9877            0.0000000000
     51882     10069  TIP3      H1             35.0690694554       35.0275336918       77.3099064351  TIP3      9877            0.0000000000
     51883     10069  TIP3      H2             35.5400744725       36.0663883732       76.2606937172  TIP3      9877            0.0000000000
     51884     10070  TIP3      OH2            25.5437660593       31.8403402081       76.6249827101  TIP3      9878            0.0000000000
     51885     10070  TIP3      H1             25.7154279841       31.0851352397       77.2079598696  TIP3      9878            0.0000000000
     51886     10070  TIP3      H2             26.2938726600       31.7565435388       76.0013485540  TIP3      9878            0.0000000000
     51887     10071  TIP3      OH2            31.0063810691       32.9779131547       76.3950952842  TIP3      9879            0.0000000000
     51888     10071  TIP3      H1             30.6872817430       33.0735330635       77.3062256389  TIP3      9879            0.0000000000
     51889     10071  TIP3      H2             30.7707882303       32.0337157993       76.2141330565  TIP3      9879            0.0000000000
     51890     10072  TIP3      OH2            26.7400793503       29.8474601517       78.9110970491  TIP3      9880            0.0000000000
     51891     10072  TIP3      H1             26.2892458962       29.3342839660       79.5992600556  TIP3      9880            0.0000000000
     51892     10072  TIP3      H2             27.0432754238       29.1632624934       78.2836818564  TIP3      9880            0.0000000000
     51893     10073  TIP3      OH2            27.8345812287       28.0550701939       77.2295574843  TIP3      9881            0.0000000000
     51894     10073  TIP3      H1             27.6969979495       28.0007219251       76.2623327162  TIP3      9881            0.0000000000
     51895     10073  TIP3      H2             28.8076238102       28.1529644706       77.3035347718  TIP3      9881            0.0000000000
     51896     10074  TIP3      OH2            21.2288723029       33.3886450557       77.7425842204  TIP3      9882            0.0000000000
     51897     10074  TIP3      H1             22.1782435265       33.4822902685       77.9669944397  TIP3      9882            0.0000000000
     51898     10074  TIP3      H2             21.2925820725       32.7041249577       77.0449086867  TIP3      9882            0.0000000000
     51899     10075  TIP3      OH2            35.9629377961       23.8861379692       76.5145676891  TIP3      9883            0.0000000000
     51900     10075  TIP3      H1             36.5711826848       23.5590363675       77.1866990034  TIP3      9883            0.0000000000
     51901     10075  TIP3      H2             35.0904760350       23.5199751286       76.7169287779  TIP3      9883            0.0000000000
     51902     10076  TIP3      OH2            21.5797395014       20.8566692547       79.0591807754  TIP3      9884            0.0000000000
     51903     10076  TIP3      H1             22.0928869140       21.5147647928       78.5720655495  TIP3      9884            0.0000000000
     51904     10076  TIP3      H2             21.0623319870       21.4063711373       79.6487019995  TIP3      9884            0.0000000000
     51905     10077  TIP3      OH2            23.4225799132       22.7828718320       77.5678747140  TIP3      9885            0.0000000000
     51906     10077  TIP3      H1             23.9428724683       22.1189344433       77.0927232494  TIP3      9885            0.0000000000
     51907     10077  TIP3      H2             24.0468497797       23.0329388335       78.2797156030  TIP3      9885            0.0000000000
     51908     10078  TIP3      OH2           -24.6684699175      -26.3811213596      -73.3001981904  TIP3      9886            0.0000000000
     51909     10078  TIP3      H1            -24.6726712023      -25.4001268529      -73.3143649920  TIP3      9886            0.0000000000
     51910     10078  TIP3      H2            -25.3980445441      -26.6041899722      -73.9021675618  TIP3      9886            0.0000000000
     51911     10079  TIP3      OH2           -25.8450997449      -27.1242895806      -69.8100360587  TIP3      9887            0.0000000000
     51912     10079  TIP3      H1            -25.8110246693      -27.7534315666      -69.0729753726  TIP3      9887            0.0000000000
     51913     10079  TIP3      H2            -26.1582751883      -27.6481488933      -70.5567853997  TIP3      9887            0.0000000000
     51914     10080  TIP3      OH2           -33.4034927015      -27.4595177469      -68.2792848458  TIP3      9888            0.0000000000
     51915     10080  TIP3      H1            -33.3471361180      -28.1321810802      -67.5669572330  TIP3      9888            0.0000000000
     51916     10080  TIP3      H2            -32.7035193817      -26.8525043589      -68.0012781297  TIP3      9888            0.0000000000
     51917     10081  TIP3      OH2           -22.1465463553      -24.1716758782      -71.5385556350  TIP3      9889            0.0000000000
     51918     10081  TIP3      H1            -22.5254682494      -24.8788520549      -70.9972856077  TIP3      9889            0.0000000000
     51919     10081  TIP3      H2            -22.0910571179      -23.4818278731      -70.8409824366  TIP3      9889            0.0000000000
     51920     10082  TIP3      OH2           -32.5363930377      -23.0154560304      -69.7254939063  TIP3      9890            0.0000000000
     51921     10082  TIP3      H1            -32.8502259877      -23.8718753821      -70.0710197513  TIP3      9890            0.0000000000
     51922     10082  TIP3      H2            -31.5782099141      -23.1849544900      -69.7039781987  TIP3      9890            0.0000000000
     51923     10083  TIP3      OH2           -35.6198097326      -29.4495799522      -74.6681734856  TIP3      9891            0.0000000000
     51924     10083  TIP3      H1            -36.0712268429      -28.6465563061      -74.3143900814  TIP3      9891            0.0000000000
     51925     10083  TIP3      H2            -36.4102042333      -29.9890693163      -74.6595409745  TIP3      9891            0.0000000000
     51926     10084  TIP3      OH2           -35.2159905785      -27.2707224928      -72.1527154018  TIP3      9892            0.0000000000
     51927     10084  TIP3      H1            -34.9216762730      -28.0342844699      -71.6315447166  TIP3      9892            0.0000000000
     51928     10084  TIP3      H2            -34.4790901576      -27.1083346975      -72.7559705160  TIP3      9892            0.0000000000
     51929     10085  TIP3      OH2           -25.0147401290      -19.0157362746      -71.2748304181  TIP3      9893            0.0000000000
     51930     10085  TIP3      H1            -24.3610597108      -19.7007506034      -71.5627158679  TIP3      9893            0.0000000000
     51931     10085  TIP3      H2            -25.2209562172      -19.3565009075      -70.4057096286  TIP3      9893            0.0000000000
     51932     10086  TIP3      OH2           -27.4625709017      -24.7218215143      -69.3412829027  TIP3      9894            0.0000000000
     51933     10086  TIP3      H1            -27.0717841567      -25.3493819081      -69.9680202004  TIP3      9894            0.0000000000
     51934     10086  TIP3      H2            -26.6485425820      -24.5633701352      -68.7939710857  TIP3      9894            0.0000000000
     51935     10087  TIP3      OH2           -18.8509490412      -33.0684269223      -68.6006705762  TIP3      9895            0.0000000000
     51936     10087  TIP3      H1            -18.6582494804      -32.4941571210      -67.8248457318  TIP3      9895            0.0000000000
     51937     10087  TIP3      H2            -18.2870242286      -32.6451524351      -69.2629624704  TIP3      9895            0.0000000000
     51938     10088  TIP3      OH2           -24.2635774263      -30.2534892734      -68.9993944698  TIP3      9896            0.0000000000
     51939     10088  TIP3      H1            -24.1122180727      -31.2214819134      -68.9998520950  TIP3      9896            0.0000000000
     51940     10088  TIP3      H2            -24.3732674838      -30.1100355516      -69.9605837783  TIP3      9896            0.0000000000
     51941     10089  TIP3      OH2           -31.1409672606      -32.1674139127      -71.7722915008  TIP3      9897            0.0000000000
     51942     10089  TIP3      H1            -31.0257455722      -31.3371351285      -72.2647111975  TIP3      9897            0.0000000000
     51943     10089  TIP3      H2            -31.5421306094      -32.7155403125      -72.4787151761  TIP3      9897            0.0000000000
     51944     10090  TIP3      OH2           -23.4098807216      -32.1048005471      -73.4244908840  TIP3      9898            0.0000000000
     51945     10090  TIP3      H1            -22.7552390680      -32.3795510048      -72.7434344419  TIP3      9898            0.0000000000
     51946     10090  TIP3      H2            -22.8587599643      -31.5260912002      -73.9743465510  TIP3      9898            0.0000000000
     51947     10091  TIP3      OH2           -34.5636187196      -29.8441661894      -71.1168823449  TIP3      9899            0.0000000000
     51948     10091  TIP3      H1            -33.8341096843      -30.3119161515      -70.6560836626  TIP3      9899            0.0000000000
     51949     10091  TIP3      H2            -34.3873684094      -30.1061268524      -72.0312008698  TIP3      9899            0.0000000000
     51950     10092  TIP3      OH2           -29.3780974483      -28.1999306281      -71.7413779360  TIP3      9900            0.0000000000
     51951     10092  TIP3      H1            -28.7022573420      -28.7786553431      -71.3465593805  TIP3      9900            0.0000000000
     51952     10092  TIP3      H2            -29.8879071651      -28.8558924526      -72.2561329670  TIP3      9900            0.0000000000
     51953     10093  TIP3      OH2           -18.3875146148      -31.6553944761      -66.3224433565  TIP3      9901            0.0000000000
     51954     10093  TIP3      H1            -19.0111177848      -30.9063075092      -66.4249233779  TIP3      9901            0.0000000000
     51955     10093  TIP3      H2            -18.3643754342      -31.7647222744      -65.3662915248  TIP3      9901            0.0000000000
     51956     10094  TIP3      OH2           -32.2173779849      -33.2401741896      -67.7793852551  TIP3      9902            0.0000000000
     51957     10094  TIP3      H1            -32.5472737340      -32.6514796536      -68.4940208820  TIP3      9902            0.0000000000
     51958     10094  TIP3      H2            -32.9074277728      -33.0387546192      -67.0909543589  TIP3      9902            0.0000000000
     51959     10095  TIP3      OH2           -24.9654044197      -23.7885952052      -74.2149490643  TIP3      9903            0.0000000000
     51960     10095  TIP3      H1            -25.2334713632      -24.0566287582      -75.1058781557  TIP3      9903            0.0000000000
     51961     10095  TIP3      H2            -25.2645989644      -22.8562221596      -74.1593860595  TIP3      9903            0.0000000000
     51962     10096  TIP3      OH2           -29.7157281625      -25.6186935513      -67.5192552910  TIP3      9904            0.0000000000
     51963     10096  TIP3      H1            -30.4305435055      -24.9824193893      -67.2983673466  TIP3      9904            0.0000000000
     51964     10096  TIP3      H2            -29.0125480954      -25.0190611209      -67.8102015436  TIP3      9904            0.0000000000
     51965     10097  TIP3      OH2           -21.5965781776      -32.7572041359      -71.4446121350  TIP3      9905            0.0000000000
     51966     10097  TIP3      H1            -21.8461332228      -33.4958073032      -70.8786628010  TIP3      9905            0.0000000000
     51967     10097  TIP3      H2            -20.9344305097      -32.3047133475      -70.8968535590  TIP3      9905            0.0000000000
     51968     10098  TIP3      OH2           -32.7088060234      -31.3885967986      -69.7300213455  TIP3      9906            0.0000000000
     51969     10098  TIP3      H1            -32.0726176272      -30.7218548643      -69.3826297274  TIP3      9906            0.0000000000
     51970     10098  TIP3      H2            -32.1681687335      -31.7884603980      -70.4622577320  TIP3      9906            0.0000000000
     51971     10099  TIP3      OH2           -31.2955215022      -23.6315688005      -66.7104719250  TIP3      9907            0.0000000000
     51972     10099  TIP3      H1            -31.3388094987      -22.7111300498      -67.0302191877  TIP3      9907            0.0000000000
     51973     10099  TIP3      H2            -32.1744489994      -23.7111394419      -66.2651364061  TIP3      9907            0.0000000000
     51974     10100  TIP3      OH2           -35.2455116784      -23.9631694007      -75.9307133894  TIP3      9908            0.0000000000
     51975     10100  TIP3      H1            -35.4199137855      -23.6378149953      -76.8338641558  TIP3      9908            0.0000000000
     51976     10100  TIP3      H2            -35.1182752084      -23.1546624674      -75.3914933528  TIP3      9908            0.0000000000
     51977     10101  TIP3      OH2           -21.4887045969      -22.1392046723      -69.3817581630  TIP3      9909            0.0000000000
     51978     10101  TIP3      H1            -22.4067082708      -22.2754004216      -69.0323834517  TIP3      9909            0.0000000000
     51979     10101  TIP3      H2            -21.3461222394      -21.1958946707      -69.3451089538  TIP3      9909            0.0000000000
     51980     10102  TIP3      OH2           -21.2391588942      -34.0548686630      -67.6949266595  TIP3      9910            0.0000000000
     51981     10102  TIP3      H1            -21.9869239557      -33.4657667957      -67.8503046945  TIP3      9910            0.0000000000
     51982     10102  TIP3      H2            -20.5514699750      -33.6494210808      -68.2627814147  TIP3      9910            0.0000000000
     51983     10103  TIP3      OH2           -28.3485606048      -35.9427829408      -70.4838365466  TIP3      9911            0.0000000000
     51984     10103  TIP3      H1            -28.2828159479      -36.8972113035      -70.3166095605  TIP3      9911            0.0000000000
     51985     10103  TIP3      H2            -29.0792631433      -35.5811818240      -69.9687110691  TIP3      9911            0.0000000000
     51986     10104  TIP3      OH2           -23.3480703597      -20.5429089239      -72.5689544546  TIP3      9912            0.0000000000
     51987     10104  TIP3      H1            -22.9056855772      -21.2782012096      -73.0407827510  TIP3      9912            0.0000000000
     51988     10104  TIP3      H2            -22.8893440184      -19.7622494425      -72.9469772008  TIP3      9912            0.0000000000
     51989     10105  TIP3      OH2           -22.1207939666      -22.6323466398      -74.0311407357  TIP3      9913            0.0000000000
     51990     10105  TIP3      H1            -22.4173402344      -23.3178367961      -74.6554368671  TIP3      9913            0.0000000000
     51991     10105  TIP3      H2            -22.1007926108      -23.1260766971      -73.1854328949  TIP3      9913            0.0000000000
     51992     10106  TIP3      OH2           -20.4201260235      -24.0423846978      -65.5241739865  TIP3      9914            0.0000000000
     51993     10106  TIP3      H1            -20.4036250238      -24.6751853022      -66.2720198697  TIP3      9914            0.0000000000
     51994     10106  TIP3      H2            -20.3423783905      -23.2050679141      -66.0085224972  TIP3      9914            0.0000000000
     51995     10107  TIP3      OH2           -26.0205633178      -27.1451932352      -75.8120531256  TIP3      9915            0.0000000000
     51996     10107  TIP3      H1            -26.7089116966      -26.5531479865      -76.1776521528  TIP3      9915            0.0000000000
     51997     10107  TIP3      H2            -25.3080196603      -27.0515242255      -76.4700814181  TIP3      9915            0.0000000000
     51998     10108  TIP3      OH2           -26.0096667659      -28.6466056755      -78.6658814312  TIP3      9916            0.0000000000
     51999     10108  TIP3      H1            -25.2258700993      -28.5748922483      -78.1030322036  TIP3      9916            0.0000000000
     52000     10108  TIP3      H2            -25.6586262544      -29.2355963897      -79.3347655620  TIP3      9916            0.0000000000
     52001     10109  TIP3      OH2           -18.5372928351      -27.7610798155      -67.4846656784  TIP3      9917            0.0000000000
     52002     10109  TIP3      H1            -19.2384263684      -27.0533227913      -67.4529624030  TIP3      9917            0.0000000000
     52003     10109  TIP3      H2            -18.1223070020      -27.4833952176      -68.3193288883  TIP3      9917            0.0000000000
     52004     10110  TIP3      OH2           -22.5704437487      -26.9349464864      -74.8360377210  TIP3      9918            0.0000000000
     52005     10110  TIP3      H1            -23.3134420204      -26.6867055910      -74.2329700073  TIP3      9918            0.0000000000
     52006     10110  TIP3      H2            -22.0913865288      -27.6053025470      -74.3166167564  TIP3      9918            0.0000000000
     52007     10111  TIP3      OH2           -22.6448654235      -28.7769483925      -65.7189380616  TIP3      9919            0.0000000000
     52008     10111  TIP3      H1            -22.6224769506      -27.9354853131      -65.2306992792  TIP3      9919            0.0000000000
     52009     10111  TIP3      H2            -23.2440476567      -28.4655219965      -66.4310506138  TIP3      9919            0.0000000000
     52010     10112  TIP3      OH2           -30.9309590152      -26.2625059981      -72.9386172518  TIP3      9920            0.0000000000
     52011     10112  TIP3      H1            -31.2843557643      -26.6636368266      -73.7694052660  TIP3      9920            0.0000000000
     52012     10112  TIP3      H2            -30.3276018090      -26.9638277146      -72.6075181267  TIP3      9920            0.0000000000
     52013     10113  TIP3      OH2           -29.6330797614      -22.8847199154      -70.2637836552  TIP3      9921            0.0000000000
     52014     10113  TIP3      H1            -29.6279058411      -23.4141417246      -71.0706354368  TIP3      9921            0.0000000000
     52015     10113  TIP3      H2            -28.8504118633      -23.2439825953      -69.8020476368  TIP3      9921            0.0000000000
     52016     10114  TIP3      OH2           -30.5871360390      -27.5275478747      -69.2776729603  TIP3      9922            0.0000000000
     52017     10114  TIP3      H1            -30.0571970567      -27.4180855344      -70.0886418436  TIP3      9922            0.0000000000
     52018     10114  TIP3      H2            -30.2238546332      -26.8416356596      -68.6716666661  TIP3      9922            0.0000000000
     52019     10115  TIP3      OH2           -24.3106473954      -21.8899342421      -68.6030964928  TIP3      9923            0.0000000000
     52020     10115  TIP3      H1            -24.4929894422      -21.3190153677      -67.8617187598  TIP3      9923            0.0000000000
     52021     10115  TIP3      H2            -24.3634963644      -22.7904336074      -68.1912116567  TIP3      9923            0.0000000000
     52022     10116  TIP3      OH2           -29.6678259238      -23.0916022025      -64.5788260311  TIP3      9924            0.0000000000
     52023     10116  TIP3      H1            -30.0779418305      -22.3345566102      -64.1097623004  TIP3      9924            0.0000000000
     52024     10116  TIP3      H2            -30.3194741936      -23.2915312415      -65.2938931142  TIP3      9924            0.0000000000
     52025     10117  TIP3      OH2           -23.6758043922      -27.7490541756      -77.1730049866  TIP3      9925            0.0000000000
     52026     10117  TIP3      H1            -23.1373496520      -27.5415663626      -76.3686031787  TIP3      9925            0.0000000000
     52027     10117  TIP3      H2            -23.2664150577      -27.1948386229      -77.8674983182  TIP3      9925            0.0000000000
     52028     10118  TIP3      OH2           -32.7305298326      -26.9228536769      -65.4047319815  TIP3      9926            0.0000000000
     52029     10118  TIP3      H1            -32.6845255996      -26.2412720521      -64.7117594717  TIP3      9926            0.0000000000
     52030     10118  TIP3      H2            -33.6698791544      -26.8354342401      -65.6386321855  TIP3      9926            0.0000000000
     52031     10119  TIP3      OH2           -25.9866502300      -21.0089850433      -73.7256927259  TIP3      9927            0.0000000000
     52032     10119  TIP3      H1            -25.5450969854      -20.6995756382      -72.9235158279  TIP3      9927            0.0000000000
     52033     10119  TIP3      H2            -26.5316884907      -20.2569225670      -73.9808547025  TIP3      9927            0.0000000000
     52034     10120  TIP3      OH2           -31.4230524591      -21.0314288376      -63.8496042998  TIP3      9928            0.0000000000
     52035     10120  TIP3      H1            -31.4975530988      -21.1768755427      -64.8085061600  TIP3      9928            0.0000000000
     52036     10120  TIP3      H2            -32.3484765950      -21.1885032913      -63.5745397091  TIP3      9928            0.0000000000
     52037     10121  TIP3      OH2           -19.9650916253      -35.8344181593      -77.4913274445  TIP3      9929            0.0000000000
     52038     10121  TIP3      H1            -20.8581583457      -35.8088176732      -77.0952728650  TIP3      9929            0.0000000000
     52039     10121  TIP3      H2            -19.7752364167      -34.9435839767      -77.8049807227  TIP3      9929            0.0000000000
     52040     10122  TIP3      OH2           -31.9552047715      -27.2470512192      -75.3287633897  TIP3      9930            0.0000000000
     52041     10122  TIP3      H1            -32.2471340948      -26.4746598739      -75.8563484137  TIP3      9930            0.0000000000
     52042     10122  TIP3      H2            -32.6280995976      -27.8974654936      -75.5461375259  TIP3      9930            0.0000000000
     52043     10123  TIP3      OH2           -18.8828999261      -21.6552403852      -78.9124172529  TIP3      9931            0.0000000000
     52044     10123  TIP3      H1            -18.7406686410      -20.6984588170      -78.8071145812  TIP3      9931            0.0000000000
     52045     10123  TIP3      H2            -17.9580030533      -21.9466902594      -78.9906882317  TIP3      9931            0.0000000000
     52046     10124  TIP3      OH2           -35.2944850391      -24.9491748774      -66.6838850332  TIP3      9932            0.0000000000
     52047     10124  TIP3      H1            -36.0673153894      -24.8246424343      -67.2754376169  TIP3      9932            0.0000000000
     52048     10124  TIP3      H2            -35.6659172795      -25.7354564372      -66.2210952925  TIP3      9932            0.0000000000
     52049     10125  TIP3      OH2           -35.8212975195      -21.8350505581      -69.9326779099  TIP3      9933            0.0000000000
     52050     10125  TIP3      H1            -35.0074916275      -22.2541004759      -69.6430199917  TIP3      9933            0.0000000000
     52051     10125  TIP3      H2            -36.1173018225      -21.3840699525      -69.1304504849  TIP3      9933            0.0000000000
     52052     10126  TIP3      OH2           -17.8897576308      -21.3778412189      -63.9590043783  TIP3      9934            0.0000000000
     52053     10126  TIP3      H1            -18.0081533924      -22.3392492049      -63.9890483994  TIP3      9934            0.0000000000
     52054     10126  TIP3      H2            -18.7667547557      -21.1341137973      -63.5770875697  TIP3      9934            0.0000000000
     52055     10127  TIP3      OH2           -26.9556279408      -21.8284894267      -65.0875887350  TIP3      9935            0.0000000000
     52056     10127  TIP3      H1            -26.8902088788      -20.9866465697      -64.5818652932  TIP3      9935            0.0000000000
     52057     10127  TIP3      H2            -27.8231518856      -22.1957110389      -64.8394190490  TIP3      9935            0.0000000000
     52058     10128  TIP3      OH2           -26.5148180949      -18.1031913751      -75.3210920359  TIP3      9936            0.0000000000
     52059     10128  TIP3      H1            -26.5791223334      -18.1496755565      -76.2941731802  TIP3      9936            0.0000000000
     52060     10128  TIP3      H2            -26.4615456726      -17.1425851929      -75.1413905365  TIP3      9936            0.0000000000
     52061     10129  TIP3      OH2           -32.8735492410      -19.1980642521      -73.4873101331  TIP3      9937            0.0000000000
     52062     10129  TIP3      H1            -32.7186232103      -19.6217241757      -72.6113215383  TIP3      9937            0.0000000000
     52063     10129  TIP3      H2            -33.6905795293      -19.6625406252      -73.7279923062  TIP3      9937            0.0000000000
     52064     10130  TIP3      OH2           -23.4951215019      -18.9016893044      -78.3385170281  TIP3      9938            0.0000000000
     52065     10130  TIP3      H1            -22.9885093321      -19.6308645242      -78.7684030504  TIP3      9938            0.0000000000
     52066     10130  TIP3      H2            -23.3927974648      -19.1348443600      -77.3973904289  TIP3      9938            0.0000000000
     52067     10131  TIP3      OH2           -23.7511612806      -18.9484204578      -75.5387423817  TIP3      9939            0.0000000000
     52068     10131  TIP3      H1            -24.7074582949      -18.8810208439      -75.3573609261  TIP3      9939            0.0000000000
     52069     10131  TIP3      H2            -23.5033048915      -19.6882873979      -74.9630874414  TIP3      9939            0.0000000000
     52070     10132  TIP3      OH2           -20.7453248157      -29.9301433659      -63.4886799102  TIP3      9940            0.0000000000
     52071     10132  TIP3      H1            -21.2169860466      -29.4688827520      -64.2033363549  TIP3      9940            0.0000000000
     52072     10132  TIP3      H2            -20.7579163729      -30.8466403704      -63.8002397257  TIP3      9940            0.0000000000
     52073     10133  TIP3      OH2           -33.5891239179      -23.4185832210      -65.4202269047  TIP3      9941            0.0000000000
     52074     10133  TIP3      H1            -33.4060252239      -23.8681057348      -64.5726672817  TIP3      9941            0.0000000000
     52075     10133  TIP3      H2            -34.4161295222      -23.8679951723      -65.7064726684  TIP3      9941            0.0000000000
     52076     10134  TIP3      OH2           -30.9974623928      -34.9395835153      -69.5507378416  TIP3      9942            0.0000000000
     52077     10134  TIP3      H1            -31.9161234679      -34.9435403634      -69.9221198354  TIP3      9942            0.0000000000
     52078     10134  TIP3      H2            -31.1058656225      -34.1020496110      -69.0410165420  TIP3      9942            0.0000000000
     52079     10135  TIP3      OH2           -26.3209236144      -35.3694020692      -66.1583846359  TIP3      9943            0.0000000000
     52080     10135  TIP3      H1            -25.8799555404      -35.7494218158      -65.3954602707  TIP3      9943            0.0000000000
     52081     10135  TIP3      H2            -27.2621991424      -35.4352323477      -65.9404381959  TIP3      9943            0.0000000000
     52082     10136  TIP3      OH2           -22.9946810727      -31.5592489742      -65.2679604667  TIP3      9944            0.0000000000
     52083     10136  TIP3      H1            -23.5764750566      -31.7094586197      -64.4881885418  TIP3      9944            0.0000000000
     52084     10136  TIP3      H2            -23.1570209558      -30.6294184498      -65.5139958516  TIP3      9944            0.0000000000
     52085     10137  TIP3      OH2           -22.1438288715      -26.6157999627      -79.3182718144  TIP3      9945            0.0000000000
     52086     10137  TIP3      H1            -22.1582143568      -26.8275022464      -80.2692414744  TIP3      9945            0.0000000000
     52087     10137  TIP3      H2            -21.2564040833      -26.2171073092      -79.2422832429  TIP3      9945            0.0000000000
     52088     10138  TIP3      OH2           -26.6515755094      -32.7887384096      -78.8307812147  TIP3      9946            0.0000000000
     52089     10138  TIP3      H1            -26.9347198590      -32.8442862549      -77.9029580043  TIP3      9946            0.0000000000
     52090     10138  TIP3      H2            -26.8667856351      -33.6732089032      -79.1304153043  TIP3      9946            0.0000000000
     52091     10139  TIP3      OH2           -30.8463513367      -30.0589699513      -68.2881289035  TIP3      9947            0.0000000000
     52092     10139  TIP3      H1            -31.5615620824      -30.0511189114      -67.6279792851  TIP3      9947            0.0000000000
     52093     10139  TIP3      H2            -30.8568473100      -29.1448907612      -68.6533864502  TIP3      9947            0.0000000000
     52094     10140  TIP3      OH2           -30.8414018696      -29.9319356321      -73.4229129043  TIP3      9948            0.0000000000
     52095     10140  TIP3      H1            -31.7809482331      -30.1693444995      -73.5622711620  TIP3      9948            0.0000000000
     52096     10140  TIP3      H2            -30.4682638226      -30.2296517959      -74.2748256258  TIP3      9948            0.0000000000
     52097     10141  TIP3      OH2           -25.3209712020      -29.4333510687      -74.6903519684  TIP3      9949            0.0000000000
     52098     10141  TIP3      H1            -25.7406860346      -28.6041372609      -75.0141908446  TIP3      9949            0.0000000000
     52099     10141  TIP3      H2            -24.6327090514      -29.5937501525      -75.3621420305  TIP3      9949            0.0000000000
     52100     10142  TIP3      OH2           -26.2841488171      -29.2212274664      -63.2166218165  TIP3      9950            0.0000000000
     52101     10142  TIP3      H1            -26.8135411604      -29.9952412811      -62.9059540000  TIP3      9950            0.0000000000
     52102     10142  TIP3      H2            -25.4484361880      -29.3454813430      -62.7371922859  TIP3      9950            0.0000000000
     52103     10143  TIP3      OH2           -24.3099125466      -29.9452010614      -71.7981307322  TIP3      9951            0.0000000000
     52104     10143  TIP3      H1            -24.5880370131      -29.3846027599      -72.5417341787  TIP3      9951            0.0000000000
     52105     10143  TIP3      H2            -24.2128467436      -30.7910042970      -72.2716174195  TIP3      9951            0.0000000000
     52106     10144  TIP3      OH2           -33.1791871121      -29.8170213935      -66.6036368589  TIP3      9952            0.0000000000
     52107     10144  TIP3      H1            -33.1682143392      -29.3984859890      -65.7290428565  TIP3      9952            0.0000000000
     52108     10144  TIP3      H2            -33.6714470981      -30.6305460964      -66.4125560412  TIP3      9952            0.0000000000
     52109     10145  TIP3      OH2           -29.6210046036      -32.1343680271      -79.3878531031  TIP3      9953            0.0000000000
     52110     10145  TIP3      H1            -30.1961259820      -32.7681920335      -78.9228724066  TIP3      9953            0.0000000000
     52111     10145  TIP3      H2            -30.1720797877      -31.7741737760      -80.0869427257  TIP3      9953            0.0000000000
     52112     10146  TIP3      OH2           -36.1750512570      -32.3857773466      -72.8174281835  TIP3      9954            0.0000000000
     52113     10146  TIP3      H1            -35.8308609996      -32.6975405913      -71.9504724070  TIP3      9954            0.0000000000
     52114     10146  TIP3      H2            -36.0201991514      -33.1337944428      -73.3787497451  TIP3      9954            0.0000000000
     52115     10147  TIP3      OH2           -35.2699189779      -31.8178321930      -77.2449258358  TIP3      9955            0.0000000000
     52116     10147  TIP3      H1            -34.7347706994      -31.3081132792      -77.8833139082  TIP3      9955            0.0000000000
     52117     10147  TIP3      H2            -36.0013521566      -31.2572016595      -77.0304325950  TIP3      9955            0.0000000000
     52118     10148  TIP3      OH2           -25.1430837163      -28.3696374456      -67.2580560486  TIP3      9956            0.0000000000
     52119     10148  TIP3      H1            -24.7228137139      -29.0374660512      -67.8359830655  TIP3      9956            0.0000000000
     52120     10148  TIP3      H2            -25.5780401920      -28.8981917641      -66.5718666774  TIP3      9956            0.0000000000
     52121     10149  TIP3      OH2           -28.3162135915      -32.4220257824      -72.4414870464  TIP3      9957            0.0000000000
     52122     10149  TIP3      H1            -29.2418847728      -32.3731568564      -72.1153851847  TIP3      9957            0.0000000000
     52123     10149  TIP3      H2            -27.8124903125      -32.5263155765      -71.6162916350  TIP3      9957            0.0000000000
     52124     10150  TIP3      OH2           -33.4806907150      -30.8339702541      -73.5467273914  TIP3      9958            0.0000000000
     52125     10150  TIP3      H1            -34.3551789553      -30.6757814141      -73.9480999148  TIP3      9958            0.0000000000
     52126     10150  TIP3      H2            -33.2126222834      -31.6779405764      -73.9533124612  TIP3      9958            0.0000000000
     52127     10151  TIP3      OH2           -29.8661656049      -30.7644737337      -75.9023740186  TIP3      9959            0.0000000000
     52128     10151  TIP3      H1            -28.9028761776      -30.6798427213      -75.7490453823  TIP3      9959            0.0000000000
     52129     10151  TIP3      H2            -30.1046231417      -30.1116306237      -76.5906794730  TIP3      9959            0.0000000000
     52130     10152  TIP3      OH2           -23.8982415087      -33.1521332766      -69.1840502895  TIP3      9960            0.0000000000
     52131     10152  TIP3      H1            -24.5891774001      -33.0892849544      -68.4874260660  TIP3      9960            0.0000000000
     52132     10152  TIP3      H2            -24.3982749216      -33.4337348182      -69.9616073057  TIP3      9960            0.0000000000
     52133     10153  TIP3      OH2           -31.1335399994      -29.6182438152      -78.3346793795  TIP3      9961            0.0000000000
     52134     10153  TIP3      H1            -31.7090984647      -29.9579466667      -79.0343406735  TIP3      9961            0.0000000000
     52135     10153  TIP3      H2            -30.3192584170      -29.4030064657      -78.8120263429  TIP3      9961            0.0000000000
     52136     10154  TIP3      OH2           -20.6999484535      -17.5062143503      -62.8456134364  TIP3      9962            0.0000000000
     52137     10154  TIP3      H1            -20.4366685034      -17.1258122268      -63.7046563986  TIP3      9962            0.0000000000
     52138     10154  TIP3      H2            -19.9762789414      -17.1867727934      -62.2892805828  TIP3      9962            0.0000000000
     52139     10155  TIP3      OH2           -33.0479035912      -25.0536183706      -63.2678893497  TIP3      9963            0.0000000000
     52140     10155  TIP3      H1            -32.3064047080      -24.8051010256      -62.6817479547  TIP3      9963            0.0000000000
     52141     10155  TIP3      H2            -33.7958480941      -24.9381098929      -62.6580378680  TIP3      9963            0.0000000000
     52142     10156  TIP3      OH2           -27.0348621202      -29.6474427965      -70.5369723484  TIP3      9964            0.0000000000
     52143     10156  TIP3      H1            -26.4182325696      -30.1795252587      -71.0530433949  TIP3      9964            0.0000000000
     52144     10156  TIP3      H2            -27.1721041763      -30.1773541121      -69.7394947103  TIP3      9964            0.0000000000
     52145     10157  TIP3      OH2           -32.0442215101      -33.4424250537      -74.0593221241  TIP3      9965            0.0000000000
     52146     10157  TIP3      H1            -32.3580452894      -34.3598400820      -74.0852497840  TIP3      9965            0.0000000000
     52147     10157  TIP3      H2            -31.2619615595      -33.5149158956      -74.6205541025  TIP3      9965            0.0000000000
     52148     10158  TIP3      OH2           -28.3782876738      -31.2525030107      -68.1152893557  TIP3      9966            0.0000000000
     52149     10158  TIP3      H1            -29.2206953057      -30.7647634222      -68.0133239451  TIP3      9966            0.0000000000
     52150     10158  TIP3      H2            -27.8312061408      -30.9346413865      -67.3757053461  TIP3      9966            0.0000000000
     52151     10159  TIP3      OH2           -27.7919342825      -25.0983036232      -76.3823738077  TIP3      9967            0.0000000000
     52152     10159  TIP3      H1            -28.5949624551      -25.5467232242      -76.7252156976  TIP3      9967            0.0000000000
     52153     10159  TIP3      H2            -28.0172056565      -24.9655056567      -75.4422121607  TIP3      9967            0.0000000000
     52154     10160  TIP3      OH2           -20.4270619152      -26.0995664467      -67.6619133397  TIP3      9968            0.0000000000
     52155     10160  TIP3      H1            -20.0341300725      -25.3987646653      -68.2142240618  TIP3      9968            0.0000000000
     52156     10160  TIP3      H2            -21.3600652441      -25.8557976683      -67.9263881647  TIP3      9968            0.0000000000
     52157     10161  TIP3      OH2           -23.9376616503      -32.2423355416      -78.2403006158  TIP3      9969            0.0000000000
     52158     10161  TIP3      H1            -24.8842881836      -32.1190758586      -78.4152921564  TIP3      9969            0.0000000000
     52159     10161  TIP3      H2            -23.6325950203      -31.3959884814      -77.8727619340  TIP3      9969            0.0000000000
     52160     10162  TIP3      OH2           -26.3346111842      -24.8285286565      -65.1313837417  TIP3      9970            0.0000000000
     52161     10162  TIP3      H1            -26.6645096648      -25.2352522839      -64.3343541114  TIP3      9970            0.0000000000
     52162     10162  TIP3      H2            -26.5522480335      -23.8925313916      -65.0626149876  TIP3      9970            0.0000000000
     52163     10163  TIP3      OH2           -23.2214246822      -30.3523845854      -76.5908265711  TIP3      9971            0.0000000000
     52164     10163  TIP3      H1            -22.3249741862      -30.5036860268      -76.2287715978  TIP3      9971            0.0000000000
     52165     10163  TIP3      H2            -23.1221441677      -29.5337248958      -77.1048507551  TIP3      9971            0.0000000000
     52166     10164  TIP3      OH2           -32.6961285201      -25.6827560822      -70.6249580624  TIP3      9972            0.0000000000
     52167     10164  TIP3      H1            -32.0194452697      -25.7644413022      -71.3175295759  TIP3      9972            0.0000000000
     52168     10164  TIP3      H2            -32.5977586833      -26.5218673549      -70.1425536671  TIP3      9972            0.0000000000
     52169     10165  TIP3      OH2           -25.7010429802      -23.6198324298      -77.3516265888  TIP3      9973            0.0000000000
     52170     10165  TIP3      H1            -26.0657920125      -22.7740538219      -77.0162113031  TIP3      9973            0.0000000000
     52171     10165  TIP3      H2            -26.4372930863      -24.2454778976      -77.1674430515  TIP3      9973            0.0000000000
     52172     10166  TIP3      OH2           -35.7295478277      -27.3008400851      -65.3460420290  TIP3      9974            0.0000000000
     52173     10166  TIP3      H1            -35.4707566677      -27.7415561055      -64.5133438766  TIP3      9974            0.0000000000
     52174     10166  TIP3      H2            -36.3174800866      -27.9413512382      -65.7703902562  TIP3      9974            0.0000000000
     52175     10167  TIP3      OH2           -28.6852039659      -27.7158862182      -63.1743932847  TIP3      9975            0.0000000000
     52176     10167  TIP3      H1            -29.0053140571      -28.0297431561      -64.0323135449  TIP3      9975            0.0000000000
     52177     10167  TIP3      H2            -27.7636234040      -28.0444654831      -63.1741188208  TIP3      9975            0.0000000000
     52178     10168  TIP3      OH2           -23.9985989270      -22.3814362222      -65.2195308851  TIP3      9976            0.0000000000
     52179     10168  TIP3      H1            -24.9196679626      -22.2216602273      -65.4695615432  TIP3      9976            0.0000000000
     52180     10168  TIP3      H2            -24.0356933241      -22.0996152758      -64.2892638939  TIP3      9976            0.0000000000
     52181     10169  TIP3      OH2           -18.3517996431      -30.1926119564      -76.7895273468  TIP3      9977            0.0000000000
     52182     10169  TIP3      H1            -18.8947910474      -30.5173440082      -77.5233544784  TIP3      9977            0.0000000000
     52183     10169  TIP3      H2            -18.2382645260      -29.2691979742      -77.0988992837  TIP3      9977            0.0000000000
     52184     10170  TIP3      OH2           -18.3262317274      -24.3335904109      -64.0143562869  TIP3      9978            0.0000000000
     52185     10170  TIP3      H1            -19.2278738425      -24.1299173083      -64.3867779933  TIP3      9978            0.0000000000
     52186     10170  TIP3      H2            -17.8041373539      -24.3945000709      -64.8411425628  TIP3      9978            0.0000000000
     52187     10171  TIP3      OH2           -20.0614695129      -21.3693958280      -76.4736794406  TIP3      9979            0.0000000000
     52188     10171  TIP3      H1            -20.4100227840      -22.1977582627      -76.1178345073  TIP3      9979            0.0000000000
     52189     10171  TIP3      H2            -19.7389747976      -21.5900972454      -77.3678577424  TIP3      9979            0.0000000000
     52190     10172  TIP3      OH2           -22.8472036218      -26.7372623350      -69.5485824647  TIP3      9980            0.0000000000
     52191     10172  TIP3      H1            -23.8005664423      -26.8543079827      -69.4453940570  TIP3      9980            0.0000000000
     52192     10172  TIP3      H2            -22.4455005835      -27.5637862296      -69.8325802638  TIP3      9980            0.0000000000
     52193     10173  TIP3      OH2           -30.3318264519      -22.2230294205      -73.2096011580  TIP3      9981            0.0000000000
     52194     10173  TIP3      H1            -29.8200784463      -21.4272034686      -73.4309804360  TIP3      9981            0.0000000000
     52195     10173  TIP3      H2            -31.2082388804      -21.9947749636      -73.5482941556  TIP3      9981            0.0000000000
     52196     10174  TIP3      OH2           -34.6225401663      -27.4080306958      -78.6359647720  TIP3      9982            0.0000000000
     52197     10174  TIP3      H1            -33.9587986443      -26.7773068080      -78.2802911977  TIP3      9982            0.0000000000
     52198     10174  TIP3      H2            -35.4560602728      -27.0498211795      -78.3249139113  TIP3      9982            0.0000000000
     52199     10175  TIP3      OH2           -28.8940233025      -24.5571162886      -73.6906220161  TIP3      9983            0.0000000000
     52200     10175  TIP3      H1            -29.2186107920      -23.6399014774      -73.6210831744  TIP3      9983            0.0000000000
     52201     10175  TIP3      H2            -29.6186378736      -25.0550370003      -73.2608789241  TIP3      9983            0.0000000000
     52202     10176  TIP3      OH2           -28.4550673135      -20.3511973699      -67.2766867454  TIP3      9984            0.0000000000
     52203     10176  TIP3      H1            -27.9579255011      -19.5838924950      -67.5970395719  TIP3      9984            0.0000000000
     52204     10176  TIP3      H2            -27.8180672149      -20.7432719180      -66.6479606835  TIP3      9984            0.0000000000
     52205     10177  TIP3      OH2           -30.2242865779      -19.5592215954      -74.2058288894  TIP3      9985            0.0000000000
     52206     10177  TIP3      H1            -31.1839679836      -19.4454753748      -74.0287355040  TIP3      9985            0.0000000000
     52207     10177  TIP3      H2            -29.8535786542      -18.7479852528      -73.8107405662  TIP3      9985            0.0000000000
     52208     10178  TIP3      OH2           -25.3961181481      -24.4827664467      -67.6601087962  TIP3      9986            0.0000000000
     52209     10178  TIP3      H1            -25.3365138462      -24.5607800072      -66.6941588974  TIP3      9986            0.0000000000
     52210     10178  TIP3      H2            -24.4847512474      -24.8361606258      -67.8784718769  TIP3      9986            0.0000000000
     52211     10179  TIP3      OH2           -22.6203908077      -23.3314569488      -78.5390469685  TIP3      9987            0.0000000000
     52212     10179  TIP3      H1            -22.3224430280      -23.8121138870      -77.7446762258  TIP3      9987            0.0000000000
     52213     10179  TIP3      H2            -23.5769788833      -23.4976772126      -78.4865628052  TIP3      9987            0.0000000000
     52214     10180  TIP3      OH2           -22.1277813265      -19.7963684144      -65.1866521714  TIP3      9988            0.0000000000
     52215     10180  TIP3      H1            -22.7944421613      -20.3164847662      -65.6762188936  TIP3      9988            0.0000000000
     52216     10180  TIP3      H2            -21.9288625317      -19.1176077785      -65.8643617021  TIP3      9988            0.0000000000
     52217     10181  TIP3      OH2           -18.1271785891      -18.9258424306      -78.2851239088  TIP3      9989            0.0000000000
     52218     10181  TIP3      H1            -17.4368717405      -18.2974168111      -78.5690981203  TIP3      9989            0.0000000000
     52219     10181  TIP3      H2            -18.8587468450      -18.3125880860      -78.0632603537  TIP3      9989            0.0000000000
     52220     10182  TIP3      OH2           -34.0448244801      -32.5614687087      -65.8170617811  TIP3      9990            0.0000000000
     52221     10182  TIP3      H1            -34.9320067469      -32.1815106962      -65.7431025541  TIP3      9990            0.0000000000
     52222     10182  TIP3      H2            -34.1886323802      -33.4242008915      -65.3834591230  TIP3      9990            0.0000000000
     52223     10183  TIP3      OH2           -21.8052915532      -24.6912724938      -76.3330699024  TIP3      9991            0.0000000000
     52224     10183  TIP3      H1            -22.0503671973      -25.4871013202      -75.8159974713  TIP3      9991            0.0000000000
     52225     10183  TIP3      H2            -20.8594756765      -24.6208334310      -76.1346846766  TIP3      9991            0.0000000000
     52226     10184  TIP3      OH2           -34.2579469762      -20.7051913692      -67.4103357578  TIP3      9992            0.0000000000
     52227     10184  TIP3      H1            -34.1497216346      -21.6654641126      -67.3656153303  TIP3      9992            0.0000000000
     52228     10184  TIP3      H2            -34.2030056671      -20.4977789587      -66.4737982357  TIP3      9992            0.0000000000
     52229     10185  TIP3      OH2           -29.6934740330      -22.6730561743      -77.6693862722  TIP3      9993            0.0000000000
     52230     10185  TIP3      H1            -29.4330840589      -23.2335966879      -76.9229897038  TIP3      9993            0.0000000000
     52231     10185  TIP3      H2            -29.5994886165      -21.7589769316      -77.3239019670  TIP3      9993            0.0000000000
     52232     10186  TIP3      OH2           -33.2100072185      -25.4605509035      -77.1243302339  TIP3      9994            0.0000000000
     52233     10186  TIP3      H1            -33.9101610589      -25.0518384629      -76.5699776452  TIP3      9994            0.0000000000
     52234     10186  TIP3      H2            -32.6743919955      -24.6943522468      -77.4001657078  TIP3      9994            0.0000000000
     52235     10187  TIP3      OH2           -25.3025381453      -32.7785227071      -66.8484932307  TIP3      9995            0.0000000000
     52236     10187  TIP3      H1            -24.5847794404      -32.7175480975      -66.2074419206  TIP3      9995            0.0000000000
     52237     10187  TIP3      H2            -25.6750687848      -33.6630153970      -66.6698100616  TIP3      9995            0.0000000000
     52238     10188  TIP3      OH2           -24.5374410404      -33.2044931737      -75.7545399896  TIP3      9996            0.0000000000
     52239     10188  TIP3      H1            -24.3185171754      -32.7285318034      -76.5800867799  TIP3      9996            0.0000000000
     52240     10188  TIP3      H2            -23.9942303824      -32.7156777097      -75.1166264103  TIP3      9996            0.0000000000
     52241     10189  TIP3      OH2           -26.8990266550      -21.0264555335      -76.9516983036  TIP3      9997            0.0000000000
     52242     10189  TIP3      H1            -27.7110619870      -20.5048713226      -76.8500132038  TIP3      9997            0.0000000000
     52243     10189  TIP3      H2            -26.3435229748      -20.5045661686      -77.5547050751  TIP3      9997            0.0000000000
     52244     10190  TIP3      OH2           -27.3430483715      -31.4806104730      -74.9356743342  TIP3      9998            0.0000000000
     52245     10190  TIP3      H1            -26.5723213065      -30.8791539840      -74.9247265452  TIP3      9998            0.0000000000
     52246     10190  TIP3      H2            -27.5937365348      -31.5591934206      -73.9960980460  TIP3      9998            0.0000000000
     52247     10191  TIP3      OH2           -26.7838857395      -30.4260161352      -65.7385779200  TIP3      9999            0.0000000000
     52248     10191  TIP3      H1            -26.7085526377      -29.8738990954      -64.9356057221  TIP3      9999            0.0000000000
     52249     10191  TIP3      H2            -26.1225361834      -31.1222450069      -65.6425491526  TIP3      9999            0.0000000000
     52250     10192  TIP3      OH2           -26.4623207834      -34.3823853450      -73.9875728550  TIP3      10000           0.0000000000
     52251     10192  TIP3      H1            -26.8150527053      -33.7038117899      -73.3878266512  TIP3      10000           0.0000000000
     52252     10192  TIP3      H2            -25.8171484712      -33.8458819894      -74.5076083110  TIP3      10000           0.0000000000
     52253     10193  TIP3      OH2           -29.5554552781      -19.9913372808      -76.9042297655  TIP3      10001           0.0000000000
     52254     10193  TIP3      H1            -29.3438545388      -19.1721911991      -77.3976185452  TIP3      10001           0.0000000000
     52255     10193  TIP3      H2            -29.7645470900      -19.6600196270      -76.0085827641  TIP3      10001           0.0000000000
     52256     10194  TIP3      OH2           -30.8088341346      -33.3316416401      -77.3394198741  TIP3      10002           0.0000000000
     52257     10194  TIP3      H1            -30.9202056764      -32.4252193650      -76.9695989408  TIP3      10002           0.0000000000
     52258     10194  TIP3      H2            -29.8955470180      -33.4874000571      -77.0284321194  TIP3      10002           0.0000000000
     52259     10195  TIP3      OH2           -20.6090979320      -32.5609513819      -64.8790364171  TIP3      10003           0.0000000000
     52260     10195  TIP3      H1            -21.5351177606      -32.2351058400      -65.0193120270  TIP3      10003           0.0000000000
     52261     10195  TIP3      H2            -20.3121914190      -32.5863770455      -65.8080216824  TIP3      10003           0.0000000000
     52262     10196  TIP3      OH2           -21.9667254017      -28.8214664861      -70.9457194123  TIP3      10004           0.0000000000
     52263     10196  TIP3      H1            -22.8327284477      -29.2133381891      -71.1484190012  TIP3      10004           0.0000000000
     52264     10196  TIP3      H2            -21.5167275458      -29.4645218306      -70.3597586915  TIP3      10004           0.0000000000
     52265     10197  TIP3      OH2           -32.6096932213      -22.8177257065      -78.3125239563  TIP3      10005           0.0000000000
     52266     10197  TIP3      H1            -31.9431731546      -22.2120840621      -77.9674654889  TIP3      10005           0.0000000000
     52267     10197  TIP3      H2            -32.0762372602      -23.2951486253      -78.9807948869  TIP3      10005           0.0000000000
     52268     10198  TIP3      OH2           -34.2063963195      -30.1560093667      -79.0921245296  TIP3      10006           0.0000000000
     52269     10198  TIP3      H1            -34.2077363057      -29.1925758342      -78.9611490930  TIP3      10006           0.0000000000
     52270     10198  TIP3      H2            -35.0637256856      -30.3804606187      -79.4542815585  TIP3      10006           0.0000000000
     52271     10199  TIP3      OH2           -20.9381554269      -19.4553456459      -69.1996750854  TIP3      10007           0.0000000000
     52272     10199  TIP3      H1            -21.0088905807      -18.8064440872      -69.9247548783  TIP3      10007           0.0000000000
     52273     10199  TIP3      H2            -19.9701710441      -19.4669983418      -69.0450132977  TIP3      10007           0.0000000000
     52274     10200  TIP3      OH2           -33.5832907537      -35.2708343594      -70.3360691466  TIP3      10008           0.0000000000
     52275     10200  TIP3      H1            -33.6556729332      -35.2983708985      -71.3233245513  TIP3      10008           0.0000000000
     52276     10200  TIP3      H2            -33.9219769231      -36.1512480868      -70.1284894270  TIP3      10008           0.0000000000
     52277     10201  TIP3      OH2           -34.4665540315      -21.4608983409      -74.2486307978  TIP3      10009           0.0000000000
     52278     10201  TIP3      H1            -35.3308556661      -21.0426693117      -74.2905921653  TIP3      10009           0.0000000000
     52279     10201  TIP3      H2            -33.9995492767      -21.0163207862      -74.9681509359  TIP3      10009           0.0000000000
     52280     10202  TIP3      OH2           -34.9782318252      -18.7864488020      -62.9882272972  TIP3      10010           0.0000000000
     52281     10202  TIP3      H1            -34.5629618188      -19.0205266817      -62.1448994875  TIP3      10010           0.0000000000
     52282     10202  TIP3      H2            -35.5023024437      -19.5983267600      -63.1489204798  TIP3      10010           0.0000000000
     52283     10203  TIP3      OH2           -30.6041253787      -19.9178816400      -61.3605052114  TIP3      10011           0.0000000000
     52284     10203  TIP3      H1            -29.8351351591      -20.4044929859      -61.0408731782  TIP3      10011           0.0000000000
     52285     10203  TIP3      H2            -30.6270803252      -20.1743015288      -62.3056878709  TIP3      10011           0.0000000000
     52286     10204  TIP3      OH2           -26.0082099478      -20.2866305508      -79.3807084368  TIP3      10012           0.0000000000
     52287     10204  TIP3      H1            -26.8659264292      -20.7533299743      -79.4026673728  TIP3      10012           0.0000000000
     52288     10204  TIP3      H2            -25.5533575904      -20.7727689969      -80.0690367689  TIP3      10012           0.0000000000
     52289     10205  TIP3      OH2           -24.0926270090      -21.5128967209      -62.6214712365  TIP3      10013           0.0000000000
     52290     10205  TIP3      H1            -24.4112605520      -22.3995442551      -62.3474106607  TIP3      10013           0.0000000000
     52291     10205  TIP3      H2            -23.3262075986      -21.3921218717      -62.0244680603  TIP3      10013           0.0000000000
     52292     10206  TIP3      OH2           -21.8749977618      -20.5963919486      -79.7720307944  TIP3      10014           0.0000000000
     52293     10206  TIP3      H1            -21.6400977708      -21.4117826636      -79.2857047644  TIP3      10014           0.0000000000
     52294     10206  TIP3      H2            -21.0950033291      -20.4188997261      -80.3110315655  TIP3      10014           0.0000000000
     52295     10207  TIP3      OH2           -35.4054101574      -25.0386900246      -61.9950984293  TIP3      10015           0.0000000000
     52296     10207  TIP3      H1            -35.1915465796      -25.9346766203      -62.3174338031  TIP3      10015           0.0000000000
     52297     10207  TIP3      H2            -36.1224021639      -24.7642286299      -62.5762508014  TIP3      10015           0.0000000000
     52298     10208  TIP3      OH2           -30.9220205133      -24.6307200636      -79.8385980634  TIP3      10016           0.0000000000
     52299     10208  TIP3      H1            -30.8613516081      -25.4599585996      -79.3565808618  TIP3      10016           0.0000000000
     52300     10208  TIP3      H2            -30.3605247049      -24.8751318524      -80.6027807026  TIP3      10016           0.0000000000
     52301     10209  TIP3      OH2           -28.6515718102      -25.0518185017      -62.6011072200  TIP3      10017           0.0000000000
     52302     10209  TIP3      H1            -28.9868325389      -24.7412547563      -63.4650205828  TIP3      10017           0.0000000000
     52303     10209  TIP3      H2            -28.5797958747      -26.0305986487      -62.7075668057  TIP3      10017           0.0000000000
     52304     10210  TIP3      OH2           -22.9485686587      -25.1767559506      -65.0023619244  TIP3      10018           0.0000000000
     52305     10210  TIP3      H1            -22.1964037541      -24.6405373518      -65.3308754980  TIP3      10018           0.0000000000
     52306     10210  TIP3      H2            -23.6504932287      -24.5456644319      -65.2173446102  TIP3      10018           0.0000000000
     52307     10211  TIP3      OH2           -34.5135909364      -27.8285907809      -62.6127736711  TIP3      10019           0.0000000000
     52308     10211  TIP3      H1            -34.0305009597      -28.6694098044      -62.6961510279  TIP3      10019           0.0000000000
     52309     10211  TIP3      H2            -34.6886664953      -27.8194414759      -61.6600724673  TIP3      10019           0.0000000000
     52310     10212  TIP3      OH2           -29.7999068502      -26.6568807253      -77.5489566822  TIP3      10020           0.0000000000
     52311     10212  TIP3      H1            -30.3038585557      -27.1965384751      -76.9158699591  TIP3      10020           0.0000000000
     52312     10212  TIP3      H2            -29.4850418863      -27.3381018418      -78.1871707131  TIP3      10020           0.0000000000
     52313     10213  TIP3      OH2           -30.5524092964      -28.8833881664      -65.2529075129  TIP3      10021           0.0000000000
     52314     10213  TIP3      H1            -31.1522058822      -28.1646065450      -64.9921724496  TIP3      10021           0.0000000000
     52315     10213  TIP3      H2            -30.1540235265      -28.5065895534      -66.0565726695  TIP3      10021           0.0000000000
     52316     10214  TIP3      OH2           -28.7328865845      -28.4802708543      -79.3434341363  TIP3      10022           0.0000000000
     52317     10214  TIP3      H1            -28.8472732239      -28.5948805076      -80.2975590860  TIP3      10022           0.0000000000
     52318     10214  TIP3      H2            -27.7518180772      -28.4056798947      -79.2491798052  TIP3      10022           0.0000000000
     52319     10215  TIP3      OH2           -25.4752399658      -26.3065736036      -61.9095409031  TIP3      10023           0.0000000000
     52320     10215  TIP3      H1            -24.5174305071      -26.3182362818      -62.0290722507  TIP3      10023           0.0000000000
     52321     10215  TIP3      H2            -25.6474023219      -27.0754713561      -61.3433155105  TIP3      10023           0.0000000000
     52322     10216  TIP3      OH2           -19.6046929084      -25.9591209197       80.1770609784  TIP3      10024           0.0000000000
     52323     10216  TIP3      H1            -19.6593687391      -26.4916476826       79.3650698324  TIP3      10024           0.0000000000
     52324     10216  TIP3      H2            -19.3394131584      -25.0787352917       79.8826588489  TIP3      10024           0.0000000000
     52325     10217  TIP3      OH2           -30.1304428639      -31.4991932076      -64.1926104724  TIP3      10025           0.0000000000
     52326     10217  TIP3      H1            -30.0229787320      -32.2107338033      -64.8427881302  TIP3      10025           0.0000000000
     52327     10217  TIP3      H2            -30.2126212453      -30.6891374121      -64.7426045465  TIP3      10025           0.0000000000
     52328     10218  TIP3      OH2           -29.7392427962      -33.1311458776      -66.7070301221  TIP3      10026           0.0000000000
     52329     10218  TIP3      H1            -29.2291518160      -32.5963052755      -67.3606516299  TIP3      10026           0.0000000000
     52330     10218  TIP3      H2            -30.6533795736      -33.1641362483      -67.0715563169  TIP3      10026           0.0000000000
     52331     10219  TIP3      OH2           -28.2058371335      -27.6263938384      -66.3963315305  TIP3      10027           0.0000000000
     52332     10219  TIP3      H1            -27.4448721685      -27.7818621320      -66.9668593507  TIP3      10027           0.0000000000
     52333     10219  TIP3      H2            -28.5647079510      -26.7889530249      -66.7331567708  TIP3      10027           0.0000000000
     52334     10220  TIP3      OH2           -23.8101564018      -29.8802441189      -61.4304562303  TIP3      10028           0.0000000000
     52335     10220  TIP3      H1            -23.5590069854      -30.8069860698      -61.5361199314  TIP3      10028           0.0000000000
     52336     10220  TIP3      H2            -22.9483925854      -29.4276801995      -61.4026390815  TIP3      10028           0.0000000000
     52337     10221  TIP3      OH2           -22.4636464604      -27.0879323643      -63.2479760108  TIP3      10029           0.0000000000
     52338     10221  TIP3      H1            -22.7217517474      -26.3680577675      -63.8814404153  TIP3      10029           0.0000000000
     52339     10221  TIP3      H2            -21.5103481157      -27.1041632147      -63.4651016846  TIP3      10029           0.0000000000
     52340     10222  TIP3      OH2           -31.7146241333      -30.2314506342      -62.2820958245  TIP3      10030           0.0000000000
     52341     10222  TIP3      H1            -32.4728163190      -30.8334887019      -62.4397542592  TIP3      10030           0.0000000000
     52342     10222  TIP3      H2            -31.0469990817      -30.6018570875      -62.8888998595  TIP3      10030           0.0000000000
     52343     10223  TIP3      OH2           -29.1006783308      -35.4865923044      -65.9666661281  TIP3      10031           0.0000000000
     52344     10223  TIP3      H1            -29.1619005634      -34.5363884495      -66.2472600776  TIP3      10031           0.0000000000
     52345     10223  TIP3      H2            -29.6961015686      -35.8800719146      -66.6013158179  TIP3      10031           0.0000000000
     52346     10224  TIP3      OH2           -27.6995975055      -31.3158469717      -62.6325100271  TIP3      10032           0.0000000000
     52347     10224  TIP3      H1            -27.9858002079      -31.6101008580      -61.7459860317  TIP3      10032           0.0000000000
     52348     10224  TIP3      H2            -28.4761263606      -31.5628598223      -63.1637917136  TIP3      10032           0.0000000000
     52349     10225  TIP3      OH2           -24.9592718764      -32.1905845506      -63.5229387592  TIP3      10033           0.0000000000
     52350     10225  TIP3      H1            -25.9265975395      -32.1672442110      -63.4128319625  TIP3      10033           0.0000000000
     52351     10225  TIP3      H2            -24.6792253549      -32.8297787133      -62.8381281360  TIP3      10033           0.0000000000
     52352     10226  TIP3      OH2           -23.3649295079      -33.4751201598      -61.6050744952  TIP3      10034           0.0000000000
     52353     10226  TIP3      H1            -23.4567203917      -34.4604428386      -61.6301545848  TIP3      10034           0.0000000000
     52354     10226  TIP3      H2            -23.6572860179      -33.2815326525      -60.6976844535  TIP3      10034           0.0000000000
     52355     10227  TIP3      OH2           -33.4579276753      -32.3253383237      -62.4866500085  TIP3      10035           0.0000000000
     52356     10227  TIP3      H1            -33.3218643200      -33.0558577779      -63.1178580701  TIP3      10035           0.0000000000
     52357     10227  TIP3      H2            -33.6541578630      -32.8005744895      -61.6595127094  TIP3      10035           0.0000000000
     52358     10228  TIP3      OH2           -28.7529481206       36.7201833465      -63.5011187556  TIP3      10036           0.0000000000
     52359     10228  TIP3      H1            -28.0694659387       36.0486506583      -63.4680078271  TIP3      10036           0.0000000000
     52360     10228  TIP3      H2            -28.8469617606       36.9391350863      -64.4478118294  TIP3      10036           0.0000000000
     52361     10229  TIP3      OH2           -28.3422413810      -34.5929948817      -61.4729537792  TIP3      10037           0.0000000000
     52362     10229  TIP3      H1            -28.5277462077      -35.1696570654      -62.2473155503  TIP3      10037           0.0000000000
     52363     10229  TIP3      H2            -28.9841796176      -33.8729606806      -61.5404763122  TIP3      10037           0.0000000000
     52364     10230  TIP3      OH2           -28.9373414683      -17.7543789047      -78.2893639025  TIP3      10038           0.0000000000
     52365     10230  TIP3      H1            -27.9577908387      -17.6738532863      -78.1978956153  TIP3      10038           0.0000000000
     52366     10230  TIP3      H2            -29.0737581048      -17.1239865500      -78.9927456791  TIP3      10038           0.0000000000
     52367     10231  TIP3      OH2           -35.2778920062      -23.2009621759      -78.7688695632  TIP3      10039           0.0000000000
     52368     10231  TIP3      H1            -34.3250183499      -23.0572525353      -78.5773152530  TIP3      10039           0.0000000000
     52369     10231  TIP3      H2            -35.2655898190      -23.7494245795      -79.5555125638  TIP3      10039           0.0000000000
     52370     10232  TIP3      OH2            36.8769325729      -17.6432455743      -74.0081214798  TIP3      10040           0.0000000000
     52371     10232  TIP3      H1             35.9546721791      -17.8422155956      -74.2873516955  TIP3      10040           0.0000000000
     52372     10232  TIP3      H2             36.9456579609      -18.2695996030      -73.2423103289  TIP3      10040           0.0000000000
     52373     10233  TIP3      OH2           -35.7223743005      -19.6217426077      -71.9950900082  TIP3      10041           0.0000000000
     52374     10233  TIP3      H1            -36.0810123039      -20.5095713377      -71.7647360036  TIP3      10041           0.0000000000
     52375     10233  TIP3      H2            -35.4827343459      -19.3384745201      -71.0960104165  TIP3      10041           0.0000000000
     52376     10234  TIP3      OH2           -18.2101349078      -18.8675060697      -69.0205282548  TIP3      10042           0.0000000000
     52377     10234  TIP3      H1            -18.1835094148      -18.7049156143      -68.0617224136  TIP3      10042           0.0000000000
     52378     10234  TIP3      H2            -17.5088248783      -18.2817304538      -69.3229328868  TIP3      10042           0.0000000000
     52379     10235  TIP3      OH2           -18.6525762094      -19.2720603191      -66.0678278105  TIP3      10043           0.0000000000
     52380     10235  TIP3      H1            -19.1189619556      -20.0473458149      -66.4560543671  TIP3      10043           0.0000000000
     52381     10235  TIP3      H2            -18.1546176892      -19.7178258164      -65.3631097077  TIP3      10043           0.0000000000
     52382     10236  TIP3      OH2           -20.1953835929      -23.5513977281      -61.4001841576  TIP3      10044           0.0000000000
     52383     10236  TIP3      H1            -21.1023516225      -23.5763188042      -61.0375020241  TIP3      10044           0.0000000000
     52384     10236  TIP3      H2            -19.8235450536      -22.7451277378      -60.9911474814  TIP3      10044           0.0000000000
     52385     10237  TIP3      OH2           -18.8637490074      -25.2359206423      -75.9877508329  TIP3      10045           0.0000000000
     52386     10237  TIP3      H1            -18.0220401665      -24.8113779863      -75.7578254916  TIP3      10045           0.0000000000
     52387     10237  TIP3      H2            -18.9037241787      -25.9295342899      -75.2941062721  TIP3      10045           0.0000000000
     52388     10238  TIP3      OH2           -18.5245973671      -27.1446887258      -74.0940419747  TIP3      10046           0.0000000000
     52389     10238  TIP3      H1            -19.2738245909      -27.6457138420      -73.7000424702  TIP3      10046           0.0000000000
     52390     10238  TIP3      H2            -17.9264585836      -27.0130724880      -73.3293250450  TIP3      10046           0.0000000000
     52391     10239  TIP3      OH2           -18.7469087396      -24.4500036570      -69.0948384734  TIP3      10047           0.0000000000
     52392     10239  TIP3      H1            -17.9422676655      -24.8227493937      -69.4846345609  TIP3      10047           0.0000000000
     52393     10239  TIP3      H2            -18.6404002035      -23.4947963280      -69.2738819599  TIP3      10047           0.0000000000
     52394     10240  TIP3      OH2           -20.2065722689      -21.5431887981      -66.8342568824  TIP3      10048           0.0000000000
     52395     10240  TIP3      H1            -20.9101187573      -21.2278749490      -66.2487205079  TIP3      10048           0.0000000000
     52396     10240  TIP3      H2            -20.7479275513      -21.9763588748      -67.5319361896  TIP3      10048           0.0000000000
     52397     10241  TIP3      OH2           -18.2133561928      -27.3105350347      -77.6969858350  TIP3      10049           0.0000000000
     52398     10241  TIP3      H1            -18.8139549387      -26.9751938461      -78.3837848094  TIP3      10049           0.0000000000
     52399     10241  TIP3      H2            -18.3025924670      -26.6054142885      -77.0254367499  TIP3      10049           0.0000000000
     52400     10242  TIP3      OH2           -20.4923515308      -30.1357512905      -79.0552723189  TIP3      10050           0.0000000000
     52401     10242  TIP3      H1            -19.9232718379      -29.5108915732      -79.5544296674  TIP3      10050           0.0000000000
     52402     10242  TIP3      H2            -20.1129888651      -30.9158991290      -79.4764947766  TIP3      10050           0.0000000000
     52403     10243  TIP3      OH2           -20.6921157904      -28.6690705606      -73.5131545550  TIP3      10051           0.0000000000
     52404     10243  TIP3      H1            -20.8524045832      -29.6235934251      -73.5601784318  TIP3      10051           0.0000000000
     52405     10243  TIP3      H2            -21.0240481469      -28.4607381572      -72.6192286788  TIP3      10051           0.0000000000
     52406     10244  TIP3      OH2           -35.6773707145      -26.5992124826      -69.5343422647  TIP3      10052           0.0000000000
     52407     10244  TIP3      H1            -35.4750325311      -26.6397274863      -70.4910366114  TIP3      10052           0.0000000000
     52408     10244  TIP3      H2            -34.7964170305      -26.7102458288      -69.1152790532  TIP3      10052           0.0000000000
     52409     10245  TIP3      OH2           -19.8374982637      -26.7093875313      -63.7912940580  TIP3      10053           0.0000000000
     52410     10245  TIP3      H1            -19.2190501551      -27.4638179536      -63.6902612156  TIP3      10053           0.0000000000
     52411     10245  TIP3      H2            -19.2476503522      -25.9295191563      -63.8381950694  TIP3      10053           0.0000000000
     52412     10246  TIP3      OH2           -18.3370999487      -28.8239053250      -63.1724451024  TIP3      10054           0.0000000000
     52413     10246  TIP3      H1            -19.2200928014      -29.2207386166      -63.3291873231  TIP3      10054           0.0000000000
     52414     10246  TIP3      H2            -17.7671953202      -29.6077853102      -63.2502091995  TIP3      10054           0.0000000000
     52415     10247  TIP3      OH2           -21.0527493635      -31.0722029317      -75.0225354548  TIP3      10055           0.0000000000
     52416     10247  TIP3      H1            -20.7423669606      -32.0003409621      -74.9458451137  TIP3      10055           0.0000000000
     52417     10247  TIP3      H2            -20.2688628440      -30.6754095672      -75.4251359705  TIP3      10055           0.0000000000
     52418     10248  TIP3      OH2           -20.3937892315      -30.5242635868      -69.6131836871  TIP3      10056           0.0000000000
     52419     10248  TIP3      H1            -19.4298213331      -30.3079544184      -69.6270453306  TIP3      10056           0.0000000000
     52420     10248  TIP3      H2            -20.5768534511      -30.4084393203      -68.6696309364  TIP3      10056           0.0000000000
     52421     10249  TIP3      OH2           -20.3415594404      -29.7829632582      -66.8362353912  TIP3      10057           0.0000000000
     52422     10249  TIP3      H1            -21.2256879252      -29.5003536587      -66.5263865211  TIP3      10057           0.0000000000
     52423     10249  TIP3      H2            -19.9103675415      -28.9259980919      -67.0632801081  TIP3      10057           0.0000000000
     52424     10250  TIP3      OH2           -35.7946249776      -31.3925804644      -63.3041349675  TIP3      10058           0.0000000000
     52425     10250  TIP3      H1            -34.9084584805      -31.6221661375      -62.9980745414  TIP3      10058           0.0000000000
     52426     10250  TIP3      H2            -36.3797610465      -32.0932327414      -62.9267591700  TIP3      10058           0.0000000000
     52427     10251  TIP3      OH2           -17.9936298509      -35.7443008918      -61.4699080715  TIP3      10059           0.0000000000
     52428     10251  TIP3      H1            -17.7580671037      -36.4148172981      -62.1258661235  TIP3      10059           0.0000000000
     52429     10251  TIP3      H2            -17.9886106025      -34.9250720389      -61.9918461131  TIP3      10059           0.0000000000
     52430     10252  TIP3      OH2           -20.3602402416      -33.7720960376      -75.0147905555  TIP3      10060           0.0000000000
     52431     10252  TIP3      H1            -20.1596089393      -34.2440251408      -74.1800676449  TIP3      10060           0.0000000000
     52432     10252  TIP3      H2            -20.9609257159      -34.4143636388      -75.4678523036  TIP3      10060           0.0000000000
     52433     10253  TIP3      OH2           -34.8543601381      -32.9916404166      -70.5163989345  TIP3      10061           0.0000000000
     52434     10253  TIP3      H1            -34.4377331750      -33.8139788477      -70.1777342437  TIP3      10061           0.0000000000
     52435     10253  TIP3      H2            -34.3327329979      -32.3162573939      -70.0479469147  TIP3      10061           0.0000000000
     52436     10254  TIP3      OH2           -36.0117881571      -29.2407020578      -69.0541012932  TIP3      10062           0.0000000000
     52437     10254  TIP3      H1            -35.9790532823      -29.6719871550      -69.9340997253  TIP3      10062           0.0000000000
     52438     10254  TIP3      H2            -35.9419230033      -28.3253855329      -69.3366667555  TIP3      10062           0.0000000000
     52439     10255  TIP3      OH2           -18.5261657630      -33.7097596270      -63.1500882068  TIP3      10063           0.0000000000
     52440     10255  TIP3      H1            -19.4517108543      -33.3965695676      -63.2030455981  TIP3      10063           0.0000000000
     52441     10255  TIP3      H2            -18.4897698272      -34.2248850189      -63.9703412419  TIP3      10063           0.0000000000
     52442     10256  TIP3      OH2           -18.4990466283      -33.7398491814      -78.4203245675  TIP3      10064           0.0000000000
     52443     10256  TIP3      H1            -18.1507542851      -34.4574739293      -78.9747755362  TIP3      10064           0.0000000000
     52444     10256  TIP3      H2            -17.8045580053      -33.0815384898      -78.4837771760  TIP3      10064           0.0000000000
     52445     10257  TIP3      OH2           -35.7531930607      -33.7922935867      -75.7155359855  TIP3      10065           0.0000000000
     52446     10257  TIP3      H1            -36.6964024695      -33.5894229273      -75.6681857839  TIP3      10065           0.0000000000
     52447     10257  TIP3      H2            -35.5230602642      -33.0844250513      -76.3587675703  TIP3      10065           0.0000000000
     52448     10258  TIP3      OH2           -21.4949622226      -18.7852352461      -73.3860382144  TIP3      10066           0.0000000000
     52449     10258  TIP3      H1            -20.8111450989      -19.0857569857      -74.0118735466  TIP3      10066           0.0000000000
     52450     10258  TIP3      H2            -20.9741923189      -18.2831565755      -72.7431196807  TIP3      10066           0.0000000000
     52451     10259  TIP3      OH2            36.9458512859      -35.0592170257      -66.7708261577  TIP3      10067           0.0000000000
     52452     10259  TIP3      H1             36.1456678417      -35.3216436026      -66.3282893590  TIP3      10067           0.0000000000
     52453     10259  TIP3      H2             36.5199742463      -34.6147098675      -67.5295077737  TIP3      10067           0.0000000000
     52454     10260  TIP3      OH2           -34.0739365220      -21.8533103255      -62.8740552936  TIP3      10068           0.0000000000
     52455     10260  TIP3      H1            -34.9201076749      -21.6768747000      -63.3022800031  TIP3      10068           0.0000000000
     52456     10260  TIP3      H2            -34.3290675689      -21.9538878003      -61.9562151154  TIP3      10068           0.0000000000
     52457     10261  TIP3      OH2           -31.1017735234      -20.8464378859      -66.5585637763  TIP3      10069           0.0000000000
     52458     10261  TIP3      H1            -31.5166951134      -20.0376490092      -66.8882705438  TIP3      10069           0.0000000000
     52459     10261  TIP3      H2            -30.1953181524      -20.7799224473      -66.9187168158  TIP3      10069           0.0000000000
     52460     10262  TIP3      OH2           -26.8265770850      -19.4440388740      -63.7045489460  TIP3      10070           0.0000000000
     52461     10262  TIP3      H1            -26.6899366727      -19.8048847084      -62.7994866188  TIP3      10070           0.0000000000
     52462     10262  TIP3      H2            -25.9216068465      -19.1468670206      -63.9468411536  TIP3      10070           0.0000000000
     52463     10263  TIP3      OH2           -24.5357902059      -18.1807278629      -64.3903492113  TIP3      10071           0.0000000000
     52464     10263  TIP3      H1            -23.8025878859      -18.7676059073      -64.6310460371  TIP3      10071           0.0000000000
     52465     10263  TIP3      H2            -24.1572743494      -17.7447581581      -63.5972611234  TIP3      10071           0.0000000000
     52466     10264  TIP3      OH2           -19.5117872768      -35.5477927948      -65.3791016019  TIP3      10072           0.0000000000
     52467     10264  TIP3      H1            -20.3547953713      -35.2403364912      -65.7507043504  TIP3      10072           0.0000000000
     52468     10264  TIP3      H2            -19.3587336646      -36.4018692485      -65.8385458786  TIP3      10072           0.0000000000
     52469     10265  TIP3      OH2           -33.6489121899      -17.5740665071      -66.5644602111  TIP3      10073           0.0000000000
     52470     10265  TIP3      H1            -34.4402205544      -17.1627237675      -66.9857721496  TIP3      10073           0.0000000000
     52471     10265  TIP3      H2            -34.0465373444      -17.8392742212      -65.7142885197  TIP3      10073           0.0000000000
     52472     10266  TIP3      OH2           -31.2318383993      -17.9997166212      -67.5193192813  TIP3      10074           0.0000000000
     52473     10266  TIP3      H1            -32.1754841178      -18.0240227714      -67.2012621520  TIP3      10074           0.0000000000
     52474     10266  TIP3      H2            -31.3274735358      -17.5596403269      -68.3908596166  TIP3      10074           0.0000000000
     52475     10267  TIP3      OH2           -26.5882532461      -18.1667180516      -68.3405029894  TIP3      10075           0.0000000000
     52476     10267  TIP3      H1            -26.9721606082      -17.5982096884      -69.0270425812  TIP3      10075           0.0000000000
     52477     10267  TIP3      H2            -26.3691483869      -17.5227555911      -67.6385349713  TIP3      10075           0.0000000000
     52478     10268  TIP3      OH2           -24.2702064668      -19.3084824857      -67.3153027480  TIP3      10076           0.0000000000
     52479     10268  TIP3      H1            -25.1123236948      -19.0572851226      -67.7178903496  TIP3      10076           0.0000000000
     52480     10268  TIP3      H2            -23.7598032720      -18.4909779019      -67.4337715455  TIP3      10076           0.0000000000
     52481     10269  TIP3      OH2           -21.6716660071      -17.7687529264      -67.1195302685  TIP3      10077           0.0000000000
     52482     10269  TIP3      H1            -21.7228935466      -16.8095048399      -67.3478248939  TIP3      10077           0.0000000000
     52483     10269  TIP3      H2            -21.4509341549      -18.1436010298      -67.9974630787  TIP3      10077           0.0000000000
     52484     10270  TIP3      OH2           -34.2816053913      -18.9599031618      -69.6542644446  TIP3      10078           0.0000000000
     52485     10270  TIP3      H1            -34.3194871890      -19.4620615774      -68.8142717715  TIP3      10078           0.0000000000
     52486     10270  TIP3      H2            -33.5040583707      -19.3763487874      -70.0790127087  TIP3      10078           0.0000000000
     52487     10271  TIP3      OH2           -32.2192565978      -20.2823169072      -71.0218625202  TIP3      10079           0.0000000000
     52488     10271  TIP3      H1            -32.3706081916      -21.2159417642      -70.7772883797  TIP3      10079           0.0000000000
     52489     10271  TIP3      H2            -31.3467167588      -20.1391528069      -70.5951196590  TIP3      10079           0.0000000000
     52490     10272  TIP3      OH2           -29.6256957763      -19.7960691147      -70.1090487642  TIP3      10080           0.0000000000
     52491     10272  TIP3      H1            -29.4230918607      -20.7006778287      -70.4089309227  TIP3      10080           0.0000000000
     52492     10272  TIP3      H2            -29.5272316243      -19.8969303538      -69.1558160342  TIP3      10080           0.0000000000
     52493     10273  TIP3      OH2           -26.2476702970      -34.0819935876      -71.0165055247  TIP3      10081           0.0000000000
     52494     10273  TIP3      H1            -26.8138974616      -34.8099639360      -70.7419582921  TIP3      10081           0.0000000000
     52495     10273  TIP3      H2            -25.5501796308      -34.5550535074      -71.5153052438  TIP3      10081           0.0000000000
     52496     10274  TIP3      OH2           -20.9822177084      -36.0670126476      -70.9041880507  TIP3      10082           0.0000000000
     52497     10274  TIP3      H1            -20.3614238808      -35.5152193336      -71.4274528684  TIP3      10082           0.0000000000
     52498     10274  TIP3      H2            -21.8472942448      -35.7246554827      -71.1471836935  TIP3      10082           0.0000000000
     52499     10275  TIP3      OH2           -19.2913434136      -34.8133488671      -72.6515586565  TIP3      10083           0.0000000000
     52500     10275  TIP3      H1            -18.6611188245      -35.4097623247      -73.0722129025  TIP3      10083           0.0000000000
     52501     10275  TIP3      H2            -18.7877363743      -33.9772316609      -72.5766103110  TIP3      10083           0.0000000000
     52502     10276  TIP3      OH2           -33.7627212624      -35.4946886797      -73.1165671175  TIP3      10084           0.0000000000
     52503     10276  TIP3      H1            -34.5082637005      -35.7233306253      -73.6839006810  TIP3      10084           0.0000000000
     52504     10276  TIP3      H2            -33.2983020255      -36.3477013278      -73.1157365139  TIP3      10084           0.0000000000
     52505     10277  TIP3      OH2           -34.8645144854      -35.7938389426      -77.3731437108  TIP3      10085           0.0000000000
     52506     10277  TIP3      H1            -34.4996651609      -35.1472324767      -77.9979702328  TIP3      10085           0.0000000000
     52507     10277  TIP3      H2            -35.5401645541      -35.2371509224      -76.9451369896  TIP3      10085           0.0000000000
     52508     10278  TIP3      OH2           -29.2166438304      -35.6651771591      -73.3730780351  TIP3      10086           0.0000000000
     52509     10278  TIP3      H1            -28.3688999229      -35.1905435438      -73.4400077818  TIP3      10086           0.0000000000
     52510     10278  TIP3      H2            -29.2985257457      -35.7989616211      -72.4314078827  TIP3      10086           0.0000000000
     52511     10279  TIP3      OH2           -23.8320661398      -35.1997177159      -71.5871275053  TIP3      10087           0.0000000000
     52512     10279  TIP3      H1            -23.6902330959      -35.2456668889      -72.5361910187  TIP3      10087           0.0000000000
     52513     10279  TIP3      H2            -23.9211901570      -36.1760700546      -71.4502522376  TIP3      10087           0.0000000000
     52514     10280  TIP3      OH2           -22.3057815135      -35.4864704163      -75.9748182966  TIP3      10088           0.0000000000
     52515     10280  TIP3      H1            -23.0491758420      -34.9410828542      -76.2712332612  TIP3      10088           0.0000000000
     52516     10280  TIP3      H2            -22.6809751040      -36.3769021033      -75.9304640559  TIP3      10088           0.0000000000
     52517     10281  TIP3      OH2           -35.0331317698      -19.7833517521      -76.4224302197  TIP3      10089           0.0000000000
     52518     10281  TIP3      H1            -35.6944374959      -19.8342332524      -77.1304360941  TIP3      10089           0.0000000000
     52519     10281  TIP3      H2            -35.0541273770      -18.8348998657      -76.2656255816  TIP3      10089           0.0000000000
     52520     10282  TIP3      OH2           -33.1840675298      -33.9088496774      -78.8728482462  TIP3      10090           0.0000000000
     52521     10282  TIP3      H1            -32.6511984146      -34.4373075909      -79.4687118473  TIP3      10090           0.0000000000
     52522     10282  TIP3      H2            -32.5006564111      -33.5227703770      -78.3007221818  TIP3      10090           0.0000000000
     52523     10283  TIP3      OH2           -28.2110740882      -33.6042330232      -76.4620926757  TIP3      10091           0.0000000000
     52524     10283  TIP3      H1            -27.8281640502      -34.1366898591      -75.7416148523  TIP3      10091           0.0000000000
     52525     10283  TIP3      H2            -28.0580424780      -32.7192884488      -76.0517374675  TIP3      10091           0.0000000000
     52526     10284  TIP3      OH2           -26.2343778220      -18.1773564444      -78.0423690835  TIP3      10092           0.0000000000
     52527     10284  TIP3      H1            -25.2651996711      -18.2127116224      -78.1989563659  TIP3      10092           0.0000000000
     52528     10284  TIP3      H2            -26.4015113260      -18.9194543971      -78.6723562620  TIP3      10092           0.0000000000
     52529     10285  TIP3      OH2           -19.5043331731      -18.9939882919      -75.3565794240  TIP3      10093           0.0000000000
     52530     10285  TIP3      H1            -19.6988998845      -19.7758624693      -75.9306799610  TIP3      10093           0.0000000000
     52531     10285  TIP3      H2            -19.5890575322      -18.2588761295      -75.9988381958  TIP3      10093           0.0000000000
     52532     10286  TIP3      OH2           -33.9768080342      -34.9812851681      -63.8053743838  TIP3      10094           0.0000000000
     52533     10286  TIP3      H1            -34.3058421429      -35.7356143404      -63.3000030539  TIP3      10094           0.0000000000
     52534     10286  TIP3      H2            -33.0657758442      -34.9731033320      -63.4190997207  TIP3      10094           0.0000000000
     52535     10287  TIP3      OH2           -32.1382447726      -35.3884813986      -62.1670426062  TIP3      10095           0.0000000000
     52536     10287  TIP3      H1            -31.1961322531      -35.5796534259      -62.3009192639  TIP3      10095           0.0000000000
     52537     10287  TIP3      H2            -32.2936239787      -36.2448574479      -61.7146570059  TIP3      10095           0.0000000000
     52538     10288  TIP3      OH2           -33.1326656394      -18.7957189676      -79.4700991621  TIP3      10096           0.0000000000
     52539     10288  TIP3      H1            -33.5233564914      -18.5977159033      -78.6138459930  TIP3      10096           0.0000000000
     52540     10288  TIP3      H2            -32.4502241792      -19.4265985013      -79.2680671248  TIP3      10096           0.0000000000
     52541     10289  TIP3      OH2           -23.5561378419       37.0675503850      -61.9928585959  TIP3      10097           0.0000000000
     52542     10289  TIP3      H1            -23.4950235195       36.5096535409      -61.1890282583  TIP3      10097           0.0000000000
     52543     10289  TIP3      H2            -22.6621210451       36.8541626649      -62.3037960981  TIP3      10097           0.0000000000
     52544     10290  TIP3      OH2           -20.2557902410      -20.2551630725      -63.2798527478  TIP3      10098           0.0000000000
     52545     10290  TIP3      H1            -21.0591479199      -20.3964118310      -63.8271128064  TIP3      10098           0.0000000000
     52546     10290  TIP3      H2            -20.3720472245      -19.3082190602      -63.0609271328  TIP3      10098           0.0000000000
     52547     10291  TIP3      OH2            -5.8118081408      -26.3769157694      -73.2940932243  TIP3      10099           0.0000000000
     52548     10291  TIP3      H1             -5.8219802359      -25.3969570387      -73.3353816766  TIP3      10099           0.0000000000
     52549     10291  TIP3      H2             -6.5379962518      -26.6108881326      -73.8953101040  TIP3      10099           0.0000000000
     52550     10292  TIP3      OH2            -6.9588896725      -27.1221360997      -69.7998680852  TIP3      10100           0.0000000000
     52551     10292  TIP3      H1             -6.9676333875      -27.7710411777      -69.0792658986  TIP3      10100           0.0000000000
     52552     10292  TIP3      H2             -7.3035594047      -27.6330842927      -70.5506830577  TIP3      10100           0.0000000000
     52553     10293  TIP3      OH2           -14.6022846522      -27.4452129151      -68.2437296739  TIP3      10101           0.0000000000
     52554     10293  TIP3      H1            -14.5189671107      -28.1330885074      -67.5500276911  TIP3      10101           0.0000000000
     52555     10293  TIP3      H2            -13.8529038149      -26.8750588535      -68.0191366421  TIP3      10101           0.0000000000
     52556     10294  TIP3      OH2            -3.2691629841      -24.1727067393      -71.5118413677  TIP3      10102           0.0000000000
     52557     10294  TIP3      H1             -3.6825322137      -24.8901196249      -71.0212455476  TIP3      10102           0.0000000000
     52558     10294  TIP3      H2             -3.2439442102      -23.4656008962      -70.8405881913  TIP3      10102           0.0000000000
     52559     10295  TIP3      OH2           -13.6765874301      -22.9979969081      -69.7433092686  TIP3      10103           0.0000000000
     52560     10295  TIP3      H1            -13.9875164503      -23.8680486014      -70.0607115788  TIP3      10103           0.0000000000
     52561     10295  TIP3      H2            -12.7210264754      -23.1810007681      -69.6967861483  TIP3      10103           0.0000000000
     52562     10296  TIP3      OH2           -17.0288154982      -29.4424045646      -74.2365478580  TIP3      10104           0.0000000000
     52563     10296  TIP3      H1            -17.4690378101      -28.5775041730      -74.3183015064  TIP3      10104           0.0000000000
     52564     10296  TIP3      H2            -17.6023822579      -29.9798887566      -74.8021622031  TIP3      10104           0.0000000000
     52565     10297  TIP3      OH2           -16.3117242610      -27.1945744419      -72.1027397467  TIP3      10105           0.0000000000
     52566     10297  TIP3      H1            -16.0531045682      -28.0279604128      -71.6583237224  TIP3      10105           0.0000000000
     52567     10297  TIP3      H2            -15.6244607851      -27.1072971567      -72.7780475817  TIP3      10105           0.0000000000
     52568     10298  TIP3      OH2            -6.1472948104      -19.0131282428      -71.2774100611  TIP3      10106           0.0000000000
     52569     10298  TIP3      H1             -5.5007128039      -19.7043895849      -71.5612377399  TIP3      10106           0.0000000000
     52570     10298  TIP3      H2             -6.3642999789      -19.3532053500      -70.4057253219  TIP3      10106           0.0000000000
     52571     10299  TIP3      OH2            -8.5792840232      -24.7258042954      -69.3215021969  TIP3      10107           0.0000000000
     52572     10299  TIP3      H1             -8.2417294473      -25.3503434539      -69.9815060838  TIP3      10107           0.0000000000
     52573     10299  TIP3      H2             -7.7686060650      -24.5654727039      -68.8074903766  TIP3      10107           0.0000000000
     52574     10300  TIP3      OH2             0.0052568916      -33.0676104289      -68.6006993253  TIP3      10108           0.0000000000
     52575     10300  TIP3      H1              0.1973116229      -32.4943458981      -67.8243288656  TIP3      10108           0.0000000000
     52576     10300  TIP3      H2              0.5709026067      -32.6439130488      -69.2611412217  TIP3      10108           0.0000000000
     52577     10301  TIP3      OH2            -5.4102879635      -30.2548491397      -68.9985689439  TIP3      10109           0.0000000000
     52578     10301  TIP3      H1             -5.2552208760      -31.2209967480      -68.9989997104  TIP3      10109           0.0000000000
     52579     10301  TIP3      H2             -5.5162837022      -30.1088947830      -69.9596640516  TIP3      10109           0.0000000000
     52580     10302  TIP3      OH2           -12.2876390971      -32.1498993140      -71.7887341706  TIP3      10110           0.0000000000
     52581     10302  TIP3      H1            -12.1881153772      -31.3203474136      -72.2945721252  TIP3      10110           0.0000000000
     52582     10302  TIP3      H2            -12.7012211599      -32.7225312296      -72.4676040464  TIP3      10110           0.0000000000
     52583     10303  TIP3      OH2            -4.5513603684      -32.1133593092      -73.4328519654  TIP3      10111           0.0000000000
     52584     10303  TIP3      H1             -3.9005391192      -32.3810968262      -72.7447724510  TIP3      10111           0.0000000000
     52585     10303  TIP3      H2             -4.0029427306      -31.5242551680      -73.9744574627  TIP3      10111           0.0000000000
     52586     10304  TIP3      OH2           -15.6772543537      -29.7509169457      -71.0579508846  TIP3      10112           0.0000000000
     52587     10304  TIP3      H1            -15.0065435618      -30.2968039721      -70.6044085934  TIP3      10112           0.0000000000
     52588     10304  TIP3      H2            -15.5705718604      -30.0698154840      -71.9699341348  TIP3      10112           0.0000000000
     52589     10305  TIP3      OH2           -10.5173312086      -28.1979721621      -71.7429127614  TIP3      10113           0.0000000000
     52590     10305  TIP3      H1             -9.8453054261      -28.7789177302      -71.3471034878  TIP3      10113           0.0000000000
     52591     10305  TIP3      H2            -11.0329964471      -28.8554731963      -72.2516624475  TIP3      10113           0.0000000000
     52592     10306  TIP3      OH2             0.4682625892      -31.6590661011      -66.3131740598  TIP3      10114           0.0000000000
     52593     10306  TIP3      H1             -0.1556938829      -30.9104591382      -66.4221772314  TIP3      10114           0.0000000000
     52594     10306  TIP3      H2              0.5040411744      -31.7532752306      -65.3529375689  TIP3      10114           0.0000000000
     52595     10307  TIP3      OH2           -13.3759976514      -33.2109377725      -67.7659274094  TIP3      10115           0.0000000000
     52596     10307  TIP3      H1            -13.7024037132      -32.6771077694      -68.5191775792  TIP3      10115           0.0000000000
     52597     10307  TIP3      H2            -14.0822628635      -33.0363118722      -67.0942943378  TIP3      10115           0.0000000000
     52598     10308  TIP3      OH2            -6.1079357905      -23.7915190437      -74.2103872312  TIP3      10116           0.0000000000
     52599     10308  TIP3      H1             -6.3763336400      -24.0559255640      -75.1040146502  TIP3      10116           0.0000000000
     52600     10308  TIP3      H2             -6.4072314988      -22.8575991452      -74.1580583466  TIP3      10116           0.0000000000
     52601     10309  TIP3      OH2           -10.8774388336      -25.6231229420      -67.5161339283  TIP3      10117           0.0000000000
     52602     10309  TIP3      H1            -11.5814239262      -24.9780277016      -67.2942870028  TIP3      10117           0.0000000000
     52603     10309  TIP3      H2            -10.1705917930      -25.0247524530      -67.8063893194  TIP3      10117           0.0000000000
     52604     10310  TIP3      OH2            -2.7404876276      -32.7562359974      -71.4448008956  TIP3      10118           0.0000000000
     52605     10310  TIP3      H1             -2.9904761229      -33.4961333776      -70.8801003110  TIP3      10118           0.0000000000
     52606     10310  TIP3      H2             -2.0786429314      -32.3050678848      -70.8956433137  TIP3      10118           0.0000000000
     52607     10311  TIP3      OH2           -13.8307058090      -31.3602386839      -69.7421681037  TIP3      10119           0.0000000000
     52608     10311  TIP3      H1            -13.1788667197      -30.7140422604      -69.3986983384  TIP3      10119           0.0000000000
     52609     10311  TIP3      H2            -13.3105775953      -31.8068727699      -70.4575334408  TIP3      10119           0.0000000000
     52610     10312  TIP3      OH2           -12.4283953583      -23.6169660295      -66.6948955601  TIP3      10120           0.0000000000
     52611     10312  TIP3      H1            -12.4797310831      -22.7041241491      -67.0315043722  TIP3      10120           0.0000000000
     52612     10312  TIP3      H2            -13.3104076333      -23.6986032717      -66.2513688952  TIP3      10120           0.0000000000
     52613     10313  TIP3      OH2           -16.3697937384      -24.0098125513      -75.9124827208  TIP3      10121           0.0000000000
     52614     10313  TIP3      H1            -16.5792426160      -23.6646368572      -76.8005555204  TIP3      10121           0.0000000000
     52615     10313  TIP3      H2            -16.2845885183      -23.1825532977      -75.3917313129  TIP3      10121           0.0000000000
     52616     10314  TIP3      OH2            -2.7400724700      -22.3353808380      -69.1431159297  TIP3      10122           0.0000000000
     52617     10314  TIP3      H1             -3.7082481247      -22.2241397062      -69.0234212782  TIP3      10122           0.0000000000
     52618     10314  TIP3      H2             -2.4709141921      -21.4199030726      -69.3463786314  TIP3      10122           0.0000000000
     52619     10315  TIP3      OH2            -2.3825710478      -34.0547483941      -67.6937177679  TIP3      10123           0.0000000000
     52620     10315  TIP3      H1             -3.1309481951      -33.4664761288      -67.8499792289  TIP3      10123           0.0000000000
     52621     10315  TIP3      H2             -1.6952549668      -33.6502531946      -68.2620197717  TIP3      10123           0.0000000000
     52622     10316  TIP3      OH2            -9.4767005438      -35.9256183161      -70.4643536259  TIP3      10124           0.0000000000
     52623     10316  TIP3      H1             -9.4889620513      -36.8812606050      -70.2990275197  TIP3      10124           0.0000000000
     52624     10316  TIP3      H2            -10.2631022814      -35.6573166496      -69.9618369380  TIP3      10124           0.0000000000
     52625     10317  TIP3      OH2            -4.4792522112      -20.5527050500      -72.5558532783  TIP3      10125           0.0000000000
     52626     10317  TIP3      H1             -4.0525734870      -21.2723230804      -73.0643751228  TIP3      10125           0.0000000000
     52627     10317  TIP3      H2             -4.0403186059      -19.7639258707      -72.9388741564  TIP3      10125           0.0000000000
     52628     10318  TIP3      OH2            -3.2671147694      -22.6264512036      -74.0434699946  TIP3      10126           0.0000000000
     52629     10318  TIP3      H1             -3.5615701054      -23.3175923569      -74.6619156846  TIP3      10126           0.0000000000
     52630     10318  TIP3      H2             -3.2359225230      -23.1201988157      -73.2029492161  TIP3      10126           0.0000000000
     52631     10319  TIP3      OH2            -1.6537861438      -24.0273070129      -65.5436668118  TIP3      10127           0.0000000000
     52632     10319  TIP3      H1             -1.5051754173      -24.6827079997      -66.2611684842  TIP3      10127           0.0000000000
     52633     10319  TIP3      H2             -1.4456137046      -23.1861984804      -65.9892845575  TIP3      10127           0.0000000000
     52634     10320  TIP3      OH2            -7.1636494314      -27.1296637896      -75.8051865145  TIP3      10128           0.0000000000
     52635     10320  TIP3      H1             -7.8514966012      -26.5477251247      -76.1840046399  TIP3      10128           0.0000000000
     52636     10320  TIP3      H2             -6.4533834407      -27.0534963506      -76.4674858276  TIP3      10128           0.0000000000
     52637     10321  TIP3      OH2            -7.1601442380      -28.6370182368      -78.6679100312  TIP3      10129           0.0000000000
     52638     10321  TIP3      H1             -6.3737442238      -28.5733019940      -78.1038630759  TIP3      10129           0.0000000000
     52639     10321  TIP3      H2             -6.8108390610      -29.2296389963      -79.3351381000  TIP3      10129           0.0000000000
     52640     10322  TIP3      OH2             0.2362911452      -27.7158739291      -67.5014702651  TIP3      10130           0.0000000000
     52641     10322  TIP3      H1             -0.4213175559      -26.9935979326      -67.4615778222  TIP3      10130           0.0000000000
     52642     10322  TIP3      H2              0.7326678964      -27.4831186002      -68.3085424734  TIP3      10130           0.0000000000
     52643     10323  TIP3      OH2            -3.7099725438      -26.9256678286      -74.8374905649  TIP3      10131           0.0000000000
     52644     10323  TIP3      H1             -4.4556600890      -26.6852547844      -74.2359991051  TIP3      10131           0.0000000000
     52645     10323  TIP3      H2             -3.2340653928      -27.6036746929      -74.3223692117  TIP3      10131           0.0000000000
     52646     10324  TIP3      OH2            -3.7779642049      -28.7690085337      -65.7313748383  TIP3      10132           0.0000000000
     52647     10324  TIP3      H1             -3.7647017912      -27.9525345503      -65.2029006403  TIP3      10132           0.0000000000
     52648     10324  TIP3      H2             -4.4046321029      -28.4725396055      -66.4240874331  TIP3      10132           0.0000000000
     52649     10325  TIP3      OH2           -12.0943071160      -26.2665058648      -72.9425482051  TIP3      10133           0.0000000000
     52650     10325  TIP3      H1            -12.4141897004      -26.6609073731      -73.7899584417  TIP3      10133           0.0000000000
     52651     10325  TIP3      H2            -11.4806220949      -26.9606247914      -72.6077023013  TIP3      10133           0.0000000000
     52652     10326  TIP3      OH2           -10.7755373334      -22.8890468581      -70.2620232249  TIP3      10134           0.0000000000
     52653     10326  TIP3      H1            -10.7787580643      -23.4115640608      -71.0733162817  TIP3      10134           0.0000000000
     52654     10326  TIP3      H2             -9.9918867580      -23.2440592464      -69.8033633154  TIP3      10134           0.0000000000
     52655     10327  TIP3      OH2           -11.7656599090      -27.5234618529      -69.2783723613  TIP3      10135           0.0000000000
     52656     10327  TIP3      H1            -11.2168559583      -27.4251168368      -70.0809344408  TIP3      10135           0.0000000000
     52657     10327  TIP3      H2            -11.3746136892      -26.8555030824      -68.6717402244  TIP3      10135           0.0000000000
     52658     10328  TIP3      OH2            -5.3429350526      -21.9525644227      -68.5716053364  TIP3      10136           0.0000000000
     52659     10328  TIP3      H1             -5.6354747287      -21.3151090632      -67.9142875571  TIP3      10136           0.0000000000
     52660     10328  TIP3      H2             -5.6026813528      -22.8047183976      -68.1502604725  TIP3      10136           0.0000000000
     52661     10329  TIP3      OH2           -10.8057321467      -23.0913510950      -64.5962285590  TIP3      10137           0.0000000000
     52662     10329  TIP3      H1            -11.2223756567      -22.3586949095      -64.0957579002  TIP3      10137           0.0000000000
     52663     10329  TIP3      H2            -11.4855430833      -23.2941096095      -65.2845823067  TIP3      10137           0.0000000000
     52664     10330  TIP3      OH2            -4.8214269543      -27.7518727330      -77.1752050366  TIP3      10138           0.0000000000
     52665     10330  TIP3      H1             -4.2810450130      -27.5460954724      -76.3738570483  TIP3      10138           0.0000000000
     52666     10330  TIP3      H2             -4.4117061211      -27.1938639194      -77.8667995226  TIP3      10138           0.0000000000
     52667     10331  TIP3      OH2           -13.8698080576      -26.9350229871      -65.4297837239  TIP3      10139           0.0000000000
     52668     10331  TIP3      H1            -13.8160303430      -26.2652871485      -64.7227904507  TIP3      10139           0.0000000000
     52669     10331  TIP3      H2            -14.8124969964      -26.8459317581      -65.6366439957  TIP3      10139           0.0000000000
     52670     10332  TIP3      OH2            -7.1238715405      -21.0116549771      -73.7103691906  TIP3      10140           0.0000000000
     52671     10332  TIP3      H1             -6.6863794640      -20.6954996145      -72.9123050898  TIP3      10140           0.0000000000
     52672     10332  TIP3      H2             -7.6724163796      -20.2614629274      -73.9707918331  TIP3      10140           0.0000000000
     52673     10333  TIP3      OH2           -12.5646433101      -21.0600970164      -63.8377092301  TIP3      10141           0.0000000000
     52674     10333  TIP3      H1            -12.6269061287      -21.1587215036      -64.8028729408  TIP3      10141           0.0000000000
     52675     10333  TIP3      H2            -13.4937981014      -21.1943823386      -63.5682762246  TIP3      10141           0.0000000000
     52676     10334  TIP3      OH2            -1.0822887284      -35.8168976780      -77.4579381805  TIP3      10142           0.0000000000
     52677     10334  TIP3      H1             -2.0044255175      -35.8229111766      -77.1250511328  TIP3      10142           0.0000000000
     52678     10334  TIP3      H2             -0.9237583586      -34.9350311235      -77.8118734017  TIP3      10142           0.0000000000
     52679     10335  TIP3      OH2           -13.1234581065      -27.2401150191      -75.3259341515  TIP3      10143           0.0000000000
     52680     10335  TIP3      H1            -13.4003118263      -26.4648660504      -75.8562898280  TIP3      10143           0.0000000000
     52681     10335  TIP3      H2            -13.7865913922      -27.8970222904      -75.5582224652  TIP3      10143           0.0000000000
     52682     10336  TIP3      OH2            -0.0296961662      -21.6547064657      -78.9089533553  TIP3      10144           0.0000000000
     52683     10336  TIP3      H1              0.1146780544      -20.6980956466      -78.8070564073  TIP3      10144           0.0000000000
     52684     10336  TIP3      H2              0.8967253778      -21.9459445471      -78.9910019236  TIP3      10144           0.0000000000
     52685     10337  TIP3      OH2           -17.0030912496      -24.8192716762      -66.4262714491  TIP3      10145           0.0000000000
     52686     10337  TIP3      H1            -17.4804202539      -24.8914540200      -67.2738385956  TIP3      10145           0.0000000000
     52687     10337  TIP3      H2            -16.9489090715      -25.7698182969      -66.2102232893  TIP3      10145           0.0000000000
     52688     10338  TIP3      OH2           -17.2752630753      -22.0821207410      -69.6497276034  TIP3      10146           0.0000000000
     52689     10338  TIP3      H1            -16.3172214542      -22.1988909890      -69.6713787749  TIP3      10146           0.0000000000
     52690     10338  TIP3      H2            -17.3561751959      -21.2635824686      -69.1465134861  TIP3      10146           0.0000000000
     52691     10339  TIP3      OH2             0.9656641091      -21.3790293653      -63.9593799514  TIP3      10147           0.0000000000
     52692     10339  TIP3      H1              0.8473282008      -22.3379033891      -63.9892770622  TIP3      10147           0.0000000000
     52693     10339  TIP3      H2              0.0915856218      -21.1306327161      -63.5758697545  TIP3      10147           0.0000000000
     52694     10340  TIP3      OH2            -8.0785935423      -21.8398614918      -65.1009863327  TIP3      10148           0.0000000000
     52695     10340  TIP3      H1             -8.0198299831      -20.9980127268      -64.5910642119  TIP3      10148           0.0000000000
     52696     10340  TIP3      H2             -8.9510052145      -22.1994046336      -64.8483509475  TIP3      10148           0.0000000000
     52697     10341  TIP3      OH2            -7.6481539293      -18.1017784451      -75.3260837205  TIP3      10149           0.0000000000
     52698     10341  TIP3      H1             -7.7479847468      -18.1644250423      -76.2902679132  TIP3      10149           0.0000000000
     52699     10341  TIP3      H2             -7.6285382146      -17.1487365488      -75.1181294464  TIP3      10149           0.0000000000
     52700     10342  TIP3      OH2           -13.9962164651      -19.2190901135      -73.4892976754  TIP3      10150           0.0000000000
     52701     10342  TIP3      H1            -13.8530000679      -19.6258656248      -72.6061253547  TIP3      10150           0.0000000000
     52702     10342  TIP3      H2            -14.8476488074      -19.6249083525      -73.7199820789  TIP3      10150           0.0000000000
     52703     10343  TIP3      OH2            -4.6564801972      -18.8804572467      -78.3295667104  TIP3      10151           0.0000000000
     52704     10343  TIP3      H1             -4.1457249026      -19.6069324147      -78.7714828595  TIP3      10151           0.0000000000
     52705     10343  TIP3      H2             -4.5323937418      -19.1416451618      -77.3965626792  TIP3      10151           0.0000000000
     52706     10344  TIP3      OH2            -4.9067354563      -18.9246231461      -75.5390256526  TIP3      10152           0.0000000000
     52707     10344  TIP3      H1             -5.8628313992      -18.8889872537      -75.3541848056  TIP3      10152           0.0000000000
     52708     10344  TIP3      H2             -4.6419193558      -19.6761961197      -74.9768313661  TIP3      10152           0.0000000000
     52709     10345  TIP3      OH2            -1.9054203940      -29.9287664584      -63.4935797029  TIP3      10153           0.0000000000
     52710     10345  TIP3      H1             -2.3662903596      -29.4668289972      -64.2122886466  TIP3      10153           0.0000000000
     52711     10345  TIP3      H2             -1.9045735461      -30.8463834367      -63.8023539478  TIP3      10153           0.0000000000
     52712     10346  TIP3      OH2           -14.7512869217      -23.4997325169      -65.4908254868  TIP3      10154           0.0000000000
     52713     10346  TIP3      H1            -14.5451491672      -23.8654991842      -64.6058003501  TIP3      10154           0.0000000000
     52714     10346  TIP3      H2            -15.6186220214      -23.9011467456      -65.7068095695  TIP3      10154           0.0000000000
     52715     10347  TIP3      OH2           -12.0929917351      -35.0648709125      -69.5064822994  TIP3      10155           0.0000000000
     52716     10347  TIP3      H1            -12.9836138683      -35.1251835504      -69.9047844869  TIP3      10155           0.0000000000
     52717     10347  TIP3      H2            -12.2013530130      -34.2085268567      -69.0624603160  TIP3      10155           0.0000000000
     52718     10348  TIP3      OH2            -7.4471856850      -35.3345719067      -66.1239101021  TIP3      10156           0.0000000000
     52719     10348  TIP3      H1             -7.0204308725      -35.7580502740      -65.3776640756  TIP3      10156           0.0000000000
     52720     10348  TIP3      H2             -8.3999797981      -35.4472331649      -65.9654410089  TIP3      10156           0.0000000000
     52721     10349  TIP3      OH2            -4.1386613377      -31.5576611381      -65.2678284939  TIP3      10157           0.0000000000
     52722     10349  TIP3      H1             -4.7203953753      -31.7094941260      -64.4885813689  TIP3      10157           0.0000000000
     52723     10349  TIP3      H2             -4.3022607704      -30.6284972077      -65.5152120866  TIP3      10157           0.0000000000
     52724     10350  TIP3      OH2            -3.2934498368      -26.6069168564      -79.3139682861  TIP3      10158           0.0000000000
     52725     10350  TIP3      H1             -3.3038005910      -26.8249564573      -80.2649004357  TIP3      10158           0.0000000000
     52726     10350  TIP3      H2             -2.3987407172      -26.2200125267      -79.2426548492  TIP3      10158           0.0000000000
     52727     10351  TIP3      OH2            -7.7958493076      -32.7892994491      -78.8307582295  TIP3      10159           0.0000000000
     52728     10351  TIP3      H1             -8.0787375843      -32.8438018452      -77.9024569945  TIP3      10159           0.0000000000
     52729     10351  TIP3      H2             -8.0062294361      -33.6772888762      -79.1296286283  TIP3      10159           0.0000000000
     52730     10352  TIP3      OH2           -11.9649044930      -30.0510541752      -68.2734516074  TIP3      10160           0.0000000000
     52731     10352  TIP3      H1            -12.7078184597      -30.0638832676      -67.6452746162  TIP3      10160           0.0000000000
     52732     10352  TIP3      H2            -12.0145417456      -29.1458503559      -68.6563939087  TIP3      10160           0.0000000000
     52733     10353  TIP3      OH2           -12.0113705038      -29.9445894836      -73.4214724110  TIP3      10161           0.0000000000
     52734     10353  TIP3      H1            -12.9526380702      -30.1774841597      -73.5690065606  TIP3      10161           0.0000000000
     52735     10353  TIP3      H2            -11.6325261827      -30.2280923747      -74.2799087738  TIP3      10161           0.0000000000
     52736     10354  TIP3      OH2            -6.4795336446      -29.4339135640      -74.6999253803  TIP3      10162           0.0000000000
     52737     10354  TIP3      H1             -6.8877395669      -28.5982336514      -75.0172827336  TIP3      10162           0.0000000000
     52738     10354  TIP3      H2             -5.7826851463      -29.5882642627      -75.3629761332  TIP3      10162           0.0000000000
     52739     10355  TIP3      OH2            -7.4280730111      -29.2221257953      -63.2154934877  TIP3      10163           0.0000000000
     52740     10355  TIP3      H1             -7.9580383778      -29.9955982980      -62.9052267037  TIP3      10163           0.0000000000
     52741     10355  TIP3      H2             -6.5919798746      -29.3464273977      -62.7366526539  TIP3      10163           0.0000000000
     52742     10356  TIP3      OH2            -5.4452520381      -29.9444197755      -71.8017131000  TIP3      10164           0.0000000000
     52743     10356  TIP3      H1             -5.7343839911      -29.3852166464      -72.5416154720  TIP3      10164           0.0000000000
     52744     10356  TIP3      H2             -5.3591228260      -30.7925677329      -72.2716501385  TIP3      10164           0.0000000000
     52745     10357  TIP3      OH2           -14.3475955594      -29.8021738884      -66.6063147550  TIP3      10165           0.0000000000
     52746     10357  TIP3      H1            -14.2616506122      -29.3967662938      -65.7262747684  TIP3      10165           0.0000000000
     52747     10357  TIP3      H2            -14.7949332484      -30.6350017162      -66.3959257993  TIP3      10165           0.0000000000
     52748     10358  TIP3      OH2           -10.7556191178      -32.1381475709      -79.3815809178  TIP3      10166           0.0000000000
     52749     10358  TIP3      H1            -11.3367880301      -32.7680701217      -78.9192860448  TIP3      10166           0.0000000000
     52750     10358  TIP3      H2            -11.3132922339      -31.7742635666      -80.0823131018  TIP3      10166           0.0000000000
     52751     10359  TIP3      OH2           -17.6763756722      -32.6596547696      -72.6288710159  TIP3      10167           0.0000000000
     52752     10359  TIP3      H1            -16.9972131451      -32.7009190396      -71.9227521375  TIP3      10167           0.0000000000
     52753     10359  TIP3      H2            -17.2343906628      -33.0543930334      -73.3987729959  TIP3      10167           0.0000000000
     52754     10360  TIP3      OH2           -16.3800436301      -31.9180196064      -77.1707426597  TIP3      10168           0.0000000000
     52755     10360  TIP3      H1            -15.9128745157      -31.3826039402      -77.8523948527  TIP3      10168           0.0000000000
     52756     10360  TIP3      H2            -17.1155333356      -31.3155338397      -76.9579988672  TIP3      10168           0.0000000000
     52757     10361  TIP3      OH2            -6.2593482483      -28.3584803155      -67.2528195533  TIP3      10169           0.0000000000
     52758     10361  TIP3      H1             -5.8754424737      -29.0466832203      -67.8354858063  TIP3      10169           0.0000000000
     52759     10361  TIP3      H2             -6.7225122155      -28.8886568645      -66.5793020793  TIP3      10169           0.0000000000
     52760     10362  TIP3      OH2            -9.4557430316      -32.3921892864      -72.4341396715  TIP3      10170           0.0000000000
     52761     10362  TIP3      H1            -10.3841870448      -32.3888860854      -72.1178407221  TIP3      10170           0.0000000000
     52762     10362  TIP3      H2             -8.9592688410      -32.5427198013      -71.6123621918  TIP3      10170           0.0000000000
     52763     10363  TIP3      OH2           -14.6408441575      -30.8339653450      -73.5462720576  TIP3      10171           0.0000000000
     52764     10363  TIP3      H1            -15.5257653555      -30.6827907625      -73.9389399805  TIP3      10171           0.0000000000
     52765     10363  TIP3      H2            -14.3446529050      -31.6612318715      -73.9628462593  TIP3      10171           0.0000000000
     52766     10364  TIP3      OH2           -11.0056716885      -30.7630244179      -75.9068440727  TIP3      10172           0.0000000000
     52767     10364  TIP3      H1            -10.0445756090      -30.6822692770      -75.7451546197  TIP3      10172           0.0000000000
     52768     10364  TIP3      H2            -11.2324526149      -30.1124503727      -76.5981884509  TIP3      10172           0.0000000000
     52769     10365  TIP3      OH2            -5.0455452229      -33.1708832838      -69.1799195714  TIP3      10173           0.0000000000
     52770     10365  TIP3      H1             -5.7347818020      -33.0911996267      -68.4866253962  TIP3      10173           0.0000000000
     52771     10365  TIP3      H2             -5.5469935683      -33.4361028921      -69.9624412745  TIP3      10173           0.0000000000
     52772     10366  TIP3      OH2           -12.2980031926      -29.6130131076      -78.3288095602  TIP3      10174           0.0000000000
     52773     10366  TIP3      H1            -12.8734538546      -29.9593876863      -79.0265539531  TIP3      10174           0.0000000000
     52774     10366  TIP3      H2            -11.4782671581      -29.4324842321      -78.8065604155  TIP3      10174           0.0000000000
     52775     10367  TIP3      OH2            -1.8467304264      -17.5080528703      -62.8492320114  TIP3      10175           0.0000000000
     52776     10367  TIP3      H1             -1.5801236758      -17.1242167861      -63.7035713846  TIP3      10175           0.0000000000
     52777     10367  TIP3      H2             -1.1226495049      -17.1877788296      -62.2899819481  TIP3      10175           0.0000000000
     52778     10368  TIP3      OH2           -14.1688849201      -25.0289879702      -63.2774876725  TIP3      10176           0.0000000000
     52779     10368  TIP3      H1            -13.4469196523      -24.7915207399      -62.6719415147  TIP3      10176           0.0000000000
     52780     10368  TIP3      H2            -14.9407295073      -24.9550968117      -62.6743117029  TIP3      10176           0.0000000000
     52781     10369  TIP3      OH2            -8.1634681861      -29.6323275357      -70.5258877626  TIP3      10177           0.0000000000
     52782     10369  TIP3      H1             -7.5670928193      -30.1772693861      -71.0529597594  TIP3      10177           0.0000000000
     52783     10369  TIP3      H2             -8.3197491966      -30.1757541066      -69.7411252792  TIP3      10177           0.0000000000
     52784     10370  TIP3      OH2           -13.1786198305      -33.4575507742      -74.0589611133  TIP3      10178           0.0000000000
     52785     10370  TIP3      H1            -13.4894420043      -34.3768961468      -74.0613620437  TIP3      10178           0.0000000000
     52786     10370  TIP3      H2            -12.3984215693      -33.5328578467      -74.6228497227  TIP3      10178           0.0000000000
     52787     10371  TIP3      OH2            -9.5206401942      -31.2511174990      -68.1232063221  TIP3      10179           0.0000000000
     52788     10371  TIP3      H1            -10.3642474135      -30.7667675108      -68.0121770744  TIP3      10179           0.0000000000
     52789     10371  TIP3      H2             -8.9763347293      -30.9373408132      -67.3764795992  TIP3      10179           0.0000000000
     52790     10372  TIP3      OH2            -8.9420575753      -25.0941885104      -76.4013848644  TIP3      10180           0.0000000000
     52791     10372  TIP3      H1             -9.7471221601      -25.5594781786      -76.7091388415  TIP3      10180           0.0000000000
     52792     10372  TIP3      H2             -9.1533790414      -24.9584029777      -75.4561295410  TIP3      10180           0.0000000000
     52793     10373  TIP3      OH2            -1.7541362263      -25.8741818540      -67.6073768258  TIP3      10181           0.0000000000
     52794     10373  TIP3      H1             -1.1922928502      -25.3911481305      -68.2404366743  TIP3      10181           0.0000000000
     52795     10373  TIP3      H2             -2.6148805490      -25.8303314855      -68.0708320166  TIP3      10181           0.0000000000
     52796     10374  TIP3      OH2            -5.0769062210      -32.2399566174      -78.2456547577  TIP3      10182           0.0000000000
     52797     10374  TIP3      H1             -6.0261715273      -32.1248854103      -78.4188938750  TIP3      10182           0.0000000000
     52798     10374  TIP3      H2             -4.7836094239      -31.3974935720      -77.8649403326  TIP3      10182           0.0000000000
     52799     10375  TIP3      OH2            -7.4498261112      -24.8063832428      -65.1652572509  TIP3      10183           0.0000000000
     52800     10375  TIP3      H1             -7.7999315759      -25.2367378267      -64.3784650628  TIP3      10183           0.0000000000
     52801     10375  TIP3      H2             -7.7069695377      -23.8852766827      -65.0583804163  TIP3      10183           0.0000000000
     52802     10376  TIP3      OH2            -4.3691751156      -30.3498113137      -76.5715952263  TIP3      10184           0.0000000000
     52803     10376  TIP3      H1             -3.4660060629      -30.5030437718      -76.2272592964  TIP3      10184           0.0000000000
     52804     10376  TIP3      H2             -4.2861630221      -29.5306673920      -77.0880328567  TIP3      10184           0.0000000000
     52805     10377  TIP3      OH2           -13.8298519043      -25.6796919157      -70.6105722628  TIP3      10185           0.0000000000
     52806     10377  TIP3      H1            -13.1529495285      -25.7657628581      -71.3100657771  TIP3      10185           0.0000000000
     52807     10377  TIP3      H2            -13.7732922151      -26.5389999463      -70.1547002210  TIP3      10185           0.0000000000
     52808     10378  TIP3      OH2            -6.8618086806      -23.6265884623      -77.3825914851  TIP3      10186           0.0000000000
     52809     10378  TIP3      H1             -7.2081547787      -22.7828800174      -77.0161517368  TIP3      10186           0.0000000000
     52810     10378  TIP3      H2             -7.5796035365      -24.2534654067      -77.1456917627  TIP3      10186           0.0000000000
     52811     10379  TIP3      OH2           -16.8473453909      -27.2788970844      -65.3417686509  TIP3      10187           0.0000000000
     52812     10379  TIP3      H1            -16.6767114394      -27.7258788039      -64.4937785673  TIP3      10187           0.0000000000
     52813     10379  TIP3      H2            -17.4627887797      -27.8897746441      -65.7932791980  TIP3      10187           0.0000000000
     52814     10380  TIP3      OH2            -9.8297192203      -27.7188401452      -63.1737242045  TIP3      10188           0.0000000000
     52815     10380  TIP3      H1            -10.1496864509      -28.0295359843      -64.0326427335  TIP3      10188           0.0000000000
     52816     10380  TIP3      H2             -8.9075337091      -28.0452909441      -63.1744377442  TIP3      10188           0.0000000000
     52817     10381  TIP3      OH2            -5.1431926967      -22.3840337230      -65.2167402496  TIP3      10189           0.0000000000
     52818     10381  TIP3      H1             -6.0685060095      -22.2059559777      -65.4510294074  TIP3      10189           0.0000000000
     52819     10381  TIP3      H2             -5.1770261219      -22.0908399834      -64.2861512017  TIP3      10189           0.0000000000
     52820     10382  TIP3      OH2             0.5281058879      -30.1924479692      -76.7957099249  TIP3      10190           0.0000000000
     52821     10382  TIP3      H1             -0.0506542558      -30.5114773306      -77.5056462311  TIP3      10190           0.0000000000
     52822     10382  TIP3      H2              0.6117560980      -29.2590407178      -77.0860377973  TIP3      10190           0.0000000000
     52823     10383  TIP3      OH2             0.5103611506      -24.3418301346      -64.0254998523  TIP3      10191           0.0000000000
     52824     10383  TIP3      H1             -0.3820580657      -24.1211294591      -64.3902339359  TIP3      10191           0.0000000000
     52825     10383  TIP3      H2              1.0568296404      -24.3932918075      -64.8367886864  TIP3      10191           0.0000000000
     52826     10384  TIP3      OH2            -1.2078495404      -21.3687016436      -76.4715716595  TIP3      10192           0.0000000000
     52827     10384  TIP3      H1             -1.5512084749      -22.1985141488      -76.1137850840  TIP3      10192           0.0000000000
     52828     10384  TIP3      H2             -0.8844647052      -21.5894543850      -77.3653706925  TIP3      10192           0.0000000000
     52829     10385  TIP3      OH2            -3.9788893107      -26.5602328205      -69.3264855694  TIP3      10193           0.0000000000
     52830     10385  TIP3      H1             -4.9194011748      -26.7694956872      -69.4351128981  TIP3      10193           0.0000000000
     52831     10385  TIP3      H2             -3.5472991823      -27.3189579879      -69.7630509404  TIP3      10193           0.0000000000
     52832     10386  TIP3      OH2           -11.4596969739      -22.2279372658      -73.2246058108  TIP3      10194           0.0000000000
     52833     10386  TIP3      H1            -10.9603467991      -21.4220574006      -73.4308902241  TIP3      10194           0.0000000000
     52834     10386  TIP3      H2            -12.3381356846      -21.9963800210      -73.5558375358  TIP3      10194           0.0000000000
     52835     10387  TIP3      OH2           -15.7132623187      -27.3340256669      -78.7071515813  TIP3      10195           0.0000000000
     52836     10387  TIP3      H1            -15.1040340140      -26.7468059703      -78.2277009025  TIP3      10195           0.0000000000
     52837     10387  TIP3      H2            -16.5957046578      -27.1087041773      -78.3592912573  TIP3      10195           0.0000000000
     52838     10388  TIP3      OH2           -10.0449696003      -24.5659873125      -73.7084401595  TIP3      10196           0.0000000000
     52839     10388  TIP3      H1            -10.3596011493      -23.6456656909      -73.6240881213  TIP3      10196           0.0000000000
     52840     10388  TIP3      H2            -10.7631321350      -25.0569299946      -73.2614127800  TIP3      10196           0.0000000000
     52841     10389  TIP3      OH2            -9.5954494214      -20.3783899564      -67.2941912475  TIP3      10197           0.0000000000
     52842     10389  TIP3      H1             -9.1338928801      -19.5747059330      -67.5827839100  TIP3      10197           0.0000000000
     52843     10389  TIP3      H2             -8.9779698392      -20.7212394294      -66.6222289201  TIP3      10197           0.0000000000
     52844     10390  TIP3      OH2           -11.3643112132      -19.5658217930      -74.1935193574  TIP3      10198           0.0000000000
     52845     10390  TIP3      H1            -12.3278613833      -19.4329084641      -74.0389434128  TIP3      10198           0.0000000000
     52846     10390  TIP3      H2            -11.0061904137      -18.7354888052      -73.8275153441  TIP3      10198           0.0000000000
     52847     10391  TIP3      OH2            -6.0765651805      -24.3857825469      -67.6811848281  TIP3      10199           0.0000000000
     52848     10391  TIP3      H1             -6.3951045580      -24.5744840585      -66.7738666115  TIP3      10199           0.0000000000
     52849     10391  TIP3      H2             -5.4313792626      -25.0918908200      -67.8467117579  TIP3      10199           0.0000000000
     52850     10392  TIP3      OH2            -3.7656620973      -23.3301838551      -78.5389030368  TIP3      10200           0.0000000000
     52851     10392  TIP3      H1             -3.4659933188      -23.8118720132      -77.7455500287  TIP3      10200           0.0000000000
     52852     10392  TIP3      H2             -4.7215507652      -23.4984654789      -78.4863726077  TIP3      10200           0.0000000000
     52853     10393  TIP3      OH2            -3.2510352851      -19.7995875953      -65.1922961166  TIP3      10201           0.0000000000
     52854     10393  TIP3      H1             -3.9440920582      -20.2930307980      -65.6704424454  TIP3      10201           0.0000000000
     52855     10393  TIP3      H2             -3.0694039138      -19.0990107537      -65.8535910759  TIP3      10201           0.0000000000
     52856     10394  TIP3      OH2             0.7244666376      -18.9239921667      -78.2864998285  TIP3      10202           0.0000000000
     52857     10394  TIP3      H1              1.4167599357      -18.2971924340      -78.5690620384  TIP3      10202           0.0000000000
     52858     10394  TIP3      H2             -0.0052464737      -18.3089451329      -78.0628416499  TIP3      10202           0.0000000000
     52859     10395  TIP3      OH2           -15.1970232391      -32.5649264723      -65.7779805917  TIP3      10203           0.0000000000
     52860     10395  TIP3      H1            -16.1030054026      -32.2097518170      -65.8190811599  TIP3      10203           0.0000000000
     52861     10395  TIP3      H2            -15.3293299152      -33.4353429768      -65.3636365364  TIP3      10203           0.0000000000
     52862     10396  TIP3      OH2            -2.9531224279      -24.6906979057      -76.3326856501  TIP3      10204           0.0000000000
     52863     10396  TIP3      H1             -3.1921901782      -25.4891790231      -75.8178608832  TIP3      10204           0.0000000000
     52864     10396  TIP3      H2             -2.0048429957      -24.6202031065      -76.1354600026  TIP3      10204           0.0000000000
     52865     10397  TIP3      OH2           -15.5803668302      -20.7634348579      -67.3731762860  TIP3      10205           0.0000000000
     52866     10397  TIP3      H1            -15.2834440477      -21.6865504170      -67.3635832361  TIP3      10205           0.0000000000
     52867     10397  TIP3      H2            -15.3171631638      -20.4710704858      -66.4932751004  TIP3      10205           0.0000000000
     52868     10398  TIP3      OH2           -10.8131496296      -22.6761504478      -77.6773307374  TIP3      10206           0.0000000000
     52869     10398  TIP3      H1            -10.5851318029      -23.2284533062      -76.9119106510  TIP3      10206           0.0000000000
     52870     10398  TIP3      H2            -10.7460923727      -21.7631818221      -77.3183747325  TIP3      10206           0.0000000000
     52871     10399  TIP3      OH2           -14.3085114626      -25.4549982926      -77.1456159335  TIP3      10207           0.0000000000
     52872     10399  TIP3      H1            -14.9957590124      -25.0537947889      -76.5739895571  TIP3      10207           0.0000000000
     52873     10399  TIP3      H2            -13.7820443959      -24.6765292707      -77.3935850471  TIP3      10207           0.0000000000
     52874     10400  TIP3      OH2            -6.4503680178      -32.7823855367      -66.8454839859  TIP3      10208           0.0000000000
     52875     10400  TIP3      H1             -5.7302388185      -32.7205048834      -66.2071520260  TIP3      10208           0.0000000000
     52876     10400  TIP3      H2             -6.8196967583      -33.6694807288      -66.6646534169  TIP3      10208           0.0000000000
     52877     10401  TIP3      OH2            -5.6899863553      -33.2112719632      -75.7568635674  TIP3      10209           0.0000000000
     52878     10401  TIP3      H1             -5.4577930428      -32.7291525732      -76.5764196989  TIP3      10209           0.0000000000
     52879     10401  TIP3      H2             -5.1449086802      -32.7479551337      -75.1022953062  TIP3      10209           0.0000000000
     52880     10402  TIP3      OH2            -8.0431361433      -21.0298904376      -76.9447690737  TIP3      10210           0.0000000000
     52881     10402  TIP3      H1             -8.8618513631      -20.5143116968      -76.8586254250  TIP3      10210           0.0000000000
     52882     10402  TIP3      H2             -7.4889187927      -20.5260339204      -77.5619113789  TIP3      10210           0.0000000000
     52883     10403  TIP3      OH2            -8.4895423563      -31.4774867418      -74.9372493861  TIP3      10211           0.0000000000
     52884     10403  TIP3      H1             -7.7161496315      -30.8788433472      -74.9248317288  TIP3      10211           0.0000000000
     52885     10403  TIP3      H2             -8.7385772523      -31.5582184014      -73.9969531870  TIP3      10211           0.0000000000
     52886     10404  TIP3      OH2            -7.9276823530      -30.4245337565      -65.7401888626  TIP3      10212           0.0000000000
     52887     10404  TIP3      H1             -7.8546475134      -29.8722034241      -64.9372241649  TIP3      10212           0.0000000000
     52888     10404  TIP3      H2             -7.2671265565      -31.1214582465      -65.6425007375  TIP3      10212           0.0000000000
     52889     10405  TIP3      OH2            -7.6065867617      -34.3825421281      -73.9860039789  TIP3      10213           0.0000000000
     52890     10405  TIP3      H1             -7.9575136954      -33.7031307840      -73.3873250501  TIP3      10213           0.0000000000
     52891     10405  TIP3      H2             -6.9619763005      -33.8473456361      -74.5084215241  TIP3      10213           0.0000000000
     52892     10406  TIP3      OH2           -10.6715542932      -20.0046044789      -76.8984141182  TIP3      10214           0.0000000000
     52893     10406  TIP3      H1            -10.4990533583      -19.1835548816      -77.4025330982  TIP3      10214           0.0000000000
     52894     10406  TIP3      H2            -10.9087134618      -19.6566662939      -76.0146527929  TIP3      10214           0.0000000000
     52895     10407  TIP3      OH2           -11.9551289007      -33.3239018607      -77.3371665178  TIP3      10215           0.0000000000
     52896     10407  TIP3      H1            -12.0623118311      -32.4199928063      -76.9682079406  TIP3      10215           0.0000000000
     52897     10407  TIP3      H2            -11.0438792079      -33.4882388283      -77.0289429062  TIP3      10215           0.0000000000
     52898     10408  TIP3      OH2            -1.7547539265      -32.5584929122      -64.8778111002  TIP3      10216           0.0000000000
     52899     10408  TIP3      H1             -2.6799137377      -32.2352808188      -65.0198083871  TIP3      10216           0.0000000000
     52900     10408  TIP3      H2             -1.4557301466      -32.5858875073      -65.8074176255  TIP3      10216           0.0000000000
     52901     10409  TIP3      OH2            -3.1405090374      -28.7667372549      -70.8938217984  TIP3      10217           0.0000000000
     52902     10409  TIP3      H1             -3.9664918026      -29.2123677587      -71.1627649605  TIP3      10217           0.0000000000
     52903     10409  TIP3      H2             -2.6589260687      -29.4537922009      -70.3774265843  TIP3      10217           0.0000000000
     52904     10410  TIP3      OH2           -13.7416193608      -22.8301790948      -78.3164998649  TIP3      10218           0.0000000000
     52905     10410  TIP3      H1            -13.0883693444      -22.2143009377      -77.9694021678  TIP3      10218           0.0000000000
     52906     10410  TIP3      H2            -13.2042606821      -23.3004386249      -78.9773179321  TIP3      10218           0.0000000000
     52907     10411  TIP3      OH2           -15.3136086232      -30.0796671797      -78.9859912523  TIP3      10219           0.0000000000
     52908     10411  TIP3      H1            -15.3945175086      -29.1234506139      -78.9813643370  TIP3      10219           0.0000000000
     52909     10411  TIP3      H2            -16.1319546693      -30.3608690607      -79.4361383351  TIP3      10219           0.0000000000
     52910     10412  TIP3      OH2            -2.0776340446      -19.5071581756      -69.2158017973  TIP3      10220           0.0000000000
     52911     10412  TIP3      H1             -2.1658642618      -18.8272185432      -69.9121939439  TIP3      10220           0.0000000000
     52912     10412  TIP3      H2             -1.1135152579      -19.4565789349      -69.0426546961  TIP3      10220           0.0000000000
     52913     10413  TIP3      OH2           -14.8241486149      -35.2254795898      -70.3539723668  TIP3      10221           0.0000000000
     52914     10413  TIP3      H1            -14.7662431691      -35.3266516124      -71.3336725690  TIP3      10221           0.0000000000
     52915     10413  TIP3      H2            -14.9714313327      -36.1491486188      -70.1302459135  TIP3      10221           0.0000000000
     52916     10414  TIP3      OH2           -15.6251545864      -21.4684317603      -74.2711268366  TIP3      10222           0.0000000000
     52917     10414  TIP3      H1            -16.4833299878      -21.0234595842      -74.3072730332  TIP3      10222           0.0000000000
     52918     10414  TIP3      H2            -15.1568158060      -21.0014461898      -74.9742623035  TIP3      10222           0.0000000000
     52919     10415  TIP3      OH2           -16.4323485426      -18.8096541580      -62.9870361948  TIP3      10223           0.0000000000
     52920     10415  TIP3      H1            -15.8240259186      -19.0110680373      -62.2477572818  TIP3      10223           0.0000000000
     52921     10415  TIP3      H2            -16.8257465360      -19.6823913971      -63.1649004576  TIP3      10223           0.0000000000
     52922     10416  TIP3      OH2           -11.7369185983      -19.8788170782      -61.3942080219  TIP3      10224           0.0000000000
     52923     10416  TIP3      H1            -11.0123799754      -20.4040815861      -61.0236763506  TIP3      10224           0.0000000000
     52924     10416  TIP3      H2            -11.7637942588      -20.1812221129      -62.3213383065  TIP3      10224           0.0000000000
     52925     10417  TIP3      OH2            -7.1638536837      -20.2595180567      -79.3799417884  TIP3      10225           0.0000000000
     52926     10417  TIP3      H1             -8.0097459560      -20.7394981976      -79.3938848017  TIP3      10225           0.0000000000
     52927     10417  TIP3      H2             -6.6894840125      -20.7465815857      -80.0576823259  TIP3      10225           0.0000000000
     52928     10418  TIP3      OH2            -5.2413199899      -21.5128282815      -62.6232671020  TIP3      10226           0.0000000000
     52929     10418  TIP3      H1             -5.5565065834      -22.3999923684      -62.3485002748  TIP3      10226           0.0000000000
     52930     10418  TIP3      H2             -4.4729566786      -21.3939009610      -62.0304586790  TIP3      10226           0.0000000000
     52931     10419  TIP3      OH2            -3.0228236020      -20.5935120646      -79.7668179632  TIP3      10227           0.0000000000
     52932     10419  TIP3      H1             -2.7852677271      -21.4107119900      -79.2858426096  TIP3      10227           0.0000000000
     52933     10419  TIP3      H2             -2.2428019324      -20.4175507176      -80.3101417016  TIP3      10227           0.0000000000
     52934     10420  TIP3      OH2           -16.5157675304      -25.0461463172      -61.9828483880  TIP3      10228           0.0000000000
     52935     10420  TIP3      H1            -16.3492309690      -25.9558941732      -62.2874699336  TIP3      10228           0.0000000000
     52936     10420  TIP3      H2            -17.2539027544      -24.7842999676      -62.5589289990  TIP3      10228           0.0000000000
     52937     10421  TIP3      OH2           -12.0870431171      -24.6336024587      -79.7004959211  TIP3      10229           0.0000000000
     52938     10421  TIP3      H1            -12.1006596397      -25.4573073869      -79.1890425032  TIP3      10229           0.0000000000
     52939     10421  TIP3      H2            -11.6866934008      -24.9788046845      -80.4778225771  TIP3      10229           0.0000000000
     52940     10422  TIP3      OH2            -9.7987741760      -25.0543698969      -62.5987710465  TIP3      10230           0.0000000000
     52941     10422  TIP3      H1            -10.1324660894      -24.7418702991      -63.4626188501  TIP3      10230           0.0000000000
     52942     10422  TIP3      H2             -9.7234731544      -26.0326702701      -62.7080014307  TIP3      10230           0.0000000000
     52943     10423  TIP3      OH2            -4.1014917934      -25.1954630335      -65.2068003413  TIP3      10231           0.0000000000
     52944     10423  TIP3      H1             -3.3137088036      -24.6127358216      -65.2692774627  TIP3      10231           0.0000000000
     52945     10423  TIP3      H2             -4.8012318306      -24.5276134559      -65.1714259110  TIP3      10231           0.0000000000
     52946     10424  TIP3      OH2           -15.5894716868      -27.8157989530      -62.6031429601  TIP3      10232           0.0000000000
     52947     10424  TIP3      H1            -15.1764876787      -28.6804393855      -62.6947128273  TIP3      10232           0.0000000000
     52948     10424  TIP3      H2            -15.8291875600      -27.8111242263      -61.6624225074  TIP3      10232           0.0000000000
     52949     10425  TIP3      OH2           -10.9515407716      -26.6562617441      -77.5734518081  TIP3      10233           0.0000000000
     52950     10425  TIP3      H1            -11.4372859247      -27.1853507393      -76.9102908974  TIP3      10233           0.0000000000
     52951     10425  TIP3      H2            -10.6234861087      -27.3607430235      -78.1788579884  TIP3      10233           0.0000000000
     52952     10426  TIP3      OH2           -11.6954464846      -28.8812834767      -65.2539221690  TIP3      10234           0.0000000000
     52953     10426  TIP3      H1            -12.2890084515      -28.1567170883      -64.9944349537  TIP3      10234           0.0000000000
     52954     10426  TIP3      H2            -11.2968914828      -28.5073104188      -66.0587359624  TIP3      10234           0.0000000000
     52955     10427  TIP3      OH2            -9.8591627965      -28.4409991291      -79.3604210411  TIP3      10235           0.0000000000
     52956     10427  TIP3      H1             -9.9897577862      -28.6595069450      -80.2941446433  TIP3      10235           0.0000000000
     52957     10427  TIP3      H2             -8.8766536056      -28.4255300284      -79.2470974772  TIP3      10235           0.0000000000
     52958     10428  TIP3      OH2            -6.6209848667      -26.3039430638      -61.9129711038  TIP3      10236           0.0000000000
     52959     10428  TIP3      H1             -5.6646914399      -26.3170162623      -62.0379889583  TIP3      10236           0.0000000000
     52960     10428  TIP3      H2             -6.7911777034      -27.0742256399      -61.3476141872  TIP3      10236           0.0000000000
     52961     10429  TIP3      OH2            -0.7494476928      -25.9587430115       80.1807442071  TIP3      10237           0.0000000000
     52962     10429  TIP3      H1             -0.8005192866      -26.4811188463       79.3618567104  TIP3      10237           0.0000000000
     52963     10429  TIP3      H2             -0.4815327216      -25.0791921626       79.8912394647  TIP3      10237           0.0000000000
     52964     10430  TIP3      OH2           -11.2995415252      -31.5016886048      -64.1920078326  TIP3      10238           0.0000000000
     52965     10430  TIP3      H1            -11.1679369179      -32.2110366137      -64.8422755381  TIP3      10238           0.0000000000
     52966     10430  TIP3      H2            -11.3347386598      -30.6893815801      -64.7453929326  TIP3      10238           0.0000000000
     52967     10431  TIP3      OH2           -10.8887270139      -33.0926367673      -66.6690174601  TIP3      10239           0.0000000000
     52968     10431  TIP3      H1            -10.3731897597      -32.6189552452      -67.3625144277  TIP3      10239           0.0000000000
     52969     10431  TIP3      H2            -11.7823347019      -33.1973984222      -67.0750691623  TIP3      10239           0.0000000000
     52970     10432  TIP3      OH2            -9.3487596705      -27.6228373202      -66.3962119136  TIP3      10240           0.0000000000
     52971     10432  TIP3      H1             -8.5929587659      -27.7891469609      -66.9684766430  TIP3      10240           0.0000000000
     52972     10432  TIP3      H2             -9.7119625186      -26.7887213840      -66.7342162497  TIP3      10240           0.0000000000
     52973     10433  TIP3      OH2            -4.9546485937      -29.8747582483      -61.4414593243  TIP3      10241           0.0000000000
     52974     10433  TIP3      H1             -4.7134409791      -30.8089159696      -61.5295069261  TIP3      10241           0.0000000000
     52975     10433  TIP3      H2             -4.0893933316      -29.4305481164      -61.4014388355  TIP3      10241           0.0000000000
     52976     10434  TIP3      OH2            -3.6036391701      -27.0786183314      -63.2677047250  TIP3      10242           0.0000000000
     52977     10434  TIP3      H1             -3.8579044943      -26.3582101261      -63.8856511253  TIP3      10242           0.0000000000
     52978     10434  TIP3      H2             -2.6427659888      -27.1098893019      -63.4532248597  TIP3      10242           0.0000000000
     52979     10435  TIP3      OH2           -12.8270249592      -30.2441204700      -62.2720193099  TIP3      10243           0.0000000000
     52980     10435  TIP3      H1            -13.5969170859      -30.8209414966      -62.4439476459  TIP3      10243           0.0000000000
     52981     10435  TIP3      H2            -12.1743331324      -30.6006976395      -62.8998289696  TIP3      10243           0.0000000000
     52982     10436  TIP3      OH2           -10.2444631999      -35.4812408907      -65.9702602197  TIP3      10244           0.0000000000
     52983     10436  TIP3      H1            -10.2974842989      -34.5411044605      -66.2717607237  TIP3      10244           0.0000000000
     52984     10436  TIP3      H2            -10.8235508196      -35.8958920039      -66.6251519895  TIP3      10244           0.0000000000
     52985     10437  TIP3      OH2            -8.8483466368      -31.3167493267      -62.6365859425  TIP3      10245           0.0000000000
     52986     10437  TIP3      H1             -9.1275756073      -31.6228901995      -61.7540340829  TIP3      10245           0.0000000000
     52987     10437  TIP3      H2             -9.6235216810      -31.5635909602      -63.1675612198  TIP3      10245           0.0000000000
     52988     10438  TIP3      OH2            -6.1019395378      -32.1901219185      -63.5191467442  TIP3      10246           0.0000000000
     52989     10438  TIP3      H1             -7.0699682140      -32.1676583302      -63.4147263407  TIP3      10246           0.0000000000
     52990     10438  TIP3      H2             -5.8263752502      -32.8301488569      -62.8364706364  TIP3      10246           0.0000000000
     52991     10439  TIP3      OH2            -4.4898724585      -33.4774760040      -61.5829609600  TIP3      10247           0.0000000000
     52992     10439  TIP3      H1             -4.6030772146      -34.4600652014      -61.6417175555  TIP3      10247           0.0000000000
     52993     10439  TIP3      H2             -4.8208898343      -33.2853151593      -60.6945049325  TIP3      10247           0.0000000000
     52994     10440  TIP3      OH2           -14.7634764249      -32.3143898839      -62.5187803883  TIP3      10248           0.0000000000
     52995     10440  TIP3      H1            -14.4965735910      -33.0489488498      -63.1033746028  TIP3      10248           0.0000000000
     52996     10440  TIP3      H2            -14.8302684941      -32.7711937378      -61.6565062801  TIP3      10248           0.0000000000
     52997     10441  TIP3      OH2            -9.8970202374       36.7221688366      -63.5160155929  TIP3      10249           0.0000000000
     52998     10441  TIP3      H1             -9.2140946314       36.0501490805      -63.4696677679  TIP3      10249           0.0000000000
     52999     10441  TIP3      H2            -10.0048445595       36.9227135142      -64.4711197896  TIP3      10249           0.0000000000
     53000     10442  TIP3      OH2            -9.4866124181      -34.5938601428      -61.4751616149  TIP3      10250           0.0000000000
     53001     10442  TIP3      H1             -9.6715400802      -35.1701037948      -62.2487738006  TIP3      10250           0.0000000000
     53002     10442  TIP3      H2            -10.1291728564      -33.8741485602      -61.5418709372  TIP3      10250           0.0000000000
     53003     10443  TIP3      OH2           -10.0675690841      -17.7612428507      -78.2945091587  TIP3      10251           0.0000000000
     53004     10443  TIP3      H1             -9.0951822354      -17.6698394524      -78.2137769744  TIP3      10251           0.0000000000
     53005     10443  TIP3      H2            -10.2533200138      -17.1432518390      -78.9996491232  TIP3      10251           0.0000000000
     53006     10444  TIP3      OH2           -16.4892288229      -23.1604191749      -78.7966262777  TIP3      10252           0.0000000000
     53007     10444  TIP3      H1            -15.5305001038      -23.0481503457      -78.5873486746  TIP3      10252           0.0000000000
     53008     10444  TIP3      H2            -16.4325352174      -23.7465862429      -79.5591964043  TIP3      10252           0.0000000000
     53009     10445  TIP3      OH2           -17.7204630847      -17.7982393918      -73.8242869556  TIP3      10253           0.0000000000
     53010     10445  TIP3      H1            -18.4381697815      -18.2832414349      -74.2880416728  TIP3      10253           0.0000000000
     53011     10445  TIP3      H2            -17.4377310059      -18.4526317135      -73.1607726519  TIP3      10253           0.0000000000
     53012     10446  TIP3      OH2           -16.8699724340      -19.6578708797      -71.9544563407  TIP3      10254           0.0000000000
     53013     10446  TIP3      H1            -17.2439590933      -20.5325816963      -71.7653993776  TIP3      10254           0.0000000000
     53014     10446  TIP3      H2            -16.6842580130      -19.3348752625      -71.0583752926  TIP3      10254           0.0000000000
     53015     10447  TIP3      OH2             0.6428831770      -18.8655671710      -69.0202082073  TIP3      10255           0.0000000000
     53016     10447  TIP3      H1              0.6733414371      -18.7051748021      -68.0610512971  TIP3      10255           0.0000000000
     53017     10447  TIP3      H2              1.3465924670      -18.2826480055      -69.3231867064  TIP3      10255           0.0000000000
     53018     10448  TIP3      OH2             0.2148160681      -19.2699509517      -66.0728806772  TIP3      10256           0.0000000000
     53019     10448  TIP3      H1             -0.2548793107      -20.0405696883      -66.4560553209  TIP3      10256           0.0000000000
     53020     10448  TIP3      H2              0.7026850392      -19.7172053187      -65.3614540136  TIP3      10256           0.0000000000
     53021     10449  TIP3      OH2            -1.3387619557      -23.5509919227      -61.4004764372  TIP3      10257           0.0000000000
     53022     10449  TIP3      H1             -2.2454345608      -23.5762319174      -61.0373193319  TIP3      10257           0.0000000000
     53023     10449  TIP3      H2             -0.9673035898      -22.7443279450      -60.9908879970  TIP3      10257           0.0000000000
     53024     10450  TIP3      OH2            -0.0077416492      -25.2238783630      -75.9780690532  TIP3      10258           0.0000000000
     53025     10450  TIP3      H1              0.8416267834      -24.8140382891      -75.7589628091  TIP3      10258           0.0000000000
     53026     10450  TIP3      H2             -0.0437593670      -25.9298745833      -75.2954589260  TIP3      10258           0.0000000000
     53027     10451  TIP3      OH2             0.3332702052      -27.1398283754      -74.0902340059  TIP3      10259           0.0000000000
     53028     10451  TIP3      H1             -0.4174303837      -27.6492605917      -73.7083519597  TIP3      10259           0.0000000000
     53029     10451  TIP3      H2              0.9295133999      -27.0127679252      -73.3237987223  TIP3      10259           0.0000000000
     53030     10452  TIP3      OH2             0.0929087140      -24.4482862619      -69.0988560686  TIP3      10260           0.0000000000
     53031     10452  TIP3      H1              0.9061471340      -24.8259098182      -69.4786139456  TIP3      10260           0.0000000000
     53032     10452  TIP3      H2              0.2389387181      -23.4949009454      -69.2714040963  TIP3      10260           0.0000000000
     53033     10453  TIP3      OH2            -1.3477323886      -21.5421731356      -66.8318512439  TIP3      10261           0.0000000000
     53034     10453  TIP3      H1             -2.0381794374      -21.2011824424      -66.2429414938  TIP3      10261           0.0000000000
     53035     10453  TIP3      H2             -1.8963669022      -21.9456946548      -67.5389525556  TIP3      10261           0.0000000000
     53036     10454  TIP3      OH2             0.6446792704      -27.3038447568      -77.6859419795  TIP3      10262           0.0000000000
     53037     10454  TIP3      H1              0.0442139199      -26.9627578982      -78.3726635821  TIP3      10262           0.0000000000
     53038     10454  TIP3      H2              0.5571923193      -26.6015450169      -77.0155770248  TIP3      10262           0.0000000000
     53039     10455  TIP3      OH2            -1.4316528656      -30.0739182001      -79.0639142303  TIP3      10263           0.0000000000
     53040     10455  TIP3      H1             -0.9781666428      -29.4637176967      -79.6711947506  TIP3      10263           0.0000000000
     53041     10455  TIP3      H2             -1.1921115106      -30.8955483185      -79.5079463532  TIP3      10263           0.0000000000
     53042     10456  TIP3      OH2            -1.8404323097      -28.6690744480      -73.5105397828  TIP3      10264           0.0000000000
     53043     10456  TIP3      H1             -1.9946911934      -29.6241687949      -73.5599767674  TIP3      10264           0.0000000000
     53044     10456  TIP3      H2             -2.1702485615      -28.4582382666      -72.6176666469  TIP3      10264           0.0000000000
     53045     10457  TIP3      OH2           -16.8437914886      -26.5840870467      -69.4570808732  TIP3      10265           0.0000000000
     53046     10457  TIP3      H1            -16.6606934867      -26.6653106585      -70.4185608944  TIP3      10265           0.0000000000
     53047     10457  TIP3      H2            -15.9487948029      -26.7626065415      -69.1018626723  TIP3      10265           0.0000000000
     53048     10458  TIP3      OH2            -0.9800749703      -26.7026776685      -63.8229600910  TIP3      10266           0.0000000000
     53049     10458  TIP3      H1             -0.3689727355      -27.4599713193      -63.6926139593  TIP3      10266           0.0000000000
     53050     10458  TIP3      H2             -0.3773901074      -25.9292705330      -63.8223652518  TIP3      10266           0.0000000000
     53051     10459  TIP3      OH2             0.5099666892      -28.8121757484      -63.2083354703  TIP3      10267           0.0000000000
     53052     10459  TIP3      H1             -0.3691609175      -29.2233978807      -63.3344065783  TIP3      10267           0.0000000000
     53053     10459  TIP3      H2              1.0896706494      -29.5943384581      -63.2454830580  TIP3      10267           0.0000000000
     53054     10460  TIP3      OH2            -2.1893481074      -31.0683574465      -75.0526526210  TIP3      10268           0.0000000000
     53055     10460  TIP3      H1             -1.8836652566      -31.9961863764      -74.9511695987  TIP3      10268           0.0000000000
     53056     10460  TIP3      H2             -1.3959059360      -30.6741503937      -75.4315441824  TIP3      10268           0.0000000000
     53057     10461  TIP3      OH2            -1.5392180678      -30.5191059444      -69.6194457967  TIP3      10269           0.0000000000
     53058     10461  TIP3      H1             -0.5741624469      -30.3086446343      -69.6281781583  TIP3      10269           0.0000000000
     53059     10461  TIP3      H2             -1.7236110290      -30.4072640252      -68.6738256137  TIP3      10269           0.0000000000
     53060     10462  TIP3      OH2            -1.4833139004      -29.8023066375      -66.8431571726  TIP3      10270           0.0000000000
     53061     10462  TIP3      H1             -2.3608950697      -29.5240992347      -66.5123964048  TIP3      10270           0.0000000000
     53062     10462  TIP3      H2             -1.0398217003      -28.9469455263      -67.0551936040  TIP3      10270           0.0000000000
     53063     10463  TIP3      OH2           -17.2300226560      -31.2650074462      -63.2939342269  TIP3      10271           0.0000000000
     53064     10463  TIP3      H1            -16.2926345137      -31.4861249075      -63.1244778453  TIP3      10271           0.0000000000
     53065     10463  TIP3      H2            -17.6704817379      -32.1042478749      -63.0445244242  TIP3      10271           0.0000000000
     53066     10464  TIP3      OH2             0.8753360262      -35.7443038062      -61.4746583385  TIP3      10272           0.0000000000
     53067     10464  TIP3      H1              1.1040040602      -36.4142443367      -62.1347666395  TIP3      10272           0.0000000000
     53068     10464  TIP3      H2              0.8694922254      -34.9239190502      -61.9950365589  TIP3      10272           0.0000000000
     53069     10465  TIP3      OH2            -1.5033926776      -33.7719122937      -75.0137536994  TIP3      10273           0.0000000000
     53070     10465  TIP3      H1             -1.3043099954      -34.2450036712      -74.1793968406  TIP3      10273           0.0000000000
     53071     10465  TIP3      H2             -2.1031723423      -34.4155174716      -75.4678468893  TIP3      10273           0.0000000000
     53072     10466  TIP3      OH2           -16.0518060890      -32.9416657595      -70.4927602144  TIP3      10274           0.0000000000
     53073     10466  TIP3      H1            -15.6173943253      -33.7859901655      -70.2185231535  TIP3      10274           0.0000000000
     53074     10466  TIP3      H2            -15.4771413708      -32.2929253964      -70.0694732811  TIP3      10274           0.0000000000
     53075     10467  TIP3      OH2           -17.7384520592      -29.9926984982      -69.4152851115  TIP3      10275           0.0000000000
     53076     10467  TIP3      H1            -17.1719015785      -30.2382021480      -70.1732276130  TIP3      10275           0.0000000000
     53077     10467  TIP3      H2            -17.2733195645      -29.1876017617      -69.1428928781  TIP3      10275           0.0000000000
     53078     10468  TIP3      OH2             0.3258371378      -33.7085558245      -63.1548521355  TIP3      10276           0.0000000000
     53079     10468  TIP3      H1             -0.5977719826      -33.3942729873      -63.2103890867  TIP3      10276           0.0000000000
     53080     10468  TIP3      H2              0.3666194312      -34.2262814023      -63.9728929025  TIP3      10276           0.0000000000
     53081     10469  TIP3      OH2             0.3512154011      -33.7324337714      -78.4400941400  TIP3      10277           0.0000000000
     53082     10469  TIP3      H1              0.7033583274      -34.4619588804      -78.9712669002  TIP3      10277           0.0000000000
     53083     10469  TIP3      H2              1.0599991598      -33.0879298156      -78.4612435179  TIP3      10277           0.0000000000
     53084     10470  TIP3      OH2           -17.3952273647      -33.7616559232      -75.3322845074  TIP3      10278           0.0000000000
     53085     10470  TIP3      H1            -18.3270111606      -33.5453971638      -75.4989758052  TIP3      10278           0.0000000000
     53086     10470  TIP3      H2            -16.9526125197      -33.2705937031      -76.0494754925  TIP3      10278           0.0000000000
     53087     10471  TIP3      OH2            -2.6465135085      -18.7781198251      -73.3882181908  TIP3      10279           0.0000000000
     53088     10471  TIP3      H1             -1.9600740356      -19.0842971182      -74.0094523380  TIP3      10279           0.0000000000
     53089     10471  TIP3      H2             -2.1241578022      -18.2840917054      -72.7395649156  TIP3      10279           0.0000000000
     53090     10472  TIP3      OH2           -17.4164084673      -34.9963597229      -67.0280239537  TIP3      10280           0.0000000000
     53091     10472  TIP3      H1            -18.0941881225      -35.2413211504      -66.3797999733  TIP3      10280           0.0000000000
     53092     10472  TIP3      H2            -17.8990056897      -34.4027505553      -67.6304444333  TIP3      10280           0.0000000000
     53093     10473  TIP3      OH2           -15.1844164917      -21.8858882082      -62.8867937810  TIP3      10281           0.0000000000
     53094     10473  TIP3      H1            -16.0234484406      -21.6604905751      -63.3216462406  TIP3      10281           0.0000000000
     53095     10473  TIP3      H2            -15.4492519308      -21.9586281181      -61.9658177368  TIP3      10281           0.0000000000
     53096     10474  TIP3      OH2           -12.2848283934      -20.8718587428      -66.6052060898  TIP3      10282           0.0000000000
     53097     10474  TIP3      H1            -12.6132381406      -20.0046723710      -66.8792317319  TIP3      10282           0.0000000000
     53098     10474  TIP3      H2            -11.3581701451      -20.7893281883      -66.9109925977  TIP3      10282           0.0000000000
     53099     10475  TIP3      OH2            -7.9648663895      -19.4512038144      -63.7030105172  TIP3      10283           0.0000000000
     53100     10475  TIP3      H1             -7.8268224924      -19.8051255035      -62.7943373908  TIP3      10283           0.0000000000
     53101     10475  TIP3      H2             -7.0615230863      -19.1477985879      -63.9446741493  TIP3      10283           0.0000000000
     53102     10476  TIP3      OH2            -5.6775025035      -18.1832475646      -64.3917005377  TIP3      10284           0.0000000000
     53103     10476  TIP3      H1             -4.9453398881      -18.7678895540      -64.6294962489  TIP3      10284           0.0000000000
     53104     10476  TIP3      H2             -5.3017010497      -17.7445289738      -63.5977292515  TIP3      10284           0.0000000000
     53105     10477  TIP3      OH2            -0.6566989381      -35.5508830610      -65.3770949044  TIP3      10285           0.0000000000
     53106     10477  TIP3      H1             -1.4982736831      -35.2402712225      -65.7508708641  TIP3      10285           0.0000000000
     53107     10477  TIP3      H2             -0.5025018823      -36.4022406203      -65.8393907551  TIP3      10285           0.0000000000
     53108     10478  TIP3      OH2           -14.8616539875      -17.6385719720      -66.6139193697  TIP3      10286           0.0000000000
     53109     10478  TIP3      H1            -15.5912327018      -17.1372628956      -67.0085513343  TIP3      10286           0.0000000000
     53110     10478  TIP3      H2            -15.1704933849      -17.8282928034      -65.7164889477  TIP3      10286           0.0000000000
     53111     10479  TIP3      OH2           -12.3926592404      -18.0621422499      -67.5372937970  TIP3      10287           0.0000000000
     53112     10479  TIP3      H1            -13.2848958018      -17.9108392663      -67.1451259205  TIP3      10287           0.0000000000
     53113     10479  TIP3      H2            -12.4483366229      -17.4708656938      -68.3100303184  TIP3      10287           0.0000000000
     53114     10480  TIP3      OH2            -7.6835288374      -18.1464803542      -68.3726082534  TIP3      10288           0.0000000000
     53115     10480  TIP3      H1             -8.1482873556      -17.5899760348      -69.0162202010  TIP3      10288           0.0000000000
     53116     10480  TIP3      H2             -7.5541981324      -17.5156183936      -67.6326511343  TIP3      10288           0.0000000000
     53117     10481  TIP3      OH2            -5.3983371737      -19.3401186409      -67.3391462954  TIP3      10289           0.0000000000
     53118     10481  TIP3      H1             -6.2511980816      -19.0611038467      -67.7102266126  TIP3      10289           0.0000000000
     53119     10481  TIP3      H2             -4.9119621691      -18.5025294395      -67.4301675307  TIP3      10289           0.0000000000
     53120     10482  TIP3      OH2            -2.8149194014      -17.7687325644      -67.1201770540  TIP3      10290           0.0000000000
     53121     10482  TIP3      H1             -2.8674857584      -16.8092860425      -67.3476001087  TIP3      10290           0.0000000000
     53122     10482  TIP3      H2             -2.5978024429      -18.1429956663      -67.9974655382  TIP3      10290           0.0000000000
     53123     10483  TIP3      OH2           -15.3988428227      -18.9877376096      -69.6680477179  TIP3      10291           0.0000000000
     53124     10483  TIP3      H1            -15.4824588467      -19.4465211690      -68.8058678506  TIP3      10291           0.0000000000
     53125     10483  TIP3      H2            -14.5857028544      -19.3688881816      -70.0571759864  TIP3      10291           0.0000000000
     53126     10484  TIP3      OH2           -13.3236461329      -20.2772512907      -71.0162510603  TIP3      10292           0.0000000000
     53127     10484  TIP3      H1            -13.4890951420      -21.2106051561      -70.7823329918  TIP3      10292           0.0000000000
     53128     10484  TIP3      H2            -12.4688658414      -20.1222636892      -70.5623934837  TIP3      10292           0.0000000000
     53129     10485  TIP3      OH2           -10.7172167657      -19.7915860092      -70.1383225656  TIP3      10293           0.0000000000
     53130     10485  TIP3      H1            -10.5660050262      -20.7163259927      -70.4000719109  TIP3      10293           0.0000000000
     53131     10485  TIP3      H2            -10.6759394248      -19.8488822441      -69.1716314957  TIP3      10293           0.0000000000
     53132     10486  TIP3      OH2            -7.3857225525      -34.0769333893      -71.0159180956  TIP3      10294           0.0000000000
     53133     10486  TIP3      H1             -7.9716926968      -34.7975021883      -70.7356983332  TIP3      10294           0.0000000000
     53134     10486  TIP3      H2             -6.7052616504      -34.5710878795      -71.5123150244  TIP3      10294           0.0000000000
     53135     10487  TIP3      OH2            -2.1260873684      -36.0665656643      -70.9043140041  TIP3      10295           0.0000000000
     53136     10487  TIP3      H1             -1.5058935082      -35.5145163631      -71.4277504098  TIP3      10295           0.0000000000
     53137     10487  TIP3      H2             -2.9916488599      -35.7259987751      -71.1487258075  TIP3      10295           0.0000000000
     53138     10488  TIP3      OH2            -0.4337486900      -34.8133427959      -72.6543352421  TIP3      10296           0.0000000000
     53139     10488  TIP3      H1              0.1954553661      -35.4110063061      -73.0697230955  TIP3      10296           0.0000000000
     53140     10488  TIP3      H2              0.0687589354      -33.9771883144      -72.5773799754  TIP3      10296           0.0000000000
     53141     10489  TIP3      OH2           -14.9409808417      -35.4942160960      -73.0995669765  TIP3      10297           0.0000000000
     53142     10489  TIP3      H1            -15.6944994498      -35.7198942319      -73.6649653189  TIP3      10297           0.0000000000
     53143     10489  TIP3      H2            -14.4495777167      -36.3357180709      -73.0964010499  TIP3      10297           0.0000000000
     53144     10490  TIP3      OH2           -16.0939010530      -35.7643441679      -77.4045949271  TIP3      10298           0.0000000000
     53145     10490  TIP3      H1            -15.6499790323      -35.1180475631      -77.9807866573  TIP3      10298           0.0000000000
     53146     10490  TIP3      H2            -16.7322782316      -35.2236634438      -76.9183417319  TIP3      10298           0.0000000000
     53147     10491  TIP3      OH2           -10.3623130396      -35.6600001531      -73.3778547762  TIP3      10299           0.0000000000
     53148     10491  TIP3      H1             -9.5103647064      -35.1966666715      -73.4138422157  TIP3      10299           0.0000000000
     53149     10491  TIP3      H2            -10.4633552528      -35.8150810591      -72.4324515780  TIP3      10299           0.0000000000
     53150     10492  TIP3      OH2            -4.9755900046      -35.2010406077      -71.5842269407  TIP3      10300           0.0000000000
     53151     10492  TIP3      H1             -4.8381937115      -35.2445349717      -72.5336597543  TIP3      10300           0.0000000000
     53152     10492  TIP3      H2             -5.0650322767      -36.1775159077      -71.4493432419  TIP3      10300           0.0000000000
     53153     10493  TIP3      OH2            -3.4584275576      -35.4826685700      -75.9457904700  TIP3      10301           0.0000000000
     53154     10493  TIP3      H1             -4.1882095258      -34.9476908950      -76.2882351524  TIP3      10301           0.0000000000
     53155     10493  TIP3      H2             -3.8197745792      -36.3797605039      -75.9586136912  TIP3      10301           0.0000000000
     53156     10494  TIP3      OH2           -16.1996163973      -19.8081297031      -76.4289190124  TIP3      10302           0.0000000000
     53157     10494  TIP3      H1            -16.8842449683      -19.8120312516      -77.1287685694  TIP3      10302           0.0000000000
     53158     10494  TIP3      H2            -16.1911966020      -18.8596235892      -76.2500005995  TIP3      10302           0.0000000000
     53159     10495  TIP3      OH2           -14.2996537522      -34.0141309340      -78.8384535423  TIP3      10303           0.0000000000
     53160     10495  TIP3      H1            -13.7528998347      -34.4342456827      -79.4975814893  TIP3      10303           0.0000000000
     53161     10495  TIP3      H2            -13.6535068314      -33.5243438514      -78.2961256878  TIP3      10303           0.0000000000
     53162     10496  TIP3      OH2            -9.3555038289      -33.6035159038      -76.4624086000  TIP3      10304           0.0000000000
     53163     10496  TIP3      H1             -8.9720780217      -34.1373254660      -75.7429382749  TIP3      10304           0.0000000000
     53164     10496  TIP3      H2             -9.2024076728      -32.7191566537      -76.0511430618  TIP3      10304           0.0000000000
     53165     10497  TIP3      OH2            -7.3429626192      -18.1269062796      -78.0650894619  TIP3      10305           0.0000000000
     53166     10497  TIP3      H1             -6.3823876444      -18.2676972100      -78.2082506932  TIP3      10305           0.0000000000
     53167     10497  TIP3      H2             -7.5520915963      -18.8984305231      -78.6566500701  TIP3      10305           0.0000000000
     53168     10498  TIP3      OH2            -0.6494041626      -18.9936152971      -75.3562338425  TIP3      10306           0.0000000000
     53169     10498  TIP3      H1             -0.8428593691      -19.7761091310      -75.9300040291  TIP3      10306           0.0000000000
     53170     10498  TIP3      H2             -0.7321392886      -18.2593976602      -75.9994293636  TIP3      10306           0.0000000000
     53171     10499  TIP3      OH2           -15.1125539586      -35.0062685282      -63.8112350278  TIP3      10307           0.0000000000
     53172     10499  TIP3      H1            -15.4480805757      -35.7393224815      -63.2905035373  TIP3      10307           0.0000000000
     53173     10499  TIP3      H2            -14.2127992151      -34.9817084530      -63.4006936399  TIP3      10307           0.0000000000
     53174     10500  TIP3      OH2           -13.2720359629      -35.3735914829      -62.1621913210  TIP3      10308           0.0000000000
     53175     10500  TIP3      H1            -12.3319506693      -35.5741140959      -62.2939436346  TIP3      10308           0.0000000000
     53176     10500  TIP3      H2            -13.4405292729      -36.2303043976      -61.7216114392  TIP3      10308           0.0000000000
     53177     10501  TIP3      OH2           -14.3470995372      -18.8311108087      -79.4685478525  TIP3      10309           0.0000000000
     53178     10501  TIP3      H1            -14.6785351527      -18.5610689389      -78.6002679789  TIP3      10309           0.0000000000
     53179     10501  TIP3      H2            -13.6132992355      -19.4038454276      -79.2590625081  TIP3      10309           0.0000000000
     53180     10502  TIP3      OH2            -4.6953872124       37.0640977220      -61.9996434472  TIP3      10310           0.0000000000
     53181     10502  TIP3      H1             -4.6426185651       36.4969087658      -61.2034240870  TIP3      10310           0.0000000000
     53182     10502  TIP3      H2             -3.7984133358       36.8571270392      -62.3047878937  TIP3      10310           0.0000000000
     53183     10503  TIP3      OH2            -1.3984162102      -20.2547889154      -63.2766683842  TIP3      10311           0.0000000000
     53184     10503  TIP3      H1             -2.2026334332      -20.3909998383      -63.8233551514  TIP3      10311           0.0000000000
     53185     10503  TIP3      H2             -1.5146208417      -19.3077530450      -63.0596631954  TIP3      10311           0.0000000000
     53186     10504  TIP3      OH2            13.0437251135      -26.3766565957      -73.2943692392  TIP3      10312           0.0000000000
     53187     10504  TIP3      H1             13.0338250066      -25.3968061350      -73.3355564744  TIP3      10312           0.0000000000
     53188     10504  TIP3      H2             12.3176927402      -26.6105559499      -73.8958444817  TIP3      10312           0.0000000000
     53189     10505  TIP3      OH2            11.8979833403      -27.1202409393      -69.7977513529  TIP3      10313           0.0000000000
     53190     10505  TIP3      H1             11.8883341541      -27.7712483206      -69.0791989180  TIP3      10313           0.0000000000
     53191     10505  TIP3      H2             11.5452013769      -27.6251767690      -70.5474583693  TIP3      10313           0.0000000000
     53192     10506  TIP3      OH2             4.2535270110      -27.4457943517      -68.2448002315  TIP3      10314           0.0000000000
     53193     10506  TIP3      H1              4.3374473472      -28.1332148609      -67.5511624861  TIP3      10314           0.0000000000
     53194     10506  TIP3      H2              5.0024017550      -26.8749040664      -68.0184354088  TIP3      10314           0.0000000000
     53195     10507  TIP3      OH2            15.5867614606      -24.1727668053      -71.5119306615  TIP3      10315           0.0000000000
     53196     10507  TIP3      H1             15.1734309316      -24.8901280377      -71.0211776398  TIP3      10315           0.0000000000
     53197     10507  TIP3      H2             15.6120877884      -23.4656328722      -70.8406474710  TIP3      10315           0.0000000000
     53198     10508  TIP3      OH2             5.1796476885      -22.9950647381      -69.7488758408  TIP3      10316           0.0000000000
     53199     10508  TIP3      H1              4.8687936364      -23.8675892279      -70.0606319598  TIP3      10316           0.0000000000
     53200     10508  TIP3      H2              6.1346448937      -23.1807526858      -69.6967448043  TIP3      10316           0.0000000000
     53201     10509  TIP3      OH2             1.8207336685      -29.4435430774      -74.2499148463  TIP3      10317           0.0000000000
     53202     10509  TIP3      H1              1.3827026729      -28.5760249136      -74.3047562144  TIP3      10317           0.0000000000
     53203     10509  TIP3      H2              1.2547163090      -29.9811792488      -74.8207420474  TIP3      10317           0.0000000000
     53204     10510  TIP3      OH2             2.5330610828      -27.2009461131      -72.1032154182  TIP3      10318           0.0000000000
     53205     10510  TIP3      H1              2.8027906626      -28.0279934291      -71.6535122992  TIP3      10318           0.0000000000
     53206     10510  TIP3      H2              3.2254422029      -27.1066821099      -72.7738192042  TIP3      10318           0.0000000000
     53207     10511  TIP3      OH2            12.7061258784      -19.0146309708      -71.2729782248  TIP3      10319           0.0000000000
     53208     10511  TIP3      H1             13.3547757905      -19.7041541260      -71.5602528777  TIP3      10319           0.0000000000
     53209     10511  TIP3      H2             12.4900724904      -19.3521314255      -70.4036590649  TIP3      10319           0.0000000000
     53210     10512  TIP3      OH2            10.2766827483      -24.7257527702      -69.3214035957  TIP3      10320           0.0000000000
     53211     10512  TIP3      H1             10.6142356143      -25.3502022259      -69.9814531156  TIP3      10320           0.0000000000
     53212     10512  TIP3      H2             11.0874677659      -24.5655010259      -68.8075247611  TIP3      10320           0.0000000000
     53213     10513  TIP3      OH2            18.8612330707      -33.0664837463      -68.5997451652  TIP3      10321           0.0000000000
     53214     10513  TIP3      H1             19.0550239878      -32.4927013166      -67.8223862909  TIP3      10321           0.0000000000
     53215     10513  TIP3      H2             19.4266535494      -32.6428521976      -69.2604451338  TIP3      10321           0.0000000000
     53216     10514  TIP3      OH2            13.4461760506      -30.2548733458      -68.9988300651  TIP3      10322           0.0000000000
     53217     10514  TIP3      H1             13.6004597533      -31.2210221856      -68.9984990913  TIP3      10322           0.0000000000
     53218     10514  TIP3      H2             13.3393292668      -30.1085751064      -69.9595179449  TIP3      10322           0.0000000000
     53219     10515  TIP3      OH2             6.5662428591      -32.1487919404      -71.7887316007  TIP3      10323           0.0000000000
     53220     10515  TIP3      H1              6.6680440962      -31.3198609810      -72.2950230650  TIP3      10323           0.0000000000
     53221     10515  TIP3      H2              6.1545650434      -32.7223600815      -72.4680448477  TIP3      10323           0.0000000000
     53222     10516  TIP3      OH2            14.3301722195      -32.1513981615      -73.4601863111  TIP3      10324           0.0000000000
     53223     10516  TIP3      H1             14.9523163268      -32.3673894356      -72.7310190809  TIP3      10324           0.0000000000
     53224     10516  TIP3      H2             14.8471692347      -31.5087653627      -73.9692767374  TIP3      10324           0.0000000000
     53225     10517  TIP3      OH2             3.1808090988      -29.7501950384      -71.0610183627  TIP3      10325           0.0000000000
     53226     10517  TIP3      H1              3.8494295370      -30.2966401205      -70.6045972318  TIP3      10325           0.0000000000
     53227     10517  TIP3      H2              3.2861443472      -30.0702120988      -71.9706284624  TIP3      10325           0.0000000000
     53228     10518  TIP3      OH2             8.3383726454      -28.1976444306      -71.7403196258  TIP3      10326           0.0000000000
     53229     10518  TIP3      H1              9.0106712990      -28.7798024864      -71.3464946220  TIP3      10326           0.0000000000
     53230     10518  TIP3      H2              7.8241732083      -28.8524831003      -72.2534077973  TIP3      10326           0.0000000000
     53231     10519  TIP3      OH2            19.3260406313      -31.6555272196      -66.3220656067  TIP3      10327           0.0000000000
     53232     10519  TIP3      H1             18.6993397901      -30.9088048954      -66.4249592265  TIP3      10327           0.0000000000
     53233     10519  TIP3      H2             19.3470883445      -31.7649764300      -65.3660345462  TIP3      10327           0.0000000000
     53234     10520  TIP3      OH2             5.4802791126      -33.2105242400      -67.7675090638  TIP3      10328           0.0000000000
     53235     10520  TIP3      H1              5.1531006697      -32.6761659638      -68.5201760681  TIP3      10328           0.0000000000
     53236     10520  TIP3      H2              4.7741252135      -33.0364843434      -67.0951627510  TIP3      10328           0.0000000000
     53237     10521  TIP3      OH2            12.7474708542      -23.7889556894      -74.2105872008  TIP3      10329           0.0000000000
     53238     10521  TIP3      H1             12.4807558539      -24.0547560685      -75.1049496541  TIP3      10329           0.0000000000
     53239     10521  TIP3      H2             12.4480724885      -22.8558092330      -74.1597766005  TIP3      10329           0.0000000000
     53240     10522  TIP3      OH2             7.9786722514      -25.6229989275      -67.5161053017  TIP3      10330           0.0000000000
     53241     10522  TIP3      H1              7.2740717617      -24.9784356194      -67.2938451079  TIP3      10330           0.0000000000
     53242     10522  TIP3      H2              8.6856783785      -25.0244615473      -67.8062561189  TIP3      10330           0.0000000000
     53243     10523  TIP3      OH2            16.1438740058      -32.7845935966      -71.4735791931  TIP3      10331           0.0000000000
     53244     10523  TIP3      H1             15.8632432104      -33.4957250878      -70.8858784738  TIP3      10331           0.0000000000
     53245     10523  TIP3      H2             16.7738918847      -32.3077990377      -70.9069795965  TIP3      10331           0.0000000000
     53246     10524  TIP3      OH2             5.0250706736      -31.3599658242      -69.7422709343  TIP3      10332           0.0000000000
     53247     10524  TIP3      H1              5.6773084125      -30.7142304227      -69.3986464792  TIP3      10332           0.0000000000
     53248     10524  TIP3      H2              5.5451125441      -31.8069911290      -70.4574600495  TIP3      10332           0.0000000000
     53249     10525  TIP3      OH2             6.4280547710      -23.6161763297      -66.6961454923  TIP3      10333           0.0000000000
     53250     10525  TIP3      H1              6.3790766376      -22.7025317701      -67.0320171541  TIP3      10333           0.0000000000
     53251     10525  TIP3      H2              5.5459801176      -23.6980803664      -66.2520176380  TIP3      10333           0.0000000000
     53252     10526  TIP3      OH2             2.4866262888      -24.0087567967      -75.9110368376  TIP3      10334           0.0000000000
     53253     10526  TIP3      H1              2.2780859535      -23.6640530843      -76.7993323168  TIP3      10334           0.0000000000
     53254     10526  TIP3      H2              2.5715215385      -23.1814994038      -75.3905830417  TIP3      10334           0.0000000000
     53255     10527  TIP3      OH2            16.1158896603      -22.3353964890      -69.1430130770  TIP3      10335           0.0000000000
     53256     10527  TIP3      H1             15.1477392467      -22.2240051898      -69.0233270974  TIP3      10335           0.0000000000
     53257     10527  TIP3      H2             16.3851356737      -21.4199435828      -69.3464460719  TIP3      10335           0.0000000000
     53258     10528  TIP3      OH2            16.4749059839      -34.0558490655      -67.6955163200  TIP3      10336           0.0000000000
     53259     10528  TIP3      H1             15.7259087796      -33.4663277036      -67.8486962610  TIP3      10336           0.0000000000
     53260     10528  TIP3      H2             17.1614452097      -33.6480146828      -68.2623329575  TIP3      10336           0.0000000000
     53261     10529  TIP3      OH2             9.3782196464      -35.9254514771      -70.4639111711  TIP3      10337           0.0000000000
     53262     10529  TIP3      H1              9.3675646288      -36.8813877394      -70.2994026042  TIP3      10337           0.0000000000
     53263     10529  TIP3      H2              8.5925473481      -35.6574398329      -69.9613667797  TIP3      10337           0.0000000000
     53264     10530  TIP3      OH2            14.3760018686      -20.5526524312      -72.5563441672  TIP3      10338           0.0000000000
     53265     10530  TIP3      H1             14.8035709501      -21.2722842789      -73.0643498708  TIP3      10338           0.0000000000
     53266     10530  TIP3      H2             14.8164457432      -19.7642391022      -72.9385599748  TIP3      10338           0.0000000000
     53267     10531  TIP3      OH2            15.5890928852      -22.6266934002      -74.0435658773  TIP3      10339           0.0000000000
     53268     10531  TIP3      H1             15.2939826091      -23.3171815514      -74.6624177827  TIP3      10339           0.0000000000
     53269     10531  TIP3      H2             15.6190395908      -23.1205511854      -73.2031816797  TIP3      10339           0.0000000000
     53270     10532  TIP3      OH2            17.2017274366      -24.0279671237      -65.5436202340  TIP3      10340           0.0000000000
     53271     10532  TIP3      H1             17.3507653966      -24.6828872985      -66.2612963720  TIP3      10340           0.0000000000
     53272     10532  TIP3      H2             17.4109306957      -23.1869006547      -65.9887457763  TIP3      10340           0.0000000000
     53273     10533  TIP3      OH2            11.6945479883      -27.1452279721      -75.8056333210  TIP3      10341           0.0000000000
     53274     10533  TIP3      H1             11.0077451484      -26.5528254463      -76.1761915933  TIP3      10341           0.0000000000
     53275     10533  TIP3      H2             12.4043170324      -27.0533362556      -76.4667365100  TIP3      10341           0.0000000000
     53276     10534  TIP3      OH2            11.7082839478      -28.6448548293      -78.6644546256  TIP3      10342           0.0000000000
     53277     10534  TIP3      H1             12.4911685665      -28.5756649966      -78.1008833938  TIP3      10342           0.0000000000
     53278     10534  TIP3      H2             12.0563630981      -29.2371683605      -79.3305775254  TIP3      10342           0.0000000000
     53279     10535  TIP3      OH2            19.0933615788      -27.7158496411      -67.4995026404  TIP3      10343           0.0000000000
     53280     10535  TIP3      H1             18.4347068853      -26.9937842036      -67.4616373839  TIP3      10343           0.0000000000
     53281     10535  TIP3      H2             19.5880167562      -27.4839023238      -68.3076447082  TIP3      10343           0.0000000000
     53282     10536  TIP3      OH2            15.1411374478      -26.9375886331      -74.8402631336  TIP3      10344           0.0000000000
     53283     10536  TIP3      H1             14.4006086588      -26.6869505779      -74.2362925500  TIP3      10344           0.0000000000
     53284     10536  TIP3      H2             15.6229543281      -27.6065124538      -74.3206107146  TIP3      10344           0.0000000000
     53285     10537  TIP3      OH2            15.0764146003      -28.7683835966      -65.7287596826  TIP3      10345           0.0000000000
     53286     10537  TIP3      H1             15.0871108819      -27.9445443131      -65.2141330444  TIP3      10345           0.0000000000
     53287     10537  TIP3      H2             14.4515605950      -28.4756666047      -66.4251551597  TIP3      10345           0.0000000000
     53288     10538  TIP3      OH2             6.7613366356      -26.2666582637      -72.9420912864  TIP3      10346           0.0000000000
     53289     10538  TIP3      H1              6.4411698102      -26.6609664620      -73.7899736562  TIP3      10346           0.0000000000
     53290     10538  TIP3      H2              7.3751661477      -26.9607562430      -72.6077087043  TIP3      10346           0.0000000000
     53291     10539  TIP3      OH2             8.0806392736      -22.8888879841      -70.2619633802  TIP3      10347           0.0000000000
     53292     10539  TIP3      H1              8.0773984994      -23.4116245734      -71.0732079131  TIP3      10347           0.0000000000
     53293     10539  TIP3      H2              8.8639278275      -23.2440797688      -69.8029497059  TIP3      10347           0.0000000000
     53294     10540  TIP3      OH2             7.0902880576      -27.5237572693      -69.2782660842  TIP3      10348           0.0000000000
     53295     10540  TIP3      H1              7.6390230159      -27.4252854849      -70.0809087866  TIP3      10348           0.0000000000
     53296     10540  TIP3      H2              7.4812058695      -26.8557778803      -68.6715218657  TIP3      10348           0.0000000000
     53297     10541  TIP3      OH2            13.5127839259      -21.9523656733      -68.5717312414  TIP3      10349           0.0000000000
     53298     10541  TIP3      H1             13.2204499679      -21.3150514521      -67.9142261056  TIP3      10349           0.0000000000
     53299     10541  TIP3      H2             13.2533431592      -22.8046431087      -68.1503773303  TIP3      10349           0.0000000000
     53300     10542  TIP3      OH2             8.0448517934      -23.0932813829      -64.5842552810  TIP3      10350           0.0000000000
     53301     10542  TIP3      H1              7.6290776775      -22.3547287644      -64.0940281538  TIP3      10350           0.0000000000
     53302     10542  TIP3      H2              7.3719749387      -23.2936094494      -65.2810363271  TIP3      10350           0.0000000000
     53303     10543  TIP3      OH2            14.0339283802      -27.7488327358      -77.1766893908  TIP3      10351           0.0000000000
     53304     10543  TIP3      H1             14.5745145802      -27.5461626647      -76.3740981954  TIP3      10351           0.0000000000
     53305     10543  TIP3      H2             14.4453223104      -27.1923323264      -77.8676631584  TIP3      10351           0.0000000000
     53306     10544  TIP3      OH2             4.9967535346      -26.9022245682      -65.4671351927  TIP3      10352           0.0000000000
     53307     10544  TIP3      H1              5.0349166581      -26.2852392709      -64.7101912145  TIP3      10352           0.0000000000
     53308     10544  TIP3      H2              4.0420267576      -26.8558298600      -65.6352987599  TIP3      10352           0.0000000000
     53309     10545  TIP3      OH2            11.7316756251      -21.0115039744      -73.7099977714  TIP3      10353           0.0000000000
     53310     10545  TIP3      H1             12.1695076962      -20.6950860730      -72.9123537152  TIP3      10353           0.0000000000
     53311     10545  TIP3      H2             11.1843470269      -20.2610932144      -73.9720235377  TIP3      10353           0.0000000000
     53312     10546  TIP3      OH2             6.2913405457      -21.0589875123      -63.8368579055  TIP3      10354           0.0000000000
     53313     10546  TIP3      H1              6.2296332409      -21.1584456445      -64.8023194283  TIP3      10354           0.0000000000
     53314     10546  TIP3      H2              5.3613281866      -21.1936262935      -63.5694196064  TIP3      10354           0.0000000000
     53315     10547  TIP3      OH2            17.4843567897      -35.8843266336      -77.8618552630  TIP3      10355           0.0000000000
     53316     10547  TIP3      H1             16.6930750314      -35.8622293896      -77.2820754368  TIP3      10355           0.0000000000
     53317     10547  TIP3      H2             17.8883437474      -35.0053874093      -77.9124455294  TIP3      10355           0.0000000000
     53318     10548  TIP3      OH2             5.7215454572      -27.2463656528      -75.3112239319  TIP3      10356           0.0000000000
     53319     10548  TIP3      H1              5.4531007578      -26.4713708080      -75.8513635262  TIP3      10356           0.0000000000
     53320     10548  TIP3      H2              5.0678624909      -27.9044991135      -75.5577135602  TIP3      10356           0.0000000000
     53321     10549  TIP3      OH2            18.8262978154      -21.6547635931      -78.9087565418  TIP3      10357           0.0000000000
     53322     10549  TIP3      H1             18.9705014985      -20.6980850376      -78.8071149070  TIP3      10357           0.0000000000
     53323     10549  TIP3      H2             19.7527491511      -21.9458977248      -78.9908239442  TIP3      10357           0.0000000000
     53324     10550  TIP3      OH2             1.8223198609      -24.8129034006      -66.4247676711  TIP3      10358           0.0000000000
     53325     10550  TIP3      H1              1.3781851775      -24.8978940022      -67.2895111361  TIP3      10358           0.0000000000
     53326     10550  TIP3      H2              1.9035762606      -25.7623116890      -66.2108532783  TIP3      10358           0.0000000000
     53327     10551  TIP3      OH2             1.5808318712      -22.0838160037      -69.6514438730  TIP3      10359           0.0000000000
     53328     10551  TIP3      H1              2.5392097939      -22.1992838298      -69.6715668972  TIP3      10359           0.0000000000
     53329     10551  TIP3      H2              1.4988759276      -21.2654441794      -69.1471182081  TIP3      10359           0.0000000000
     53330     10552  TIP3      OH2            19.8217708397      -21.3790857916      -63.9593487112  TIP3      10360           0.0000000000
     53331     10552  TIP3      H1             19.7031141249      -22.3379333390      -63.9891929092  TIP3      10360           0.0000000000
     53332     10552  TIP3      H2             18.9476712788      -21.1307243383      -63.5758993564  TIP3      10360           0.0000000000
     53333     10553  TIP3      OH2            10.7775426078      -21.8406868849      -65.0997000486  TIP3      10361           0.0000000000
     53334     10553  TIP3      H1             10.8364198234      -20.9976179675      -64.5917268642  TIP3      10361           0.0000000000
     53335     10553  TIP3      H2              9.9045317239      -22.1991118480      -64.8487408170  TIP3      10361           0.0000000000
     53336     10554  TIP3      OH2            11.1991044426      -18.1013512068      -75.3230944486  TIP3      10362           0.0000000000
     53337     10554  TIP3      H1             11.1276704464      -18.1450129292      -76.2949908700  TIP3      10362           0.0000000000
     53338     10554  TIP3      H2             11.2508533887      -17.1401098150      -75.1422069494  TIP3      10362           0.0000000000
     53339     10555  TIP3      OH2             4.8586131092      -19.2177326744      -73.4891782670  TIP3      10363           0.0000000000
     53340     10555  TIP3      H1              5.0040009940      -19.6288902603      -72.6085800078  TIP3      10363           0.0000000000
     53341     10555  TIP3      H2              4.0082672977      -19.6245928858      -73.7213895453  TIP3      10363           0.0000000000
     53342     10556  TIP3      OH2            14.2183986832      -18.9002334576      -78.3364237403  TIP3      10364           0.0000000000
     53343     10556  TIP3      H1             14.7201442179      -19.6304454598      -78.7697833363  TIP3      10364           0.0000000000
     53344     10556  TIP3      H2             14.3199601516      -19.1360658907      -77.3956993374  TIP3      10364           0.0000000000
     53345     10557  TIP3      OH2            13.9607769253      -18.9480677653      -75.5382128097  TIP3      10365           0.0000000000
     53346     10557  TIP3      H1             13.0040764251      -18.8807706107      -75.3579194755  TIP3      10365           0.0000000000
     53347     10557  TIP3      H2             14.2090873496      -19.6882538258      -74.9636722797  TIP3      10365           0.0000000000
     53348     10558  TIP3      OH2            16.9667260652      -29.9277121026      -63.4909252698  TIP3      10366           0.0000000000
     53349     10558  TIP3      H1             16.4964127683      -29.4688005772      -64.2076806202  TIP3      10366           0.0000000000
     53350     10558  TIP3      H2             16.9550206593      -30.8458144170      -63.7995593831  TIP3      10366           0.0000000000
     53351     10559  TIP3      OH2             4.1065593097      -23.5001679907      -65.4864175905  TIP3      10367           0.0000000000
     53352     10559  TIP3      H1              4.3267797083      -23.8724293743      -64.6018461762  TIP3      10367           0.0000000000
     53353     10559  TIP3      H2              3.2387257574      -23.9004983377      -65.7012450575  TIP3      10367           0.0000000000
     53354     10560  TIP3      OH2             6.7628311735      -35.0651841222      -69.5067023434  TIP3      10368           0.0000000000
     53355     10560  TIP3      H1              5.8721176531      -35.1248408967      -69.9046797050  TIP3      10368           0.0000000000
     53356     10560  TIP3      H2              6.6548049250      -34.2087426458      -69.0625638630  TIP3      10368           0.0000000000
     53357     10561  TIP3      OH2            11.4083317575      -35.3343676132      -66.1226299251  TIP3      10369           0.0000000000
     53358     10561  TIP3      H1             11.8346434465      -35.7585937429      -65.3766791052  TIP3      10369           0.0000000000
     53359     10561  TIP3      H2             10.4553613436      -35.4476875276      -65.9650589411  TIP3      10369           0.0000000000
     53360     10562  TIP3      OH2            14.7181482841      -31.5597333937      -65.2691086539  TIP3      10370           0.0000000000
     53361     10562  TIP3      H1             14.1356642489      -31.7136390049      -64.4906081130  TIP3      10370           0.0000000000
     53362     10562  TIP3      H2             14.5551518605      -30.6315618379      -65.5193375372  TIP3      10370           0.0000000000
     53363     10563  TIP3      OH2            15.5632415364      -26.6081089428      -79.3134907493  TIP3      10371           0.0000000000
     53364     10563  TIP3      H1             15.5524803435      -26.8244499837      -80.2644601634  TIP3      10371           0.0000000000
     53365     10563  TIP3      H2             16.4567997236      -26.2188249189      -79.2423078697  TIP3      10371           0.0000000000
     53366     10564  TIP3      OH2            11.0628030544      -32.7869774902      -78.8293150142  TIP3      10372           0.0000000000
     53367     10564  TIP3      H1             10.7761944928      -32.8437779995      -77.9027568511  TIP3      10372           0.0000000000
     53368     10564  TIP3      H2             10.8430558970      -33.6697017700      -79.1311163523  TIP3      10372           0.0000000000
     53369     10565  TIP3      OH2             6.8914890623      -30.0510801730      -68.2734527074  TIP3      10373           0.0000000000
     53370     10565  TIP3      H1              6.1482745945      -30.0637996863      -67.6455744695  TIP3      10373           0.0000000000
     53371     10565  TIP3      H2              6.8415542616      -29.1458581424      -68.6565531508  TIP3      10373           0.0000000000
     53372     10566  TIP3      OH2             6.8480797336      -29.9426012196      -73.4207295521  TIP3      10374           0.0000000000
     53373     10566  TIP3      H1              5.9077696885      -30.1781772214      -73.5565046277  TIP3      10374           0.0000000000
     53374     10566  TIP3      H2              7.2244507088      -30.2280903372      -74.2777083947  TIP3      10374           0.0000000000
     53375     10567  TIP3      OH2            12.3830016568      -29.4354456842      -74.6936606996  TIP3      10375           0.0000000000
     53376     10567  TIP3      H1             11.9691983319      -28.6029618418      -75.0132863021  TIP3      10375           0.0000000000
     53377     10567  TIP3      H2             13.0716076482      -29.5825492199      -75.3653388404  TIP3      10375           0.0000000000
     53378     10568  TIP3      OH2            11.4247109111      -29.2202028840      -63.2146197447  TIP3      10376           0.0000000000
     53379     10568  TIP3      H1             10.8955404393      -29.9958285239      -62.9073022463  TIP3      10376           0.0000000000
     53380     10568  TIP3      H2             12.2678292062      -29.3607347480      -62.7542312488  TIP3      10376           0.0000000000
     53381     10569  TIP3      OH2            13.4127069593      -29.9451016700      -71.8037374453  TIP3      10377           0.0000000000
     53382     10569  TIP3      H1             13.1213270086      -29.3838370131      -72.5418642672  TIP3      10377           0.0000000000
     53383     10569  TIP3      H2             13.4936817946      -30.7924221955      -72.2717593218  TIP3      10377           0.0000000000
     53384     10570  TIP3      OH2             4.5085175111      -29.8042152956      -66.6145955935  TIP3      10378           0.0000000000
     53385     10570  TIP3      H1              4.5968452589      -29.3948073546      -65.7351859700  TIP3      10378           0.0000000000
     53386     10570  TIP3      H2              4.0599904141      -30.6312916140      -66.3796593117  TIP3      10378           0.0000000000
     53387     10571  TIP3      OH2             8.0977724889      -32.1393536211      -79.3801671539  TIP3      10379           0.0000000000
     53388     10571  TIP3      H1              7.5125374535      -32.7674514757      -78.9214178521  TIP3      10379           0.0000000000
     53389     10571  TIP3      H2              7.5445608431      -31.7732570695      -80.0837363623  TIP3      10379           0.0000000000
     53390     10572  TIP3      OH2             1.1799530160      -32.6587907654      -72.6293899286  TIP3      10380           0.0000000000
     53391     10572  TIP3      H1              1.8586771361      -32.7010957499      -71.9228491714  TIP3      10380           0.0000000000
     53392     10572  TIP3      H2              1.6216010408      -33.0552443347      -73.3986402990  TIP3      10380           0.0000000000
     53393     10573  TIP3      OH2             2.4600430550      -31.9283623657      -77.2068808600  TIP3      10381           0.0000000000
     53394     10573  TIP3      H1              2.9577547427      -31.3652046371      -77.8337354116  TIP3      10381           0.0000000000
     53395     10573  TIP3      H2              1.7489514571      -31.3159500723      -76.9391374302  TIP3      10381           0.0000000000
     53396     10574  TIP3      OH2            12.5975464949      -28.3584231003      -67.2520665657  TIP3      10382           0.0000000000
     53397     10574  TIP3      H1             12.9803943855      -29.0465282087      -67.8355009348  TIP3      10382           0.0000000000
     53398     10574  TIP3      H2             12.1327246972      -28.8890739589      -66.5797810452  TIP3      10382           0.0000000000
     53399     10575  TIP3      OH2             9.3965275504      -32.3915506620      -72.4329610553  TIP3      10383           0.0000000000
     53400     10575  TIP3      H1              8.4636557662      -32.3883006386      -72.1156185995  TIP3      10383           0.0000000000
     53401     10575  TIP3      H2              9.8958116945      -32.5421174035      -71.6122229784  TIP3      10383           0.0000000000
     53402     10576  TIP3      OH2             4.2148101164      -30.8334752604      -73.5470824847  TIP3      10384           0.0000000000
     53403     10576  TIP3      H1              3.3300275041      -30.6837452271      -73.9398650214  TIP3      10384           0.0000000000
     53404     10576  TIP3      H2              4.5119024438      -31.6613029306      -73.9620201018  TIP3      10384           0.0000000000
     53405     10577  TIP3      OH2             7.8499492646      -30.7625558048      -75.9058809980  TIP3      10385           0.0000000000
     53406     10577  TIP3      H1              8.8109955018      -30.6819655398      -75.7458761276  TIP3      10385           0.0000000000
     53407     10577  TIP3      H2              7.6246539870      -30.1134667811      -76.5993985074  TIP3      10385           0.0000000000
     53408     10578  TIP3      OH2            13.8140739773      -33.1719113038      -69.1832126533  TIP3      10386           0.0000000000
     53409     10578  TIP3      H1             13.1249869398      -33.0912833323      -68.4871111993  TIP3      10386           0.0000000000
     53410     10578  TIP3      H2             13.3035165034      -33.4364083324      -69.9590620657  TIP3      10386           0.0000000000
     53411     10579  TIP3      OH2             6.5623073914      -29.6084204479      -78.3298097716  TIP3      10387           0.0000000000
     53412     10579  TIP3      H1              5.9924206386      -29.9614423180      -79.0300427402  TIP3      10387           0.0000000000
     53413     10579  TIP3      H2              7.3783435890      -29.4081279209      -78.8135468019  TIP3      10387           0.0000000000
     53414     10580  TIP3      OH2            17.0083237983      -17.5069731467      -62.8491820642  TIP3      10388           0.0000000000
     53415     10580  TIP3      H1             17.2757243002      -17.1240555752      -63.7037249854  TIP3      10388           0.0000000000
     53416     10580  TIP3      H2             17.7330847563      -17.1879200526      -62.2906179533  TIP3      10388           0.0000000000
     53417     10581  TIP3      OH2             4.6843049080      -24.9918953790      -63.2930105718  TIP3      10389           0.0000000000
     53418     10581  TIP3      H1              5.4036822004      -24.8027251416      -62.6703333526  TIP3      10389           0.0000000000
     53419     10581  TIP3      H2              3.9136010174      -24.9609215127      -62.6813970727  TIP3      10389           0.0000000000
     53420     10582  TIP3      OH2            10.6925963132      -29.6321603024      -70.5257475406  TIP3      10390           0.0000000000
     53421     10582  TIP3      H1             11.2884419851      -30.1773867468      -71.0527735883  TIP3      10390           0.0000000000
     53422     10582  TIP3      H2             10.5360723230      -30.1756209609      -69.7410296832  TIP3      10390           0.0000000000
     53423     10583  TIP3      OH2             5.6773012043      -33.4571302534      -74.0591875140  TIP3      10391           0.0000000000
     53424     10583  TIP3      H1              5.3651977305      -34.3763966494      -74.0608588696  TIP3      10391           0.0000000000
     53425     10583  TIP3      H2              6.4577536078      -33.5331575637      -74.6228234798  TIP3      10391           0.0000000000
     53426     10584  TIP3      OH2             9.3361994757      -31.2517242300      -68.1211641189  TIP3      10392           0.0000000000
     53427     10584  TIP3      H1              8.4918068512      -30.7666486720      -68.0123148504  TIP3      10392           0.0000000000
     53428     10584  TIP3      H2              9.8796808496      -30.9370144894      -67.3766895072  TIP3      10392           0.0000000000
     53429     10585  TIP3      OH2             9.9208544764      -25.0989968588      -76.3814259521  TIP3      10393           0.0000000000
     53430     10585  TIP3      H1              9.1175431507      -25.5466207656      -76.7249566572  TIP3      10393           0.0000000000
     53431     10585  TIP3      H2              9.6938777408      -24.9624349077      -75.4418514628  TIP3      10393           0.0000000000
     53432     10586  TIP3      OH2            17.1019005196      -25.8745787511      -67.6073898475  TIP3      10394           0.0000000000
     53433     10586  TIP3      H1             17.6636765073      -25.3911516343      -68.2403115974  TIP3      10394           0.0000000000
     53434     10586  TIP3      H2             16.2411638095      -25.8301986734      -68.0708461441  TIP3      10394           0.0000000000
     53435     10587  TIP3      OH2            13.7812131423      -32.2358921265      -78.2386602216  TIP3      10395           0.0000000000
     53436     10587  TIP3      H1             12.8344700184      -32.1311469302      -78.4182649456  TIP3      10395           0.0000000000
     53437     10587  TIP3      H2             14.0726375783      -31.3923306660      -77.8653087558  TIP3      10395           0.0000000000
     53438     10588  TIP3      OH2            11.4070711936      -24.8067244680      -65.1639524761  TIP3      10396           0.0000000000
     53439     10588  TIP3      H1             11.0556879583      -25.2360531478      -64.3777514643  TIP3      10396           0.0000000000
     53440     10588  TIP3      H2             11.1491750954      -23.8854406623      -65.0591263763  TIP3      10396           0.0000000000
     53441     10589  TIP3      OH2            14.4746862352      -30.3314307028      -76.5614191181  TIP3      10397           0.0000000000
     53442     10589  TIP3      H1             15.3792790901      -30.4860125979      -76.2236446607  TIP3      10397           0.0000000000
     53443     10589  TIP3      H2             14.5659826640      -29.5239470081      -77.0932806100  TIP3      10397           0.0000000000
     53444     10590  TIP3      OH2             5.0269362678      -25.6790824438      -70.6102501957  TIP3      10398           0.0000000000
     53445     10590  TIP3      H1              5.7021212045      -25.7660635238      -71.3102869160  TIP3      10398           0.0000000000
     53446     10590  TIP3      H2              5.0836308054      -26.5386572437      -70.1549709515  TIP3      10398           0.0000000000
     53447     10591  TIP3      OH2            12.0105879846      -23.6197577551      -77.3510618026  TIP3      10399           0.0000000000
     53448     10591  TIP3      H1             11.6457324683      -22.7738275264      -77.0156630293  TIP3      10399           0.0000000000
     53449     10591  TIP3      H2             11.2738530410      -24.2452983018      -77.1684072273  TIP3      10399           0.0000000000
     53450     10592  TIP3      OH2             2.0183741633      -27.2804983302      -65.3503501706  TIP3      10400           0.0000000000
     53451     10592  TIP3      H1              2.1868510449      -27.7210565634      -64.4935549724  TIP3      10400           0.0000000000
     53452     10592  TIP3      H2              1.3968798357      -27.8974123514      -65.7759052039  TIP3      10400           0.0000000000
     53453     10593  TIP3      OH2             9.0252780295      -27.7198184328      -63.1745201799  TIP3      10401           0.0000000000
     53454     10593  TIP3      H1              8.7065740041      -28.0295876219      -64.0340724936  TIP3      10401           0.0000000000
     53455     10593  TIP3      H2              9.9475542826      -28.0455257245      -63.1742174935  TIP3      10401           0.0000000000
     53456     10594  TIP3      OH2            13.7121325792      -22.3851508053      -65.2163828656  TIP3      10402           0.0000000000
     53457     10594  TIP3      H1             12.7869820814      -22.2050674595      -65.4521673646  TIP3      10402           0.0000000000
     53458     10594  TIP3      H2             13.6788715726      -22.0924579727      -64.2856924554  TIP3      10402           0.0000000000
     53459     10595  TIP3      OH2            19.3619875998      -30.2234605886      -76.7905132554  TIP3      10403           0.0000000000
     53460     10595  TIP3      H1             18.7916026503      -30.5028093096      -77.5202179058  TIP3      10403           0.0000000000
     53461     10595  TIP3      H2             19.4702243533      -29.2857808525      -77.0728417076  TIP3      10403           0.0000000000
     53462     10596  TIP3      OH2            19.3664297393      -24.3417864840      -64.0253777472  TIP3      10404           0.0000000000
     53463     10596  TIP3      H1             18.4738909372      -24.1210216230      -64.3898806294  TIP3      10404           0.0000000000
     53464     10596  TIP3      H2             19.9128209457      -24.3934663509      -64.8365119485  TIP3      10404           0.0000000000
     53465     10597  TIP3      OH2            17.6485949757      -21.3702717307      -76.4707956735  TIP3      10405           0.0000000000
     53466     10597  TIP3      H1             17.3033667497      -22.1998219985      -76.1142899299  TIP3      10405           0.0000000000
     53467     10597  TIP3      H2             17.9719132273      -21.5898473725      -77.3649130734  TIP3      10405           0.0000000000
     53468     10598  TIP3      OH2            14.8772294072      -26.5592819366      -69.3274621294  TIP3      10406           0.0000000000
     53469     10598  TIP3      H1             13.9362362303      -26.7699722437      -69.4344194708  TIP3      10406           0.0000000000
     53470     10598  TIP3      H2             15.3089270250      -27.3185972756      -69.7627258002  TIP3      10406           0.0000000000
     53471     10599  TIP3      OH2             7.3924496994      -22.2307187975      -73.2217621745  TIP3      10407           0.0000000000
     53472     10599  TIP3      H1              7.8938417302      -21.4266316301      -73.4293686959  TIP3      10407           0.0000000000
     53473     10599  TIP3      H2              6.5158003509      -21.9973360622      -73.5562532419  TIP3      10407           0.0000000000
     53474     10600  TIP3      OH2             3.1392078744      -27.3571163133      -78.7098058641  TIP3      10408           0.0000000000
     53475     10600  TIP3      H1              3.7522129775      -26.7559806445      -78.2474279523  TIP3      10408           0.0000000000
     53476     10600  TIP3      H2              2.2648887062      -27.0992279982      -78.3604631465  TIP3      10408           0.0000000000
     53477     10601  TIP3      OH2             8.8144011549      -24.5660683509      -73.7010859559  TIP3      10409           0.0000000000
     53478     10601  TIP3      H1              8.4965810379      -23.6465716852      -73.6237557334  TIP3      10409           0.0000000000
     53479     10601  TIP3      H2              8.0924756900      -25.0572786675      -73.2609405121  TIP3      10409           0.0000000000
     53480     10602  TIP3      OH2             9.2606584809      -20.3783837978      -67.2944129827  TIP3      10410           0.0000000000
     53481     10602  TIP3      H1              9.7222408510      -19.5745479284      -67.5830257962  TIP3      10410           0.0000000000
     53482     10602  TIP3      H2              9.8781712298      -20.7210859963      -66.6225105605  TIP3      10410           0.0000000000
     53483     10603  TIP3      OH2             7.4918709112      -19.5674500216      -74.1929101632  TIP3      10411           0.0000000000
     53484     10603  TIP3      H1              6.5276627838      -19.4330204661      -74.0391380916  TIP3      10411           0.0000000000
     53485     10603  TIP3      H2              7.8500667377      -18.7367375287      -73.8289413126  TIP3      10411           0.0000000000
     53486     10604  TIP3      OH2            12.7797120808      -24.3855376328      -67.6820158255  TIP3      10412           0.0000000000
     53487     10604  TIP3      H1             12.4607596365      -24.5736408558      -66.7749035393  TIP3      10412           0.0000000000
     53488     10604  TIP3      H2             13.4246938023      -25.0919383947      -67.8469295821  TIP3      10412           0.0000000000
     53489     10605  TIP3      OH2            15.0908880651      -23.3306004673      -78.5389892164  TIP3      10413           0.0000000000
     53490     10605  TIP3      H1             15.3893894112      -23.8116566058      -77.7450930560  TIP3      10413           0.0000000000
     53491     10605  TIP3      H2             14.1344575710      -23.4975499241      -78.4865291201  TIP3      10413           0.0000000000
     53492     10606  TIP3      OH2            15.6050912750      -19.7996930126      -65.1923007796  TIP3      10414           0.0000000000
     53493     10606  TIP3      H1             14.9118597053      -20.2929225264      -65.6704275709  TIP3      10414           0.0000000000
     53494     10606  TIP3      H2             15.7865876751      -19.0990082136      -65.8535289650  TIP3      10414           0.0000000000
     53495     10607  TIP3      OH2            19.5803696815      -18.9238765097      -78.2867810457  TIP3      10415           0.0000000000
     53496     10607  TIP3      H1             20.2727259016      -18.2969143112      -78.5687638684  TIP3      10415           0.0000000000
     53497     10607  TIP3      H2             18.8506724012      -18.3089287881      -78.0623834513  TIP3      10415           0.0000000000
     53498     10608  TIP3      OH2             3.6586334922      -32.5692822082      -65.7824174334  TIP3      10416           0.0000000000
     53499     10608  TIP3      H1              2.7545273873      -32.2081466886      -65.8160603080  TIP3      10416           0.0000000000
     53500     10608  TIP3      H2              3.5264491563      -33.4278008874      -65.3490088789  TIP3      10416           0.0000000000
     53501     10609  TIP3      OH2            15.9067718457      -24.6909837009      -76.3326508952  TIP3      10417           0.0000000000
     53502     10609  TIP3      H1             15.6627573542      -25.4886402694      -75.8179744943  TIP3      10417           0.0000000000
     53503     10609  TIP3      H2             16.8529260817      -24.6204134427      -76.1349206565  TIP3      10417           0.0000000000
     53504     10610  TIP3      OH2             3.2756609485      -20.7629484254      -67.3729843764  TIP3      10418           0.0000000000
     53505     10610  TIP3      H1              3.5805386743      -21.6831406830      -67.3659104300  TIP3      10418           0.0000000000
     53506     10610  TIP3      H2              3.5387519396      -20.4708313052      -66.4930288655  TIP3      10418           0.0000000000
     53507     10611  TIP3      OH2             8.0221419694      -22.6716181392      -77.6670644059  TIP3      10419           0.0000000000
     53508     10611  TIP3      H1              8.2793771291      -23.2341586309      -76.9222021540  TIP3      10419           0.0000000000
     53509     10611  TIP3      H2              8.1166308591      -21.7585658182      -77.3225481846  TIP3      10419           0.0000000000
     53510     10612  TIP3      OH2             4.5369699308      -25.4591264681      -77.1319050986  TIP3      10420           0.0000000000
     53511     10612  TIP3      H1              3.8538291500      -25.0414161598      -76.5652998226  TIP3      10420           0.0000000000
     53512     10612  TIP3      H2              5.0744424726      -24.6946982570      -77.4067101711  TIP3      10420           0.0000000000
     53513     10613  TIP3      OH2            12.4063310189      -32.7834336527      -66.8466873111  TIP3      10421           0.0000000000
     53514     10613  TIP3      H1             13.1263040051      -32.7211629344      -66.2081781282  TIP3      10421           0.0000000000
     53515     10613  TIP3      H2             12.0360676474      -33.6698798892      -66.6644787878  TIP3      10421           0.0000000000
     53516     10614  TIP3      OH2            13.2182209617      -33.2369910199      -75.7594621077  TIP3      10422           0.0000000000
     53517     10614  TIP3      H1             13.3776680783      -32.7214388572      -76.5769248226  TIP3      10422           0.0000000000
     53518     10614  TIP3      H2             13.6842944971      -32.6966423906      -75.1001994225  TIP3      10422           0.0000000000
     53519     10615  TIP3      OH2            10.8130982685      -21.0275569918      -76.9515703003  TIP3      10423           0.0000000000
     53520     10615  TIP3      H1             10.0005828664      -20.5058164331      -76.8506815530  TIP3      10423           0.0000000000
     53521     10615  TIP3      H2             11.3680373725      -20.5043745570      -77.5551261368  TIP3      10423           0.0000000000
     53522     10616  TIP3      OH2            10.3714751224      -31.4828790313      -74.9355637198  TIP3      10424           0.0000000000
     53523     10616  TIP3      H1             11.1389810328      -30.8771427857      -74.9242550779  TIP3      10424           0.0000000000
     53524     10616  TIP3      H2             10.1169871975      -31.5581461082      -73.9960458376  TIP3      10424           0.0000000000
     53525     10617  TIP3      OH2            10.9395491703      -30.4179739401      -65.7422930766  TIP3      10425           0.0000000000
     53526     10617  TIP3      H1             11.0036509392      -29.8730206714      -64.9330061835  TIP3      10425           0.0000000000
     53527     10617  TIP3      H2             11.5896998642      -31.1227662063      -65.6409120389  TIP3      10425           0.0000000000
     53528     10618  TIP3      OH2            11.2502161213      -34.3825866542      -73.9867192276  TIP3      10426           0.0000000000
     53529     10618  TIP3      H1             10.8982557172      -33.7039072611      -73.3875337626  TIP3      10426           0.0000000000
     53530     10618  TIP3      H2             11.8960517184      -33.8481717774      -74.5064106851  TIP3      10426           0.0000000000
     53531     10619  TIP3      OH2             8.1855978920      -19.9960107246      -76.9019095128  TIP3      10427           0.0000000000
     53532     10619  TIP3      H1              8.3646251839      -19.1691602410      -77.4034776429  TIP3      10427           0.0000000000
     53533     10619  TIP3      H2              7.9475322447      -19.6558374483      -76.0152893676  TIP3      10427           0.0000000000
     53534     10620  TIP3      OH2             6.8969158077      -33.3230214486      -77.3363687044  TIP3      10428           0.0000000000
     53535     10620  TIP3      H1              6.7966253206      -32.4194516727      -76.9680409737  TIP3      10428           0.0000000000
     53536     10620  TIP3      H2              7.8096195833      -33.4894360169      -77.0321356649  TIP3      10428           0.0000000000
     53537     10621  TIP3      OH2            17.1024033095      -32.5583774492      -64.8802984177  TIP3      10429           0.0000000000
     53538     10621  TIP3      H1             16.1769994069      -32.2338376002      -65.0218411860  TIP3      10429           0.0000000000
     53539     10621  TIP3      H2             17.4013265242      -32.5899833215      -65.8100202930  TIP3      10429           0.0000000000
     53540     10622  TIP3      OH2            15.7156970916      -28.7671328334      -70.8940958316  TIP3      10430           0.0000000000
     53541     10622  TIP3      H1             14.8886204213      -29.2113927485      -71.1640518983  TIP3      10430           0.0000000000
     53542     10622  TIP3      H2             16.1972220508      -29.4531027845      -70.3760392636  TIP3      10430           0.0000000000
     53543     10623  TIP3      OH2             5.1194991494      -22.8350402341      -78.3124454996  TIP3      10431           0.0000000000
     53544     10623  TIP3      H1              5.7818586041      -22.2264272548      -77.9645745899  TIP3      10431           0.0000000000
     53545     10623  TIP3      H2              5.6546325982      -23.2988852321      -78.9877756068  TIP3      10431           0.0000000000
     53546     10624  TIP3      OH2             3.5093029688      -30.1519269821      -79.0842314504  TIP3      10432           0.0000000000
     53547     10624  TIP3      H1              3.4775064061      -29.1874731182      -78.9779642776  TIP3      10432           0.0000000000
     53548     10624  TIP3      H2              2.6403548329      -30.3613588830      -79.4422097857  TIP3      10432           0.0000000000
     53549     10625  TIP3      OH2            16.7785030910      -19.5075468173      -69.2157943563  TIP3      10433           0.0000000000
     53550     10625  TIP3      H1             16.6902139758      -18.8274609026      -69.9121108660  TIP3      10433           0.0000000000
     53551     10625  TIP3      H2             17.7426322164      -19.4566101898      -69.0427211579  TIP3      10433           0.0000000000
     53552     10626  TIP3      OH2             4.0322926537      -35.2258166939      -70.3547677113  TIP3      10434           0.0000000000
     53553     10626  TIP3      H1              4.0898597907      -35.3266370661      -71.3342098888  TIP3      10434           0.0000000000
     53554     10626  TIP3      H2              3.8842684846      -36.1491246934      -70.1301512307  TIP3      10434           0.0000000000
     53555     10627  TIP3      OH2             3.2295568346      -21.4666869828      -74.2689763713  TIP3      10435           0.0000000000
     53556     10627  TIP3      H1              2.3715458233      -21.0230825145      -74.3073944944  TIP3      10435           0.0000000000
     53557     10627  TIP3      H2              3.6987282420      -21.0021430539      -74.9741526112  TIP3      10435           0.0000000000
     53558     10628  TIP3      OH2             2.4266887111      -18.8169625855      -62.9820016991  TIP3      10436           0.0000000000
     53559     10628  TIP3      H1              3.0344901658      -19.0156638801      -62.2423893046  TIP3      10436           0.0000000000
     53560     10628  TIP3      H2              2.0337584023      -19.6890729161      -63.1629027918  TIP3      10436           0.0000000000
     53561     10629  TIP3      OH2             7.1198088738      -19.8977523783      -61.3719401087  TIP3      10437           0.0000000000
     53562     10629  TIP3      H1              7.8735896036      -20.3991733038      -61.0392696529  TIP3      10437           0.0000000000
     53563     10629  TIP3      H2              7.0871735865      -20.1761292797      -62.3071858871  TIP3      10437           0.0000000000
     53564     10630  TIP3      OH2            11.7048485665      -20.2872445877      -79.3787404968  TIP3      10438           0.0000000000
     53565     10630  TIP3      H1             10.8462574116      -20.7518210269      -79.4029310104  TIP3      10438           0.0000000000
     53566     10630  TIP3      H2             12.1584791238      -20.7733501662      -80.0699230931  TIP3      10438           0.0000000000
     53567     10631  TIP3      OH2            13.6147547678      -21.5056376463      -62.6256698443  TIP3      10439           0.0000000000
     53568     10631  TIP3      H1             13.3037669333      -22.3969994384      -62.3637803704  TIP3      10439           0.0000000000
     53569     10631  TIP3      H2             14.3858770378      -21.3948895473      -62.0341062151  TIP3      10439           0.0000000000
     53570     10632  TIP3      OH2            15.8361719386      -20.5962855293      -79.7691691680  TIP3      10440           0.0000000000
     53571     10632  TIP3      H1             16.0718893031      -21.4116620400      -79.2849355693  TIP3      10440           0.0000000000
     53572     10632  TIP3      H2             16.6162533481      -20.4190189476      -80.3108074014  TIP3      10440           0.0000000000
     53573     10633  TIP3      OH2             2.3460717694      -25.0439730767      -61.9860705226  TIP3      10441           0.0000000000
     53574     10633  TIP3      H1              2.5099099591      -25.9597060228      -62.2780356394  TIP3      10441           0.0000000000
     53575     10633  TIP3      H2              1.6001597914      -24.8037064316      -62.5544783497  TIP3      10441           0.0000000000
     53576     10634  TIP3      OH2             6.7958435538      -24.6291147405      -79.8399893506  TIP3      10442           0.0000000000
     53577     10634  TIP3      H1              6.8545403826      -25.4608589450      -79.3615220561  TIP3      10442           0.0000000000
     53578     10634  TIP3      H2              7.3511199428      -24.8602874979      -80.6135718170  TIP3      10442           0.0000000000
     53579     10635  TIP3      OH2             9.0514999461      -25.0524702918      -62.6037013025  TIP3      10443           0.0000000000
     53580     10635  TIP3      H1              8.7208209201      -24.7411799518      -63.4683029994  TIP3      10443           0.0000000000
     53581     10635  TIP3      H2              9.1319598665      -26.0298246325      -62.7071588142  TIP3      10443           0.0000000000
     53582     10636  TIP3      OH2            14.7543302734      -25.1971753969      -65.2060604387  TIP3      10444           0.0000000000
     53583     10636  TIP3      H1             15.5421181488      -24.6138113258      -65.2686818850  TIP3      10444           0.0000000000
     53584     10636  TIP3      H2             14.0550460981      -24.5281281506      -65.1714058495  TIP3      10444           0.0000000000
     53585     10637  TIP3      OH2             3.2460076370      -27.8166349460      -62.6154262033  TIP3      10445           0.0000000000
     53586     10637  TIP3      H1              3.6651623057      -28.6856498234      -62.6634171157  TIP3      10445           0.0000000000
     53587     10637  TIP3      H2              3.0355253050      -27.8258113403      -61.6581335904  TIP3      10445           0.0000000000
     53588     10638  TIP3      OH2             7.9141715914      -26.6576057281      -77.5481366455  TIP3      10446           0.0000000000
     53589     10638  TIP3      H1              7.4084443670      -27.1978588840      -76.9176729907  TIP3      10446           0.0000000000
     53590     10638  TIP3      H2              8.2269815366      -27.3360472483      -78.1900531123  TIP3      10446           0.0000000000
     53591     10639  TIP3      OH2             7.1686470337      -28.8786021164      -65.2630596279  TIP3      10447           0.0000000000
     53592     10639  TIP3      H1              6.5704786714      -28.1593731471      -64.9972262769  TIP3      10447           0.0000000000
     53593     10639  TIP3      H2              7.5621456364      -28.5028827434      -66.0664620810  TIP3      10447           0.0000000000
     53594     10640  TIP3      OH2             8.9940679651      -28.4923623994      -79.3440946543  TIP3      10448           0.0000000000
     53595     10640  TIP3      H1              8.8708428219      -28.5942463525      -80.2981198458  TIP3      10448           0.0000000000
     53596     10640  TIP3      H2              9.9744863204      -28.4047264351      -79.2523566857  TIP3      10448           0.0000000000
     53597     10641  TIP3      OH2            12.2460473644      -26.2692381882      -61.8323010824  TIP3      10449           0.0000000000
     53598     10641  TIP3      H1             13.1811149870      -26.3282342389      -62.0827172302  TIP3      10449           0.0000000000
     53599     10641  TIP3      H2             12.0590410715      -27.1035623175      -61.3783539913  TIP3      10449           0.0000000000
     53600     10642  TIP3      OH2            18.1078560962      -25.9588207494       80.1800655003  TIP3      10450           0.0000000000
     53601     10642  TIP3      H1             18.0570950811      -26.4808885180       79.3609218570  TIP3      10450           0.0000000000
     53602     10642  TIP3      H2             18.3741604590      -25.0787064723       79.8907878000  TIP3      10450           0.0000000000
     53603     10643  TIP3      OH2             7.5611869010      -31.5036254995      -64.1876000356  TIP3      10451           0.0000000000
     53604     10643  TIP3      H1              7.6876374295      -32.2090073811      -64.8432191018  TIP3      10451           0.0000000000
     53605     10643  TIP3      H2              7.5044152822      -30.6866905394      -64.7322859155  TIP3      10451           0.0000000000
     53606     10644  TIP3      OH2             7.9675062720      -33.0934650180      -66.6690629060  TIP3      10452           0.0000000000
     53607     10644  TIP3      H1              8.4827639060      -32.6187145390      -67.3622504971  TIP3      10452           0.0000000000
     53608     10644  TIP3      H2              7.0740271747      -33.1975232514      -67.0755446715  TIP3      10452           0.0000000000
     53609     10645  TIP3      OH2             9.5146857591      -27.6179071706      -66.4020092113  TIP3      10453           0.0000000000
     53610     10645  TIP3      H1             10.2675183749      -27.7873355143      -66.9747845486  TIP3      10453           0.0000000000
     53611     10645  TIP3      H2              9.1451794989      -26.7861483159      -66.7378447877  TIP3      10453           0.0000000000
     53612     10646  TIP3      OH2            13.9056844868      -29.8517460784      -61.4215165864  TIP3      10454           0.0000000000
     53613     10646  TIP3      H1             14.1317370699      -30.7883606389      -61.5332064085  TIP3      10454           0.0000000000
     53614     10646  TIP3      H2             14.7852497640      -29.4406933995      -61.4340825131  TIP3      10454           0.0000000000
     53615     10647  TIP3      OH2            15.2432490807      -27.0665042347      -63.2390238270  TIP3      10455           0.0000000000
     53616     10647  TIP3      H1             14.9918624977      -26.3597229823      -63.8743530753  TIP3      10455           0.0000000000
     53617     10647  TIP3      H2             16.1982580206      -27.1117237187      -63.4477795797  TIP3      10455           0.0000000000
     53618     10648  TIP3      OH2             6.0395606822      -30.2404717102      -62.2813197684  TIP3      10456           0.0000000000
     53619     10648  TIP3      H1              5.2490004418      -30.8012704248      -62.4149336775  TIP3      10456           0.0000000000
     53620     10648  TIP3      H2              6.6821948264      -30.6242750850      -62.8996580589  TIP3      10456           0.0000000000
     53621     10649  TIP3      OH2             8.6149529822      -35.4857710766      -65.9789326219  TIP3      10457           0.0000000000
     53622     10649  TIP3      H1              8.5583812965      -34.5430439311      -66.2731327428  TIP3      10457           0.0000000000
     53623     10649  TIP3      H2              8.0300459581      -35.8969380419      -66.6295065636  TIP3      10457           0.0000000000
     53624     10650  TIP3      OH2            10.0044243799      -31.3149664805      -62.6366538681  TIP3      10458           0.0000000000
     53625     10650  TIP3      H1              9.7299641515      -31.6261333544      -61.7546202109  TIP3      10458           0.0000000000
     53626     10650  TIP3      H2              9.2326695736      -31.5652198365      -63.1680192986  TIP3      10458           0.0000000000
     53627     10651  TIP3      OH2            12.7533207620      -32.1875217896      -63.5201423260  TIP3      10459           0.0000000000
     53628     10651  TIP3      H1             11.7854648386      -32.1686912881      -63.4142780279  TIP3      10459           0.0000000000
     53629     10651  TIP3      H2             13.0325900405      -32.8334246614      -62.8404148839  TIP3      10459           0.0000000000
     53630     10652  TIP3      OH2            14.3464921953      -33.4722420282      -61.6037987693  TIP3      10460           0.0000000000
     53631     10652  TIP3      H1             14.2532474039      -34.4578551564      -61.6259237915  TIP3      10460           0.0000000000
     53632     10652  TIP3      H2             14.0578389153      -33.2684964823      -60.6965369177  TIP3      10460           0.0000000000
     53633     10653  TIP3      OH2             4.0873141589      -32.3302397823      -62.5421709520  TIP3      10461           0.0000000000
     53634     10653  TIP3      H1              4.3610907330      -33.0721719743      -63.1103881882  TIP3      10461           0.0000000000
     53635     10653  TIP3      H2              4.0286595578      -32.7514592360      -61.6599385899  TIP3      10461           0.0000000000
     53636     10654  TIP3      OH2             8.9582735687       36.7219056197      -63.5145653043  TIP3      10462           0.0000000000
     53637     10654  TIP3      H1              9.6419694943       36.0503798288      -63.4696427359  TIP3      10462           0.0000000000
     53638     10654  TIP3      H2              8.8555694551       36.9294392659      -64.4670103687  TIP3      10462           0.0000000000
     53639     10655  TIP3      OH2             9.3710573833      -34.5970296192      -61.4760974369  TIP3      10463           0.0000000000
     53640     10655  TIP3      H1              9.1838926058      -35.1702998960      -62.2494309009  TIP3      10463           0.0000000000
     53641     10655  TIP3      H2              8.7287108956      -33.8745609651      -61.5396853255  TIP3      10463           0.0000000000
     53642     10656  TIP3      OH2             8.7856263302      -17.7738091475      -78.3062528268  TIP3      10464           0.0000000000
     53643     10656  TIP3      H1              9.7580567102      -17.6555431975      -78.1969916957  TIP3      10464           0.0000000000
     53644     10656  TIP3      H2              8.6192521332      -17.1084235838      -78.9734360096  TIP3      10464           0.0000000000
     53645     10657  TIP3      OH2             2.3688181084      -23.1613414947      -78.7961133852  TIP3      10465           0.0000000000
     53646     10657  TIP3      H1              3.3259554346      -23.0488576669      -78.5866687366  TIP3      10465           0.0000000000
     53647     10657  TIP3      H2              2.4242017896      -23.7459533270      -79.5601683414  TIP3      10465           0.0000000000
     53648     10658  TIP3      OH2             1.1354376489      -17.7977220133      -73.8246045586  TIP3      10466           0.0000000000
     53649     10658  TIP3      H1              0.4181169117      -18.2835586145      -74.2881452395  TIP3      10466           0.0000000000
     53650     10658  TIP3      H2              1.4168236547      -18.4522120648      -73.1603522128  TIP3      10466           0.0000000000
     53651     10659  TIP3      OH2             1.9602571290      -19.6611490144      -71.9484583848  TIP3      10467           0.0000000000
     53652     10659  TIP3      H1              1.6071990554      -20.5402873786      -71.7494113471  TIP3      10467           0.0000000000
     53653     10659  TIP3      H2              2.1855236457      -19.3316551319      -71.0638574226  TIP3      10467           0.0000000000
     53654     10660  TIP3      OH2            19.4988565732      -18.8656299789      -69.0199778913  TIP3      10468           0.0000000000
     53655     10660  TIP3      H1             19.5293084222      -18.7050612822      -68.0609685503  TIP3      10468           0.0000000000
     53656     10660  TIP3      H2             20.2024045511      -18.2827479361      -69.3234602924  TIP3      10468           0.0000000000
     53657     10661  TIP3      OH2            19.0710609958      -19.2699742000      -66.0730204558  TIP3      10469           0.0000000000
     53658     10661  TIP3      H1             18.6007811989      -20.0402966018      -66.4557860832  TIP3      10469           0.0000000000
     53659     10661  TIP3      H2             19.5586524311      -19.7173087454      -65.3615318788  TIP3      10469           0.0000000000
     53660     10662  TIP3      OH2            17.5271807776      -23.5450993241      -61.4059847723  TIP3      10470           0.0000000000
     53661     10662  TIP3      H1             16.6201445672      -23.5683391934      -61.0546298435  TIP3      10470           0.0000000000
     53662     10662  TIP3      H2             17.8912002015      -22.7414830815      -60.9904522480  TIP3      10470           0.0000000000
     53663     10663  TIP3      OH2            18.8482646390      -25.2240280074      -75.9780309029  TIP3      10471           0.0000000000
     53664     10663  TIP3      H1             19.6975638715      -24.8141353731      -75.7588731926  TIP3      10471           0.0000000000
     53665     10663  TIP3      H2             18.8122281146      -25.9299083549      -75.2954262108  TIP3      10471           0.0000000000
     53666     10664  TIP3      OH2            19.1894232319      -27.1404394775      -74.0903832011  TIP3      10472           0.0000000000
     53667     10664  TIP3      H1             18.4384515185      -27.6490515451      -73.7081615892  TIP3      10472           0.0000000000
     53668     10664  TIP3      H2             19.7854390025      -27.0124791673      -73.3238389149  TIP3      10472           0.0000000000
     53669     10665  TIP3      OH2            18.9488667952      -24.4487068405      -69.0985668716  TIP3      10473           0.0000000000
     53670     10665  TIP3      H1             19.7621561942      -24.8258686818      -69.4786501013  TIP3      10473           0.0000000000
     53671     10665  TIP3      H2             19.0948272128      -23.4950466193      -69.2703268953  TIP3      10473           0.0000000000
     53672     10666  TIP3      OH2            17.5084585053      -21.5418634777      -66.8318722098  TIP3      10474           0.0000000000
     53673     10666  TIP3      H1             16.8178377459      -21.2011919002      -66.2430667850  TIP3      10474           0.0000000000
     53674     10666  TIP3      H2             16.9606854326      -21.9450559658      -67.5401458315  TIP3      10474           0.0000000000
     53675     10667  TIP3      OH2            19.5007645253      -27.3045824814      -77.6856289042  TIP3      10475           0.0000000000
     53676     10667  TIP3      H1             18.9003385538      -26.9626465737      -78.3720803334  TIP3      10475           0.0000000000
     53677     10667  TIP3      H2             19.4135294240      -26.6020032328      -77.0155870679  TIP3      10475           0.0000000000
     53678     10668  TIP3      OH2            17.4297300392      -30.0645492861      -79.0675217069  TIP3      10476           0.0000000000
     53679     10668  TIP3      H1             17.8803505892      -29.4569148443      -79.6773335012  TIP3      10476           0.0000000000
     53680     10668  TIP3      H2             17.6604386401      -30.8904055228      -79.5081598697  TIP3      10476           0.0000000000
     53681     10669  TIP3      OH2            17.0150354345      -28.6702983865      -73.5110320486  TIP3      10477           0.0000000000
     53682     10669  TIP3      H1             16.8610152618      -29.6248901686      -73.5583663979  TIP3      10477           0.0000000000
     53683     10669  TIP3      H2             16.6860948602      -28.4533337648      -72.6173350531  TIP3      10477           0.0000000000
     53684     10670  TIP3      OH2             2.0184768431      -26.5832698855      -69.4538536982  TIP3      10478           0.0000000000
     53685     10670  TIP3      H1              2.1949398137      -26.6644382479      -70.4167996284  TIP3      10478           0.0000000000
     53686     10670  TIP3      H2              2.9121696390      -26.7621401130      -69.1017284697  TIP3      10478           0.0000000000
     53687     10671  TIP3      OH2            17.8702431976      -26.7067803409      -63.8163857257  TIP3      10479           0.0000000000
     53688     10671  TIP3      H1             18.4839015433      -27.4623876253      -63.6922650257  TIP3      10479           0.0000000000
     53689     10671  TIP3      H2             18.4728358699      -25.9335770218      -63.8232403308  TIP3      10479           0.0000000000
     53690     10672  TIP3      OH2            19.3748540309      -28.8237342247      -63.1748920755  TIP3      10480           0.0000000000
     53691     10672  TIP3      H1             18.4918342359      -29.2216420421      -63.3294046909  TIP3      10480           0.0000000000
     53692     10672  TIP3      H2             19.9484578557      -29.6074655432      -63.2537304203  TIP3      10480           0.0000000000
     53693     10673  TIP3      OH2            16.6662929677      -31.0817202257      -75.0636557390  TIP3      10481           0.0000000000
     53694     10673  TIP3      H1             16.9889275237      -31.9879573983      -74.9425588241  TIP3      10481           0.0000000000
     53695     10673  TIP3      H2             17.4511389814      -30.6534545261      -75.4285741257  TIP3      10481           0.0000000000
     53696     10674  TIP3      OH2            17.3164544775      -30.5201036521      -69.6194755274  TIP3      10482           0.0000000000
     53697     10674  TIP3      H1             18.2813804532      -30.3071282185      -69.6257265024  TIP3      10482           0.0000000000
     53698     10674  TIP3      H2             17.1323910587      -30.4070228796      -68.6737350367  TIP3      10482           0.0000000000
     53699     10675  TIP3      OH2            17.3723988681      -29.8021935129      -66.8431542837  TIP3      10483           0.0000000000
     53700     10675  TIP3      H1             16.4948289682      -29.5236264598      -66.5125748250  TIP3      10483           0.0000000000
     53701     10675  TIP3      H2             17.8161299248      -28.9470292300      -67.0553008576  TIP3      10483           0.0000000000
     53702     10676  TIP3      OH2             1.6240435992      -31.2669248551      -63.3057563951  TIP3      10484           0.0000000000
     53703     10676  TIP3      H1              2.5613428035      -31.4639339494      -63.0915351661  TIP3      10484           0.0000000000
     53704     10676  TIP3      H2              1.1886086893      -32.1028637357      -63.0418223011  TIP3      10484           0.0000000000
     53705     10677  TIP3      OH2            19.7180571810      -35.7439538075      -61.4705310572  TIP3      10485           0.0000000000
     53706     10677  TIP3      H1             19.9538069093      -36.4149785736      -62.1259643075  TIP3      10485           0.0000000000
     53707     10677  TIP3      H2             19.7235617996      -34.9249037061      -61.9919210998  TIP3      10485           0.0000000000
     53708     10678  TIP3      OH2            17.4296148093      -33.8822160597      -75.0765679122  TIP3      10486           0.0000000000
     53709     10678  TIP3      H1             17.5051602643      -34.1773090975      -74.1352088352  TIP3      10486           0.0000000000
     53710     10678  TIP3      H2             16.6280897142      -34.3426441184      -75.4239587854  TIP3      10486           0.0000000000
     53711     10679  TIP3      OH2             2.8042752077      -32.9414039813      -70.4934191911  TIP3      10487           0.0000000000
     53712     10679  TIP3      H1              3.2382474888      -33.7857238586      -70.2188264152  TIP3      10487           0.0000000000
     53713     10679  TIP3      H2              3.3787669472      -32.2932806544      -70.0689246850  TIP3      10487           0.0000000000
     53714     10680  TIP3      OH2             1.1183771089      -29.9926555095      -69.4161976570  TIP3      10488           0.0000000000
     53715     10680  TIP3      H1              1.6823824686      -30.2451731091      -70.1757888520  TIP3      10488           0.0000000000
     53716     10680  TIP3      H2              1.5863632703      -29.1886718943      -69.1474816573  TIP3      10488           0.0000000000
     53717     10681  TIP3      OH2            19.1842135876      -33.7025530291      -63.1551073660  TIP3      10489           0.0000000000
     53718     10681  TIP3      H1             18.2572435675      -33.3957778123      -63.2044728935  TIP3      10489           0.0000000000
     53719     10681  TIP3      H2             19.2219139065      -34.2246402031      -63.9709427039  TIP3      10489           0.0000000000
     53720     10682  TIP3      OH2            19.2494096162      -33.8217619284      -78.3143920510  TIP3      10490           0.0000000000
     53721     10682  TIP3      H1             19.5504874401      -34.4523665919      -78.9818971676  TIP3      10490           0.0000000000
     53722     10682  TIP3      H2             19.8727745178      -33.0918908659      -78.4691133071  TIP3      10490           0.0000000000
     53723     10683  TIP3      OH2             1.4687413224      -33.7663837862      -75.3286021404  TIP3      10491           0.0000000000
     53724     10683  TIP3      H1              0.5354657679      -33.5497268580      -75.4967799442  TIP3      10491           0.0000000000
     53725     10683  TIP3      H2              1.9008647167      -33.2729679084      -76.0495040903  TIP3      10491           0.0000000000
     53726     10684  TIP3      OH2            16.2178386020      -18.7868624476      -73.3846702158  TIP3      10492           0.0000000000
     53727     10684  TIP3      H1             16.9015663393      -19.0844213840      -74.0113484506  TIP3      10492           0.0000000000
     53728     10684  TIP3      H2             16.7349486770      -18.2840950840      -72.7390928535  TIP3      10492           0.0000000000
     53729     10685  TIP3      OH2             1.4379929415      -34.9981310693      -67.0283924466  TIP3      10493           0.0000000000
     53730     10685  TIP3      H1              0.7617247807      -35.2408336752      -66.3792620439  TIP3      10493           0.0000000000
     53731     10685  TIP3      H2              0.9570641418      -34.4028957865      -67.6295756970  TIP3      10493           0.0000000000
     53732     10686  TIP3      OH2             3.6734491277      -21.8771913810      -62.8873087571  TIP3      10494           0.0000000000
     53733     10686  TIP3      H1              2.8337430341      -21.6610831488      -63.3250911856  TIP3      10494           0.0000000000
     53734     10686  TIP3      H2              3.4033309882      -21.9573942559      -61.9679900252  TIP3      10494           0.0000000000
     53735     10687  TIP3      OH2             6.5715246563      -20.8717120716      -66.6051545084  TIP3      10495           0.0000000000
     53736     10687  TIP3      H1              6.2430092586      -20.0045179844      -66.8796581886  TIP3      10495           0.0000000000
     53737     10687  TIP3      H2              7.4979978331      -20.7890790421      -66.9112120651  TIP3      10495           0.0000000000
     53738     10688  TIP3      OH2            10.8918887164      -19.4478506787      -63.7041263914  TIP3      10496           0.0000000000
     53739     10688  TIP3      H1             11.0298410209      -19.8031852781      -62.7953635057  TIP3      10496           0.0000000000
     53740     10688  TIP3      H2             11.7950060176      -19.1471625086      -63.9453452568  TIP3      10496           0.0000000000
     53741     10689  TIP3      OH2            13.1786585284      -18.1832007693      -64.3915234509  TIP3      10497           0.0000000000
     53742     10689  TIP3      H1             13.9106292408      -18.7679568918      -64.6297197480  TIP3      10497           0.0000000000
     53743     10689  TIP3      H2             13.5543801547      -17.7443981611      -63.5977553092  TIP3      10497           0.0000000000
     53744     10690  TIP3      OH2            18.2002285321      -35.5498734372      -65.3783515844  TIP3      10498           0.0000000000
     53745     10690  TIP3      H1             17.3574435825      -35.2407166274      -65.7504113244  TIP3      10498           0.0000000000
     53746     10690  TIP3      H2             18.3533966206      -36.4023972567      -65.8391388641  TIP3      10498           0.0000000000
     53747     10691  TIP3      OH2             3.9948185334      -17.6388349481      -66.6139238391  TIP3      10499           0.0000000000
     53748     10691  TIP3      H1              3.2644006716      -17.1371389425      -67.0086547499  TIP3      10499           0.0000000000
     53749     10691  TIP3      H2              3.6853559494      -17.8284493867      -65.7166322924  TIP3      10499           0.0000000000
     53750     10692  TIP3      OH2             6.4634937298      -18.0617160822      -67.5382993672  TIP3      10500           0.0000000000
     53751     10692  TIP3      H1              5.5713553036      -17.9105524210      -67.1455800854  TIP3      10500           0.0000000000
     53752     10692  TIP3      H2              6.4091034348      -17.4708392855      -68.3119725453  TIP3      10500           0.0000000000
     53753     10693  TIP3      OH2            11.1705632156      -18.1494465872      -68.3675148498  TIP3      10501           0.0000000000
     53754     10693  TIP3      H1             10.7090751145      -17.5919666702      -69.0146416801  TIP3      10501           0.0000000000
     53755     10693  TIP3      H2             11.3020517713      -17.5153575292      -67.6313056254  TIP3      10501           0.0000000000
     53756     10694  TIP3      OH2            13.4573863761      -19.3402341080      -67.3370842462  TIP3      10502           0.0000000000
     53757     10694  TIP3      H1             12.6049997775      -19.0616560625      -67.7097061873  TIP3      10502           0.0000000000
     53758     10694  TIP3      H2             13.9445172608      -18.5034471830      -67.4309892891  TIP3      10502           0.0000000000
     53759     10695  TIP3      OH2            16.0407645927      -17.7701886564      -67.1201964640  TIP3      10503           0.0000000000
     53760     10695  TIP3      H1             15.9886643793      -16.8090901837      -67.3475666634  TIP3      10503           0.0000000000
     53761     10695  TIP3      H2             16.2583539183      -18.1430531955      -67.9971987711  TIP3      10503           0.0000000000
     53762     10696  TIP3      OH2             3.4568231698      -18.9887011993      -69.6693260255  TIP3      10504           0.0000000000
     53763     10696  TIP3      H1              3.3738587006      -19.4474856506      -68.8067800290  TIP3      10504           0.0000000000
     53764     10696  TIP3      H2              4.2709513332      -19.3687682966      -70.0570980210  TIP3      10504           0.0000000000
     53765     10697  TIP3      OH2             5.5321795655      -20.2773360440      -71.0164561309  TIP3      10505           0.0000000000
     53766     10697  TIP3      H1              5.3670433602      -21.2108282958      -70.7822729392  TIP3      10505           0.0000000000
     53767     10697  TIP3      H2              6.3869584654      -20.1222217567      -70.5625049701  TIP3      10505           0.0000000000
     53768     10698  TIP3      OH2             8.1386552411      -19.7903663614      -70.1373234320  TIP3      10506           0.0000000000
     53769     10698  TIP3      H1              8.2900511170      -20.7151062343      -70.4001009315  TIP3      10506           0.0000000000
     53770     10698  TIP3      H2              8.1800194568      -19.8487538066      -69.1707264080  TIP3      10506           0.0000000000
     53771     10699  TIP3      OH2            11.4644771641      -34.0751380122      -71.0147754184  TIP3      10507           0.0000000000
     53772     10699  TIP3      H1             10.8814495291      -34.7970872289      -70.7338751760  TIP3      10507           0.0000000000
     53773     10699  TIP3      H2             12.1426714756      -34.5733171695      -71.5066386608  TIP3      10507           0.0000000000
     53774     10700  TIP3      OH2            16.7322787338      -36.0868440534      -70.9454504416  TIP3      10508           0.0000000000
     53775     10700  TIP3      H1             17.3455166021      -35.4910556738      -71.4114107389  TIP3      10508           0.0000000000
     53776     10700  TIP3      H2             15.8591133214      -35.7202240211      -71.1237868875  TIP3      10508           0.0000000000
     53777     10701  TIP3      OH2            18.4148877259      -34.8118956682      -72.7409300286  TIP3      10509           0.0000000000
     53778     10701  TIP3      H1             19.1154710564      -35.4185519148      -72.9959414959  TIP3      10509           0.0000000000
     53779     10701  TIP3      H2             18.9135801515      -33.9857589782      -72.5388173656  TIP3      10509           0.0000000000
     53780     10702  TIP3      OH2             3.9194100768      -35.4920408730      -73.1069382359  TIP3      10510           0.0000000000
     53781     10702  TIP3      H1              3.1616688158      -35.7196307953      -73.6654388887  TIP3      10510           0.0000000000
     53782     10702  TIP3      H2              4.4066867365      -36.3358507100      -73.0978213304  TIP3      10510           0.0000000000
     53783     10703  TIP3      OH2             2.7630762674      -35.7630429150      -77.4028612988  TIP3      10511           0.0000000000
     53784     10703  TIP3      H1              3.2030453765      -35.1189330571      -77.9811483227  TIP3      10511           0.0000000000
     53785     10703  TIP3      H2              2.1249925420      -35.2239227229      -76.9117497591  TIP3      10511           0.0000000000
     53786     10704  TIP3      OH2             8.4929404348      -35.6596332955      -73.3775225092  TIP3      10512           0.0000000000
     53787     10704  TIP3      H1              9.3453734083      -35.1974253596      -73.4138652790  TIP3      10512           0.0000000000
     53788     10704  TIP3      H2              8.3928353609      -35.8149242206      -72.4322057560  TIP3      10512           0.0000000000
     53789     10705  TIP3      OH2            13.8780300973      -35.2067561250      -71.5745632528  TIP3      10513           0.0000000000
     53790     10705  TIP3      H1             13.9985526391      -35.2454051213      -72.5270704283  TIP3      10513           0.0000000000
     53791     10705  TIP3      H2             13.7917943341      -36.1833659748      -71.4461709789  TIP3      10513           0.0000000000
     53792     10706  TIP3      OH2            15.4599482385      -35.5052108764      -75.9781708194  TIP3      10514           0.0000000000
     53793     10706  TIP3      H1             14.7081120103      -34.9451645507      -76.2633407863  TIP3      10514           0.0000000000
     53794     10706  TIP3      H2             15.0182739027      -36.3696808669      -75.9289127416  TIP3      10514           0.0000000000
     53795     10707  TIP3      OH2             2.6558004125      -19.8071435805      -76.4287090657  TIP3      10515           0.0000000000
     53796     10707  TIP3      H1              1.9714675853      -19.8117788610      -77.1286987315  TIP3      10515           0.0000000000
     53797     10707  TIP3      H2              2.6658942246      -18.8584373429      -76.2509310509  TIP3      10515           0.0000000000
     53798     10708  TIP3      OH2             4.5423552629      -33.9700793834      -78.8732505933  TIP3      10516           0.0000000000
     53799     10708  TIP3      H1              5.1003219100      -34.4416230273      -79.4879535060  TIP3      10516           0.0000000000
     53800     10708  TIP3      H2              5.1889456147      -33.5204695543      -78.2980047986  TIP3      10516           0.0000000000
     53801     10709  TIP3      OH2             9.5010645488      -33.6038000530      -76.4629649651  TIP3      10517           0.0000000000
     53802     10709  TIP3      H1              9.8828352602      -34.1374771295      -75.7427656559  TIP3      10517           0.0000000000
     53803     10709  TIP3      H2              9.6528665518      -32.7190938072      -76.0519999892  TIP3      10517           0.0000000000
     53804     10710  TIP3      OH2            11.4868413454      -18.1829938235      -78.0402581854  TIP3      10518           0.0000000000
     53805     10710  TIP3      H1             12.4526739409      -18.2148351465      -78.2015119514  TIP3      10518           0.0000000000
     53806     10710  TIP3      H2             11.3111552692      -18.9195018923      -78.6733322099  TIP3      10518           0.0000000000
     53807     10711  TIP3      OH2            18.2077739267      -18.9939537677      -75.3567962068  TIP3      10519           0.0000000000
     53808     10711  TIP3      H1             18.0129166799      -19.7760353256      -75.9304361455  TIP3      10519           0.0000000000
     53809     10711  TIP3      H2             18.1228445095      -18.2588947353      -75.9989570719  TIP3      10519           0.0000000000
     53810     10712  TIP3      OH2             3.7423523362      -35.0094664261      -63.8116091749  TIP3      10520           0.0000000000
     53811     10712  TIP3      H1              3.4089303015      -35.7410073979      -63.2892359307  TIP3      10520           0.0000000000
     53812     10712  TIP3      H2              4.6434802449      -34.9822540170      -63.4035323659  TIP3      10520           0.0000000000
     53813     10713  TIP3      OH2             5.5890818480      -35.3805023758      -62.1676306236  TIP3      10521           0.0000000000
     53814     10713  TIP3      H1              6.5307445515      -35.5765598168      -62.2916963278  TIP3      10521           0.0000000000
     53815     10713  TIP3      H2              5.4184727393      -36.2347857698      -61.7224813801  TIP3      10521           0.0000000000
     53816     10714  TIP3      OH2             4.5096983885      -18.8315989529      -79.4678813833  TIP3      10522           0.0000000000
     53817     10714  TIP3      H1              4.1787616243      -18.5619001751      -78.6000754805  TIP3      10522           0.0000000000
     53818     10714  TIP3      H2              5.2436748979      -19.4057479347      -79.2595181113  TIP3      10522           0.0000000000
     53819     10715  TIP3      OH2            14.1559669428       37.0685368849      -61.9929802142  TIP3      10523           0.0000000000
     53820     10715  TIP3      H1             14.2173463795       36.5103158375      -61.1894168399  TIP3      10523           0.0000000000
     53821     10715  TIP3      H2             15.0496755352       36.8543209443      -62.3040140372  TIP3      10523           0.0000000000
     53822     10716  TIP3      OH2            17.4573023813      -20.2548393275      -63.2762294012  TIP3      10524           0.0000000000
     53823     10716  TIP3      H1             16.6534748665      -20.3909087559      -63.8235822887  TIP3      10524           0.0000000000
     53824     10716  TIP3      H2             17.3413868689      -19.3077021649      -63.0597791222  TIP3      10524           0.0000000000
     53825     10717  TIP3      OH2            31.9002167826      -26.3899203823      -73.2865623111  TIP3      10525           0.0000000000
     53826     10717  TIP3      H1             31.9062322491      -25.4076039852      -73.3295341363  TIP3      10525           0.0000000000
     53827     10717  TIP3      H2             31.1755451804      -26.6130468583      -73.8940521391  TIP3      10525           0.0000000000
     53828     10718  TIP3      OH2            30.7590792201      -27.1244990240      -69.8068088027  TIP3      10526           0.0000000000
     53829     10718  TIP3      H1             30.7408569126      -27.7679552935      -69.0802734833  TIP3      10526           0.0000000000
     53830     10718  TIP3      H2             30.4244845184      -27.6394303090      -70.5593419954  TIP3      10526           0.0000000000
     53831     10719  TIP3      OH2            23.1092190181      -27.4449504684      -68.2427908349  TIP3      10527           0.0000000000
     53832     10719  TIP3      H1             23.1937682466      -28.1334460825      -67.5500627210  TIP3      10527           0.0000000000
     53833     10719  TIP3      H2             23.8594332663      -26.8753385394      -68.0194888607  TIP3      10527           0.0000000000
     53834     10720  TIP3      OH2            34.4635691384      -24.1982917808      -71.5008020769  TIP3      10528           0.0000000000
     53835     10720  TIP3      H1             34.0388921827      -24.9060312376      -71.0081214842  TIP3      10528           0.0000000000
     53836     10720  TIP3      H2             34.4674606405      -23.4774333402      -70.8476514292  TIP3      10528           0.0000000000
     53837     10721  TIP3      OH2            24.0351665751      -22.9981834883      -69.7428657290  TIP3      10529           0.0000000000
     53838     10721  TIP3      H1             23.7247720627      -23.8681449262      -70.0608893392  TIP3      10529           0.0000000000
     53839     10721  TIP3      H2             24.9909186073      -23.1806852806      -69.6969234415  TIP3      10529           0.0000000000
     53840     10722  TIP3      OH2            20.6757554482      -29.4448492335      -74.2504137372  TIP3      10530           0.0000000000
     53841     10722  TIP3      H1             20.2403481266      -28.5742471501      -74.3040639187  TIP3      10530           0.0000000000
     53842     10722  TIP3      H2             20.1097710030      -29.9817956005      -74.8213886693  TIP3      10530           0.0000000000
     53843     10723  TIP3      OH2            21.3887861290      -27.2006236467      -72.1039056065  TIP3      10531           0.0000000000
     53844     10723  TIP3      H1             21.6586329897      -28.0275027631      -71.6542842747  TIP3      10531           0.0000000000
     53845     10723  TIP3      H2             22.0815801117      -27.1062652900      -72.7739260360  TIP3      10531           0.0000000000
     53846     10724  TIP3      OH2            31.5721985223      -19.0106270379      -71.2852913516  TIP3      10532           0.0000000000
     53847     10724  TIP3      H1             32.2113915192      -19.7144671831      -71.5592073074  TIP3      10532           0.0000000000
     53848     10724  TIP3      H2             31.3345395747      -19.3500528216      -70.4164659516  TIP3      10532           0.0000000000
     53849     10725  TIP3      OH2            29.1391165960      -24.7253785187      -69.3179784785  TIP3      10533           0.0000000000
     53850     10725  TIP3      H1             29.4710673658      -25.3512209437      -69.9820709164  TIP3      10533           0.0000000000
     53851     10725  TIP3      H2             29.9519511539      -24.5665183148      -68.8067049031  TIP3      10533           0.0000000000
     53852     10726  TIP3      OH2            32.3278491280      -30.2276913752      -69.0115676174  TIP3      10534           0.0000000000
     53853     10726  TIP3      H1             32.4675404297      -31.1998443089      -69.0221446317  TIP3      10534           0.0000000000
     53854     10726  TIP3      H2             32.2082901239      -30.0927470707      -69.9706751006  TIP3      10534           0.0000000000
     53855     10727  TIP3      OH2            25.4218670556      -32.1490924910      -71.7885172357  TIP3      10535           0.0000000000
     53856     10727  TIP3      H1             25.5245946686      -31.3206113826      -72.2947171875  TIP3      10535           0.0000000000
     53857     10727  TIP3      H2             25.0112911093      -32.7229162222      -72.4680818691  TIP3      10535           0.0000000000
     53858     10728  TIP3      OH2            33.1636121877      -32.0532514449      -73.4041891530  TIP3      10536           0.0000000000
     53859     10728  TIP3      H1             33.8173717221      -32.3867785705      -72.7385882947  TIP3      10536           0.0000000000
     53860     10728  TIP3      H2             33.7493138576      -31.5348547461      -73.9612384129  TIP3      10536           0.0000000000
     53861     10729  TIP3      OH2            22.0332950757      -29.7506143098      -71.0589991735  TIP3      10537           0.0000000000
     53862     10729  TIP3      H1             22.7048551782      -30.2957770867      -70.6045915423  TIP3      10537           0.0000000000
     53863     10729  TIP3      H2             22.1429875214      -30.0688187570      -71.9699136180  TIP3      10537           0.0000000000
     53864     10730  TIP3      OH2            27.1939103344      -28.1977121069      -71.7403429835  TIP3      10538           0.0000000000
     53865     10730  TIP3      H1             27.8667723389      -28.7795956747      -71.3465336764  TIP3      10538           0.0000000000
     53866     10730  TIP3      H2             26.6803014478      -28.8530775258      -72.2543431874  TIP3      10538           0.0000000000
     53867     10731  TIP3      OH2            24.3362664493      -33.2109804961      -67.7664050635  TIP3      10539           0.0000000000
     53868     10731  TIP3      H1             24.0097170794      -32.6770454803      -68.5187897056  TIP3      10539           0.0000000000
     53869     10731  TIP3      H2             23.6303710477      -33.0367309221      -67.0942331584  TIP3      10539           0.0000000000
     53870     10732  TIP3      OH2            31.5903958889      -23.8067164820      -74.2161121196  TIP3      10540           0.0000000000
     53871     10732  TIP3      H1             31.3389770577      -24.0562328193      -75.1182940795  TIP3      10540           0.0000000000
     53872     10732  TIP3      H2             31.2983580548      -22.8672488976      -74.1564076297  TIP3      10540           0.0000000000
     53873     10733  TIP3      OH2            26.8359390360      -25.6237655944      -67.5163210672  TIP3      10541           0.0000000000
     53874     10733  TIP3      H1             26.1322326469      -24.9792401974      -67.2964384204  TIP3      10541           0.0000000000
     53875     10733  TIP3      H2             27.5420792575      -25.0245346165      -67.8064742404  TIP3      10541           0.0000000000
     53876     10734  TIP3      OH2            34.6683855123      -32.8187514352      -71.3297757799  TIP3      10542           0.0000000000
     53877     10734  TIP3      H1             34.6760751264      -33.5979453787      -70.7712441752  TIP3      10542           0.0000000000
     53878     10734  TIP3      H2             35.4165168327      -32.3227233566      -70.9259676777  TIP3      10542           0.0000000000
     53879     10735  TIP3      OH2            23.8810209437      -31.3598095662      -69.7423285739  TIP3      10543           0.0000000000
     53880     10735  TIP3      H1             24.5329283892      -30.7143056672      -69.3982117616  TIP3      10543           0.0000000000
     53881     10735  TIP3      H2             24.4025439373      -31.8064060609      -70.4567562539  TIP3      10543           0.0000000000
     53882     10736  TIP3      OH2            25.2839039975      -23.6166044280      -66.6961524427  TIP3      10544           0.0000000000
     53883     10736  TIP3      H1             25.2347559154      -22.7036249122      -67.0328898580  TIP3      10544           0.0000000000
     53884     10736  TIP3      H2             24.4018449793      -23.6975683778      -66.2522684349  TIP3      10544           0.0000000000
     53885     10737  TIP3      OH2            21.3427200098      -24.0086674918      -75.9108659812  TIP3      10545           0.0000000000
     53886     10737  TIP3      H1             21.1341955263      -23.6636747186      -76.7990402731  TIP3      10545           0.0000000000
     53887     10737  TIP3      H2             21.4275554103      -23.1814552608      -75.3903819433  TIP3      10545           0.0000000000
     53888     10738  TIP3      OH2            34.7737595563      -22.4110343812      -69.0496014126  TIP3      10546           0.0000000000
     53889     10738  TIP3      H1             33.8156313822      -22.1973507011      -69.0061446579  TIP3      10546           0.0000000000
     53890     10738  TIP3      H2             35.1566912410      -21.5663011877      -69.3530827874  TIP3      10546           0.0000000000
     53891     10739  TIP3      OH2            35.0904363319      -33.8925258358      -68.0343733344  TIP3      10547           0.0000000000
     53892     10739  TIP3      H1             34.3919165237      -33.2340993093      -67.9022528942  TIP3      10547           0.0000000000
     53893     10739  TIP3      H2             35.8737995353      -33.4125354080      -68.3244954639  TIP3      10547           0.0000000000
     53894     10740  TIP3      OH2            28.2310233027      -35.9255644561      -70.4727886919  TIP3      10548           0.0000000000
     53895     10740  TIP3      H1             28.2224667924      -36.8810659395      -70.2980594939  TIP3      10548           0.0000000000
     53896     10740  TIP3      H2             27.4515336879      -35.6569498839      -69.9599660173  TIP3      10548           0.0000000000
     53897     10741  TIP3      OH2            33.1486354411      -20.6232916744      -72.5365784397  TIP3      10549           0.0000000000
     53898     10741  TIP3      H1             33.6376471908      -21.3022831501      -73.0446391443  TIP3      10549           0.0000000000
     53899     10741  TIP3      H2             33.6000019243      -19.8211407211      -72.8840771853  TIP3      10549           0.0000000000
     53900     10742  TIP3      OH2            34.4282669000      -22.6378182085      -74.0370617298  TIP3      10550           0.0000000000
     53901     10742  TIP3      H1             34.1771555827      -23.3460131980      -74.6513641181  TIP3      10550           0.0000000000
     53902     10742  TIP3      H2             34.4898922610      -23.1453782877      -73.2016290545  TIP3      10550           0.0000000000
     53903     10743  TIP3      OH2            35.8019487210      -23.8930400453      -65.4218352609  TIP3      10551           0.0000000000
     53904     10743  TIP3      H1             36.0791924601      -24.5913220041      -66.0475796294  TIP3      10551           0.0000000000
     53905     10743  TIP3      H2             36.2102844526      -23.1336916462      -65.8782224392  TIP3      10551           0.0000000000
     53906     10744  TIP3      OH2            30.5424739348      -27.1428766980      -75.8132674100  TIP3      10552           0.0000000000
     53907     10744  TIP3      H1             29.8587893747      -26.5478320402      -76.1812157642  TIP3      10552           0.0000000000
     53908     10744  TIP3      H2             31.2577329915      -27.0526080496      -76.4686525651  TIP3      10552           0.0000000000
     53909     10745  TIP3      OH2            30.5776910039      -28.6483789890      -78.6667136994  TIP3      10553           0.0000000000
     53910     10745  TIP3      H1             31.3575727570      -28.5787754681      -78.1014852728  TIP3      10553           0.0000000000
     53911     10745  TIP3      H2             30.9180786472      -29.2402316755      -79.3374247785  TIP3      10553           0.0000000000
     53912     10746  TIP3      OH2            33.9668131701      -26.9234601754      -74.8923938165  TIP3      10554           0.0000000000
     53913     10746  TIP3      H1             33.2527991746      -26.6692674380      -74.2616871131  TIP3      10554           0.0000000000
     53914     10746  TIP3      H2             34.4574459584      -27.5549822089      -74.3221041893  TIP3      10554           0.0000000000
     53915     10747  TIP3      OH2            33.9516369120      -28.7509375724      -65.7641595358  TIP3      10555           0.0000000000
     53916     10747  TIP3      H1             33.9037889387      -27.9536918589      -65.2121157594  TIP3      10555           0.0000000000
     53917     10747  TIP3      H2             33.3102299757      -28.4823034887      -66.4476880612  TIP3      10555           0.0000000000
     53918     10748  TIP3      OH2            25.6175754721      -26.2659679223      -72.9424219451  TIP3      10556           0.0000000000
     53919     10748  TIP3      H1             25.2972077720      -26.6607815624      -73.7899507742  TIP3      10556           0.0000000000
     53920     10748  TIP3      H2             26.2310238749      -26.9602729099      -72.6077330247  TIP3      10556           0.0000000000
     53921     10749  TIP3      OH2            26.9353879809      -22.8895832213      -70.2611980364  TIP3      10557           0.0000000000
     53922     10749  TIP3      H1             26.9328437699      -23.4111836981      -71.0730280852  TIP3      10557           0.0000000000
     53923     10749  TIP3      H2             27.7195038739      -23.2433684248      -69.8028102084  TIP3      10557           0.0000000000
     53924     10750  TIP3      OH2            25.9451145770      -27.5242555795      -69.2789603795  TIP3      10558           0.0000000000
     53925     10750  TIP3      H1             26.4956254246      -27.4257389839      -70.0805082055  TIP3      10558           0.0000000000
     53926     10750  TIP3      H2             26.3351808256      -26.8568446007      -68.6713778444  TIP3      10558           0.0000000000
     53927     10751  TIP3      OH2            32.2865892966      -21.9353032013      -68.5889252665  TIP3      10559           0.0000000000
     53928     10751  TIP3      H1             32.0895814265      -21.3120884129      -67.8864932642  TIP3      10559           0.0000000000
     53929     10751  TIP3      H2             32.1079017425      -22.8046878495      -68.1561609180  TIP3      10559           0.0000000000
     53930     10752  TIP3      OH2            26.9002427214      -23.0934545463      -64.5843051495  TIP3      10560           0.0000000000
     53931     10752  TIP3      H1             26.4854641009      -22.3545649722      -64.0938313823  TIP3      10560           0.0000000000
     53932     10752  TIP3      H2             26.2278581258      -23.2933317270      -65.2814010630  TIP3      10560           0.0000000000
     53933     10753  TIP3      OH2            32.8924233286      -27.7632929190      -77.1777865399  TIP3      10561           0.0000000000
     53934     10753  TIP3      H1             33.4159729955      -27.5256917734      -76.3698637691  TIP3      10561           0.0000000000
     53935     10753  TIP3      H2             33.2689298611      -27.1800156794      -77.8617923642  TIP3      10561           0.0000000000
     53936     10754  TIP3      OH2            23.8415326326      -26.9352145451      -65.4310746010  TIP3      10562           0.0000000000
     53937     10754  TIP3      H1             23.8947040955      -26.2658925382      -64.7230370026  TIP3      10562           0.0000000000
     53938     10754  TIP3      H2             22.8991094469      -26.8482547372      -65.6424600972  TIP3      10562           0.0000000000
     53939     10755  TIP3      OH2            30.5789178043      -21.0127083725      -73.7190292206  TIP3      10563           0.0000000000
     53940     10755  TIP3      H1             31.0170251476      -20.7036018610      -72.9153065645  TIP3      10563           0.0000000000
     53941     10755  TIP3      H2             30.0313703529      -20.2622582281      -73.9762158904  TIP3      10563           0.0000000000
     53942     10756  TIP3      OH2            25.1472652259      -21.0595939292      -63.8373516997  TIP3      10564           0.0000000000
     53943     10756  TIP3      H1             25.0857911478      -21.1580382978      -64.8029312806  TIP3      10564           0.0000000000
     53944     10756  TIP3      H2             24.2174819025      -21.1931970029      -63.5695160281  TIP3      10564           0.0000000000
     53945     10757  TIP3      OH2            24.5773003263      -27.2466594079      -75.3112882286  TIP3      10565           0.0000000000
     53946     10757  TIP3      H1             24.3085301438      -26.4721596504      -75.8517972924  TIP3      10565           0.0000000000
     53947     10757  TIP3      H2             23.9232437105      -27.9042048162      -75.5577149057  TIP3      10565           0.0000000000
     53948     10758  TIP3      OH2            20.6794862757      -24.8132066220      -66.4249036986  TIP3      10566           0.0000000000
     53949     10758  TIP3      H1             20.2339943901      -24.8980485674      -67.2890779276  TIP3      10566           0.0000000000
     53950     10758  TIP3      H2             20.7589076530      -25.7625548600      -66.2102423528  TIP3      10566           0.0000000000
     53951     10759  TIP3      OH2            20.4368530535      -22.0835958694      -69.6517381971  TIP3      10567           0.0000000000
     53952     10759  TIP3      H1             21.3951808430      -22.1993023664      -69.6715192972  TIP3      10567           0.0000000000
     53953     10759  TIP3      H2             20.3548137985      -21.2653604529      -69.1471840596  TIP3      10567           0.0000000000
     53954     10760  TIP3      OH2            29.6337164433      -21.8401060113      -65.1002193527  TIP3      10568           0.0000000000
     53955     10760  TIP3      H1             29.6920020574      -20.9975441170      -64.5916728856  TIP3      10568           0.0000000000
     53956     10760  TIP3      H2             28.7612346095      -22.1998264045      -64.8489954491  TIP3      10568           0.0000000000
     53957     10761  TIP3      OH2            30.0646174571      -18.1062545104      -75.3238998954  TIP3      10569           0.0000000000
     53958     10761  TIP3      H1             29.9926700253      -18.1497068354      -76.2961986436  TIP3      10569           0.0000000000
     53959     10761  TIP3      H2             30.1155293871      -17.1440972804      -75.1485716447  TIP3      10569           0.0000000000
     53960     10762  TIP3      OH2            23.7148604574      -19.2179437436      -73.4898120143  TIP3      10570           0.0000000000
     53961     10762  TIP3      H1             23.8601836634      -19.6287148965      -72.6089017368  TIP3      10570           0.0000000000
     53962     10762  TIP3      H2             22.8642153754      -19.6245983193      -73.7214893341  TIP3      10570           0.0000000000
     53963     10763  TIP3      OH2            33.0489575067      -18.9247438040      -78.3417509213  TIP3      10571           0.0000000000
     53964     10763  TIP3      H1             33.5754005466      -19.6382505075      -78.7693757263  TIP3      10571           0.0000000000
     53965     10763  TIP3      H2             33.1469752475      -19.1328768610      -77.3940458639  TIP3      10571           0.0000000000
     53966     10764  TIP3      OH2            32.8034123372      -18.9823597823      -75.5463178187  TIP3      10572           0.0000000000
     53967     10764  TIP3      H1             31.8501000431      -18.8682748936      -75.3454292853  TIP3      10572           0.0000000000
     53968     10764  TIP3      H2             33.0436016854      -19.7076159716      -74.9519974640  TIP3      10572           0.0000000000
     53969     10765  TIP3      OH2            35.3244708483      -29.7327248037      -63.4614697251  TIP3      10573           0.0000000000
     53970     10765  TIP3      H1             35.2872020663      -29.3882601348      -64.3564215585  TIP3      10573           0.0000000000
     53971     10765  TIP3      H2             35.8629782583      -30.5575176676      -63.6147214634  TIP3      10573           0.0000000000
     53972     10766  TIP3      OH2            22.9648982471      -23.5030428444      -65.4866393117  TIP3      10574           0.0000000000
     53973     10766  TIP3      H1             23.1854140979      -23.8681062642      -64.6047345817  TIP3      10574           0.0000000000
     53974     10766  TIP3      H2             22.0949980903      -23.9004646541      -65.7000368793  TIP3      10574           0.0000000000
     53975     10767  TIP3      OH2            25.6157056850      -35.0665761403      -69.5096477352  TIP3      10575           0.0000000000
     53976     10767  TIP3      H1             24.7241430101      -35.1235292956      -69.9081193947  TIP3      10575           0.0000000000
     53977     10767  TIP3      H2             25.5126868359      -34.2111244833      -69.0617532417  TIP3      10575           0.0000000000
     53978     10768  TIP3      OH2            29.9442386970      -35.0568250303      -66.3961762153  TIP3      10576           0.0000000000
     53979     10768  TIP3      H1             30.5673834251      -35.4314862560      -65.7144644860  TIP3      10576           0.0000000000
     53980     10768  TIP3      H2             29.1592089600      -35.4439536950      -66.0060642797  TIP3      10576           0.0000000000
     53981     10769  TIP3      OH2            33.5229874871      -31.5792827996      -65.3213370523  TIP3      10577           0.0000000000
     53982     10769  TIP3      H1             32.9970096294      -31.7209603780      -64.4993033394  TIP3      10577           0.0000000000
     53983     10769  TIP3      H2             33.4382769410      -30.6256660585      -65.4806298889  TIP3      10577           0.0000000000
     53984     10770  TIP3      OH2            34.5009513976      -26.7229667746      -79.3309550625  TIP3      10578           0.0000000000
     53985     10770  TIP3      H1             34.4179024733      -26.8271293683      -80.2957306651  TIP3      10578           0.0000000000
     53986     10770  TIP3      H2             35.2606058699      -26.1400675189      -79.2704017494  TIP3      10578           0.0000000000
     53987     10771  TIP3      OH2            29.9191327714      -32.7895638554      -78.8290445656  TIP3      10579           0.0000000000
     53988     10771  TIP3      H1             29.6325648133      -32.8444087404      -77.9023059603  TIP3      10579           0.0000000000
     53989     10771  TIP3      H2             29.7011241999      -33.6740000015      -79.1278495064  TIP3      10579           0.0000000000
     53990     10772  TIP3      OH2            25.7500453082      -30.0494577625      -68.2734490052  TIP3      10580           0.0000000000
     53991     10772  TIP3      H1             25.0054170325      -30.0639014343      -67.6462152638  TIP3      10580           0.0000000000
     53992     10772  TIP3      H2             25.6976635163      -29.1450236356      -68.6569287314  TIP3      10580           0.0000000000
     53993     10773  TIP3      OH2            25.7095866936      -29.9388904909      -73.4219168412  TIP3      10581           0.0000000000
     53994     10773  TIP3      H1             24.7694393018      -30.1690071048      -73.5527471159  TIP3      10581           0.0000000000
     53995     10773  TIP3      H2             26.0806327994      -30.2284537839      -74.2790034839  TIP3      10581           0.0000000000
     53996     10774  TIP3      OH2            31.2553489253      -29.4292325739      -74.6797439136  TIP3      10582           0.0000000000
     53997     10774  TIP3      H1             30.8236503697      -28.6072600488      -75.0101569981  TIP3      10582           0.0000000000
     53998     10774  TIP3      H2             31.9306369038      -29.5849168440      -75.3557535704  TIP3      10582           0.0000000000
     53999     10775  TIP3      OH2            30.2939646265      -29.2191271102      -63.2079929557  TIP3      10583           0.0000000000
     54000     10775  TIP3      H1             29.7745274539      -30.0012421803      -62.9063167929  TIP3      10583           0.0000000000
     54001     10775  TIP3      H2             31.1364845841      -29.3487511367      -62.7378923411  TIP3      10583           0.0000000000
     54002     10776  TIP3      OH2            32.2336729805      -29.9274782674      -71.7822277099  TIP3      10584           0.0000000000
     54003     10776  TIP3      H1             31.9975107603      -29.3852492517      -72.5532373184  TIP3      10584           0.0000000000
     54004     10776  TIP3      H2             32.3551370596      -30.7843774677      -72.2376849242  TIP3      10584           0.0000000000
     54005     10777  TIP3      OH2            23.3638893959      -29.8020391918      -66.6063594415  TIP3      10585           0.0000000000
     54006     10777  TIP3      H1             23.4508074318      -29.3970680176      -65.7260871767  TIP3      10585           0.0000000000
     54007     10777  TIP3      H2             22.9194496011      -30.6364092687      -66.3955071552  TIP3      10585           0.0000000000
     54008     10778  TIP3      OH2            26.9468453674      -32.1497597073      -79.3879680622  TIP3      10586           0.0000000000
     54009     10778  TIP3      H1             26.3637454350      -32.7705432049      -78.9200230217  TIP3      10586           0.0000000000
     54010     10778  TIP3      H2             26.3941317365      -31.7734980812      -80.0858145845  TIP3      10586           0.0000000000
     54011     10779  TIP3      OH2            20.0259188889      -32.6927396595      -72.6309528703  TIP3      10587           0.0000000000
     54012     10779  TIP3      H1             20.7007627922      -32.6802728949      -71.9146713702  TIP3      10587           0.0000000000
     54013     10779  TIP3      H2             20.5202355916      -33.0349647072      -73.3843523086  TIP3      10587           0.0000000000
     54014     10780  TIP3      OH2            21.2933480919      -31.9455911410      -77.2073373456  TIP3      10588           0.0000000000
     54015     10780  TIP3      H1             21.8107765712      -31.3894059074      -77.8269108685  TIP3      10588           0.0000000000
     54016     10780  TIP3      H2             20.6098900466      -31.2999228228      -76.9403175859  TIP3      10588           0.0000000000
     54017     10781  TIP3      OH2            31.4421025706      -28.3703467261      -67.2567820587  TIP3      10589           0.0000000000
     54018     10781  TIP3      H1             31.8388951206      -29.0629306747      -67.8295158028  TIP3      10589           0.0000000000
     54019     10781  TIP3      H2             30.9789178005      -28.8930994004      -66.5789337470  TIP3      10589           0.0000000000
     54020     10782  TIP3      OH2            28.2659123692      -32.3925372423      -72.4285880743  TIP3      10590           0.0000000000
     54021     10782  TIP3      H1             27.3352530927      -32.3899974557      -72.1151593740  TIP3      10590           0.0000000000
     54022     10782  TIP3      H2             28.7660661970      -32.5484342823      -71.6068505158  TIP3      10590           0.0000000000
     54023     10783  TIP3      OH2            23.0693922893      -30.8346222566      -73.5466458462  TIP3      10591           0.0000000000
     54024     10783  TIP3      H1             22.1867315092      -30.6837490083      -73.9425100249  TIP3      10591           0.0000000000
     54025     10783  TIP3      H2             23.3704050610      -31.6608433184      -73.9619604979  TIP3      10591           0.0000000000
     54026     10784  TIP3      OH2            26.7057464382      -30.7630907715      -75.9058630696  TIP3      10592           0.0000000000
     54027     10784  TIP3      H1             27.6667772287      -30.6824081924      -75.7457273214  TIP3      10592           0.0000000000
     54028     10784  TIP3      H2             26.4813982470      -30.1135529871      -76.5978670510  TIP3      10592           0.0000000000
     54029     10785  TIP3      OH2            32.5800179979      -33.1325603674      -69.1804196580  TIP3      10593           0.0000000000
     54030     10785  TIP3      H1             31.9166335532      -33.1093579224      -68.4643360707  TIP3      10593           0.0000000000
     54031     10785  TIP3      H2             32.1024389674      -33.4227693032      -69.9717289295  TIP3      10593           0.0000000000
     54032     10786  TIP3      OH2            25.4192801001      -29.6085312656      -78.3298587233  TIP3      10594           0.0000000000
     54033     10786  TIP3      H1             24.8493261899      -29.9603595528      -79.0300537524  TIP3      10594           0.0000000000
     54034     10786  TIP3      H2             26.2378084139      -29.4055165974      -78.8111285892  TIP3      10594           0.0000000000
     54035     10787  TIP3      OH2            35.7634090992      -17.4572675489      -62.8130526978  TIP3      10595           0.0000000000
     54036     10787  TIP3      H1             36.1065832951      -17.1344157787      -63.6618157900  TIP3      10595           0.0000000000
     54037     10787  TIP3      H2             36.5158853362      -17.2108905824      -62.2508693157  TIP3      10595           0.0000000000
     54038     10788  TIP3      OH2            23.5423570014      -25.0384036992      -63.2771696405  TIP3      10596           0.0000000000
     54039     10788  TIP3      H1             24.2627685823      -24.7930666947      -62.6735828506  TIP3      10596           0.0000000000
     54040     10788  TIP3      H2             22.7697758930      -24.9583512379      -62.6759022620  TIP3      10596           0.0000000000
     54041     10789  TIP3      OH2            29.5462307593      -29.6381195797      -70.5230220503  TIP3      10597           0.0000000000
     54042     10789  TIP3      H1             30.1507425782      -30.1745833713      -71.0523433497  TIP3      10597           0.0000000000
     54043     10789  TIP3      H2             29.3962499066      -30.1837281891      -69.7361284116  TIP3      10597           0.0000000000
     54044     10790  TIP3      OH2            24.5319229966      -33.4567031186      -74.0606589057  TIP3      10598           0.0000000000
     54045     10790  TIP3      H1             24.2200907656      -34.3762144302      -74.0605972365  TIP3      10598           0.0000000000
     54046     10790  TIP3      H2             25.3148082186      -33.5337828985      -74.6215500435  TIP3      10598           0.0000000000
     54047     10791  TIP3      OH2            28.1942569500      -31.2490956900      -68.1220614206  TIP3      10599           0.0000000000
     54048     10791  TIP3      H1             27.3478238473      -30.7681132031      -68.0106951759  TIP3      10599           0.0000000000
     54049     10791  TIP3      H2             28.7374192196      -30.9382662734      -67.3769980978  TIP3      10599           0.0000000000
     54050     10792  TIP3      OH2            28.7794796074      -25.0976767855      -76.3815479760  TIP3      10600           0.0000000000
     54051     10792  TIP3      H1             27.9743784735      -25.5462991033      -76.7245609711  TIP3      10600           0.0000000000
     54052     10792  TIP3      H2             28.5513157228      -24.9625503300      -75.4417097324  TIP3      10600           0.0000000000
     54053     10793  TIP3      OH2            35.6409538367      -25.8554140268      -67.6133375269  TIP3      10601           0.0000000000
     54054     10793  TIP3      H1             36.3662998288      -25.7274751812      -68.2641559755  TIP3      10601           0.0000000000
     54055     10793  TIP3      H2             34.8775003165      -25.8522523171      -68.2214290258  TIP3      10601           0.0000000000
     54056     10794  TIP3      OH2            32.6489148139      -32.2606218671      -78.2219590828  TIP3      10602           0.0000000000
     54057     10794  TIP3      H1             31.6989574620      -32.1641135734      -78.4174769371  TIP3      10602           0.0000000000
     54058     10794  TIP3      H2             32.9161732285      -31.3924286133      -77.8837177822  TIP3      10602           0.0000000000
     54059     10795  TIP3      OH2            30.2716829268      -24.8093212449      -65.1676502383  TIP3      10603           0.0000000000
     54060     10795  TIP3      H1             29.9101693654      -25.2350415951      -64.3844555246  TIP3      10603           0.0000000000
     54061     10795  TIP3      H2             30.0326127900      -23.8842602557      -65.0600141911  TIP3      10603           0.0000000000
     54062     10796  TIP3      OH2            33.3555716642      -30.3283768386      -76.6309049098  TIP3      10604           0.0000000000
     54063     10796  TIP3      H1             34.2289358635      -30.4734370885      -76.2201410530  TIP3      10604           0.0000000000
     54064     10796  TIP3      H2             33.4265085610      -29.4737728887      -77.0841598244  TIP3      10604           0.0000000000
     54065     10797  TIP3      OH2            23.8832978112      -25.6791394733      -70.6098063012  TIP3      10605           0.0000000000
     54066     10797  TIP3      H1             24.5586925406      -25.7654782419      -71.3109224508  TIP3      10605           0.0000000000
     54067     10797  TIP3      H2             23.9395370587      -26.5389793667      -70.1549814129  TIP3      10605           0.0000000000
     54068     10798  TIP3      OH2            30.8561075184      -23.6185658020      -77.3523707272  TIP3      10606           0.0000000000
     54069     10798  TIP3      H1             30.4985175895      -22.7686660454      -77.0085608174  TIP3      10606           0.0000000000
     54070     10798  TIP3      H2             30.1218284178      -24.2439612066      -77.1612207942  TIP3      10606           0.0000000000
     54071     10799  TIP3      OH2            20.8596459351      -27.2783905956      -65.3421222542  TIP3      10607           0.0000000000
     54072     10799  TIP3      H1             21.0381806791      -27.7270751152      -64.4936581192  TIP3      10607           0.0000000000
     54073     10799  TIP3      H2             20.2472894976      -27.8919621636      -65.7877783611  TIP3      10607           0.0000000000
     54074     10800  TIP3      OH2            27.8823281334      -27.7199247504      -63.1732343706  TIP3      10608           0.0000000000
     54075     10800  TIP3      H1             27.5628446480      -28.0299386982      -64.0324534597  TIP3      10608           0.0000000000
     54076     10800  TIP3      H2             28.8047721418      -28.0454744691      -63.1736512824  TIP3      10608           0.0000000000
     54077     10801  TIP3      OH2            32.5678810982      -22.3918439208      -65.2183575986  TIP3      10609           0.0000000000
     54078     10801  TIP3      H1             31.6472955158      -22.2156776961      -65.4575687119  TIP3      10609           0.0000000000
     54079     10801  TIP3      H2             32.5388171416      -22.0938045451      -64.2889275177  TIP3      10609           0.0000000000
     54080     10802  TIP3      OH2            33.6762109605      -26.5846021959      -69.3210303665  TIP3      10610           0.0000000000
     54081     10802  TIP3      H1             32.7402867046      -26.8029609435      -69.4630019943  TIP3      10610           0.0000000000
     54082     10802  TIP3      H2             34.1561704463      -27.3198078283      -69.7426905782  TIP3      10610           0.0000000000
     54083     10803  TIP3      OH2            26.2479260768      -22.2312021802      -73.2217711668  TIP3      10611           0.0000000000
     54084     10803  TIP3      H1             26.7499776180      -21.4262885569      -73.4293585925  TIP3      10611           0.0000000000
     54085     10803  TIP3      H2             25.3715767865      -21.9975312924      -73.5560003241  TIP3      10611           0.0000000000
     54086     10804  TIP3      OH2            21.9957518068      -27.3572040223      -78.7081506280  TIP3      10612           0.0000000000
     54087     10804  TIP3      H1             22.6073233376      -26.7538731344      -78.2463976374  TIP3      10612           0.0000000000
     54088     10804  TIP3      H2             21.1208272956      -27.0987895790      -78.3607434156  TIP3      10612           0.0000000000
     54089     10805  TIP3      OH2            27.6705126304      -24.5652034489      -73.6999746839  TIP3      10613           0.0000000000
     54090     10805  TIP3      H1             27.3520580113      -23.6459057501      -73.6236179186  TIP3      10613           0.0000000000
     54091     10805  TIP3      H2             26.9484684622      -25.0571775149      -73.2609103844  TIP3      10613           0.0000000000
     54092     10806  TIP3      OH2            28.1160852931      -20.3778087932      -67.2954543247  TIP3      10614           0.0000000000
     54093     10806  TIP3      H1             28.5792968695      -19.5739213818      -67.5833674758  TIP3      10614           0.0000000000
     54094     10806  TIP3      H2             28.7298387509      -20.7195098170      -66.6195903190  TIP3      10614           0.0000000000
     54095     10807  TIP3      OH2            26.3513689174      -19.5680146710      -74.1895573731  TIP3      10615           0.0000000000
     54096     10807  TIP3      H1             25.3859144534      -19.4335919507      -74.0392444295  TIP3      10615           0.0000000000
     54097     10807  TIP3      H2             26.7070711222      -18.7353991670      -73.8290425516  TIP3      10615           0.0000000000
     54098     10808  TIP3      OH2            31.6606609404      -24.3823354481      -67.6758860021  TIP3      10616           0.0000000000
     54099     10808  TIP3      H1             31.3174152897      -24.5769105823      -66.7779816616  TIP3      10616           0.0000000000
     54100     10808  TIP3      H2             32.2868764285      -25.1026894110      -67.8472043965  TIP3      10616           0.0000000000
     54101     10809  TIP3      OH2            33.9613535825      -23.3851452449      -78.5762093807  TIP3      10617           0.0000000000
     54102     10809  TIP3      H1             34.2699457319      -23.8003989490      -77.7510976232  TIP3      10617           0.0000000000
     54103     10809  TIP3      H2             32.9963535982      -23.4960685242      -78.4986110528  TIP3      10617           0.0000000000
     54104     10810  TIP3      OH2            34.4664132275      -19.8258004668      -65.2066997929  TIP3      10618           0.0000000000
     54105     10810  TIP3      H1             33.7398720446      -20.2892498577      -65.6744695386  TIP3      10618           0.0000000000
     54106     10810  TIP3      H2             34.6680019299      -19.1035497380      -65.8406366362  TIP3      10618           0.0000000000
     54107     10811  TIP3      OH2            22.5147619061      -32.5654795389      -65.7783934146  TIP3      10619           0.0000000000
     54108     10811  TIP3      H1             21.6083995138      -32.2098242242      -65.8188884875  TIP3      10619           0.0000000000
     54109     10811  TIP3      H2             22.3830300790      -33.4350726494      -65.3637863574  TIP3      10619           0.0000000000
     54110     10812  TIP3      OH2            34.7686659824      -24.7314047274      -76.3626745210  TIP3      10620           0.0000000000
     54111     10812  TIP3      H1             34.5243035358      -25.4964770206      -75.7957575186  TIP3      10620           0.0000000000
     54112     10812  TIP3      H2             35.6961981722      -24.5908745925      -76.1019856859  TIP3      10620           0.0000000000
     54113     10813  TIP3      OH2            22.1318063997      -20.7632185136      -67.3736465444  TIP3      10621           0.0000000000
     54114     10813  TIP3      H1             22.4372842897      -21.6831852142      -67.3666023922  TIP3      10621           0.0000000000
     54115     10813  TIP3      H2             22.3946271337      -20.4708400038      -66.4937826760  TIP3      10621           0.0000000000
     54116     10814  TIP3      OH2            26.8777702349      -22.6714417051      -77.6667541890  TIP3      10622           0.0000000000
     54117     10814  TIP3      H1             27.1356525852      -23.2343252385      -76.9223385205  TIP3      10622           0.0000000000
     54118     10814  TIP3      H2             26.9733488795      -21.7584692453      -77.3222754073  TIP3      10622           0.0000000000
     54119     10815  TIP3      OH2            23.3927936179      -25.4591101621      -77.1325793951  TIP3      10623           0.0000000000
     54120     10815  TIP3      H1             22.7099168495      -25.0416073973      -76.5654962522  TIP3      10623           0.0000000000
     54121     10815  TIP3      H2             23.9304805285      -24.6945895100      -77.4067914015  TIP3      10623           0.0000000000
     54122     10816  TIP3      OH2            31.2467423937      -32.7687331669      -66.8350343840  TIP3      10624           0.0000000000
     54123     10816  TIP3      H1             31.9907491304      -32.7502298919      -66.2199402499  TIP3      10624           0.0000000000
     54124     10816  TIP3      H2             30.8603972050      -33.6589427260      -66.6634368193  TIP3      10624           0.0000000000
     54125     10817  TIP3      OH2            32.0598903142      -33.2079341758      -75.7519438398  TIP3      10625           0.0000000000
     54126     10817  TIP3      H1             32.2627030235      -32.7265363946      -76.5783157669  TIP3      10625           0.0000000000
     54127     10817  TIP3      H2             32.5814894740      -32.7160470496      -75.1010829058  TIP3      10625           0.0000000000
     54128     10818  TIP3      OH2            29.6692765203      -21.0267769011      -76.9519122767  TIP3      10626           0.0000000000
     54129     10818  TIP3      H1             28.8566070318      -20.5053698041      -76.8510003313  TIP3      10626           0.0000000000
     54130     10818  TIP3      H2             30.2245339021      -20.5039160264      -77.5551928395  TIP3      10626           0.0000000000
     54131     10819  TIP3      OH2            29.2250878288      -31.4822298779      -74.9359492388  TIP3      10627           0.0000000000
     54132     10819  TIP3      H1             29.9928898299      -30.8792086740      -74.9255281177  TIP3      10627           0.0000000000
     54133     10819  TIP3      H2             28.9736416615      -31.5586546693      -73.9956861694  TIP3      10627           0.0000000000
     54134     10820  TIP3      OH2            29.8165076412      -30.4300907743      -65.7425099505  TIP3      10628           0.0000000000
     54135     10820  TIP3      H1             29.8962132446      -29.8694543443      -64.9465419234  TIP3      10628           0.0000000000
     54136     10820  TIP3      H2             30.4567091737      -31.1517555217      -65.6456333764  TIP3      10628           0.0000000000
     54137     10821  TIP3      OH2            30.0698406498      -34.3826774240      -73.9993783038  TIP3      10629           0.0000000000
     54138     10821  TIP3      H1             29.7638196892      -33.7004388150      -73.3796127284  TIP3      10629           0.0000000000
     54139     10821  TIP3      H2             30.7427157190      -33.8624932977      -74.5038188815  TIP3      10629           0.0000000000
     54140     10822  TIP3      OH2            27.0411996673      -19.9960535682      -76.9015435534  TIP3      10630           0.0000000000
     54141     10822  TIP3      H1             27.2201224053      -19.1691183771      -77.4029762577  TIP3      10630           0.0000000000
     54142     10822  TIP3      H2             26.8036291758      -19.6558217971      -76.0149625928  TIP3      10630           0.0000000000
     54143     10823  TIP3      OH2            25.7422076898      -33.3276602181      -77.3399643939  TIP3      10631           0.0000000000
     54144     10823  TIP3      H1             25.6453088621      -32.4219196291      -76.9709209055  TIP3      10631           0.0000000000
     54145     10823  TIP3      H2             26.6577828738      -33.4899322797      -77.0348874038  TIP3      10631           0.0000000000
     54146     10824  TIP3      OH2            35.8700442889      -32.7320912198      -65.0513966353  TIP3      10632           0.0000000000
     54147     10824  TIP3      H1             34.9955776927      -32.2724343969      -65.0687862229  TIP3      10632           0.0000000000
     54148     10824  TIP3      H2             36.2321177031      -32.5452361150      -65.9194055326  TIP3      10632           0.0000000000
     54149     10825  TIP3      OH2            34.5684306604      -28.7680186302      -70.8438653987  TIP3      10633           0.0000000000
     54150     10825  TIP3      H1             33.7491003274      -29.2084353219      -71.1454436296  TIP3      10633           0.0000000000
     54151     10825  TIP3      H2             34.9975109161      -29.4811914946      -70.3625355670  TIP3      10633           0.0000000000
     54152     10826  TIP3      OH2            23.9754592608      -22.8350782263      -78.3123775222  TIP3      10634           0.0000000000
     54153     10826  TIP3      H1             24.6378915640      -22.2264366802      -77.9646437288  TIP3      10634           0.0000000000
     54154     10826  TIP3      H2             24.5103016831      -23.2989226415      -78.9879653787  TIP3      10634           0.0000000000
     54155     10827  TIP3      OH2            22.3631672386      -30.1584615836      -79.0948184071  TIP3      10635           0.0000000000
     54156     10827  TIP3      H1             22.3350780667      -29.1937687336      -78.9780552040  TIP3      10635           0.0000000000
     54157     10827  TIP3      H2             21.4892124010      -30.3583331931      -79.4434150258  TIP3      10635           0.0000000000
     54158     10828  TIP3      OH2            35.6996941695      -19.4838407882      -69.2328647639  TIP3      10636           0.0000000000
     54159     10828  TIP3      H1             35.5429226135      -18.8125504972      -69.9213543994  TIP3      10636           0.0000000000
     54160     10828  TIP3      H2             36.6412824223      -19.3933683232      -69.0636940543  TIP3      10636           0.0000000000
     54161     10829  TIP3      OH2            22.8844337617      -35.2238663704      -70.3541923376  TIP3      10637           0.0000000000
     54162     10829  TIP3      H1             22.9461179003      -35.3266417945      -71.3332569356  TIP3      10637           0.0000000000
     54163     10829  TIP3      H2             22.7413185191      -36.1482974983      -70.1297473544  TIP3      10637           0.0000000000
     54164     10830  TIP3      OH2            22.0852497265      -21.4664837400      -74.2689423735  TIP3      10638           0.0000000000
     54165     10830  TIP3      H1             21.2271085017      -21.0220526640      -74.3070159674  TIP3      10638           0.0000000000
     54166     10830  TIP3      H2             22.5546986230      -21.0021372776      -74.9741561231  TIP3      10638           0.0000000000
     54167     10831  TIP3      OH2            21.2851529862      -18.8157064911      -62.9828308291  TIP3      10639           0.0000000000
     54168     10831  TIP3      H1             21.8903627401      -19.0155119626      -62.2424905164  TIP3      10639           0.0000000000
     54169     10831  TIP3      H2             20.8857830722      -19.6847123961      -63.1626787719  TIP3      10639           0.0000000000
     54170     10832  TIP3      OH2            25.9673461741      -19.8964827193      -61.3743308021  TIP3      10640           0.0000000000
     54171     10832  TIP3      H1             26.7247168907      -20.3953864278      -61.0397523173  TIP3      10640           0.0000000000
     54172     10832  TIP3      H2             25.9418756838      -20.1758277854      -62.3098420192  TIP3      10640           0.0000000000
     54173     10833  TIP3      OH2            30.5614022711      -20.2888208886      -79.3885903634  TIP3      10641           0.0000000000
     54174     10833  TIP3      H1             29.7038850583      -20.7513354250      -79.4040614128  TIP3      10641           0.0000000000
     54175     10833  TIP3      H2             31.0154117882      -20.7771075848      -80.0750913665  TIP3      10641           0.0000000000
     54176     10834  TIP3      OH2            32.5282582907      -21.5271487884      -62.6263210711  TIP3      10642           0.0000000000
     54177     10834  TIP3      H1             32.1782586836      -22.3968661304      -62.3412496935  TIP3      10642           0.0000000000
     54178     10834  TIP3      H2             33.2807248470      -21.4188048627      -62.0151487961  TIP3      10642           0.0000000000
     54179     10835  TIP3      OH2            34.6570641550      -20.6184159816      -79.7592030189  TIP3      10643           0.0000000000
     54180     10835  TIP3      H1             34.9306863924      -21.4174819768      -79.2819414348  TIP3      10643           0.0000000000
     54181     10835  TIP3      H2             35.4351085795      -20.3845406450      -80.2796817526  TIP3      10643           0.0000000000
     54182     10836  TIP3      OH2            21.1959180891      -25.0435134634      -61.9839494389  TIP3      10644           0.0000000000
     54183     10836  TIP3      H1             21.3629270019      -25.9548960716      -62.2857514587  TIP3      10644           0.0000000000
     54184     10836  TIP3      H2             20.4565813056      -24.7854474688      -62.5589268925  TIP3      10644           0.0000000000
     54185     10837  TIP3      OH2            25.6519075408      -24.6286167982      -79.8402647419  TIP3      10645           0.0000000000
     54186     10837  TIP3      H1             25.7108843779      -25.4605055381      -79.3619536695  TIP3      10645           0.0000000000
     54187     10837  TIP3      H2             26.2078659297      -24.8611363853      -80.6135041365  TIP3      10645           0.0000000000
     54188     10838  TIP3      OH2            27.9138996201      -25.0537073904      -62.5998326922  TIP3      10646           0.0000000000
     54189     10838  TIP3      H1             27.5789645790      -24.7423168827      -63.4632188861  TIP3      10646           0.0000000000
     54190     10838  TIP3      H2             27.9884965829      -26.0321321511      -62.7074915965  TIP3      10646           0.0000000000
     54191     10839  TIP3      OH2            33.5793431327      -25.2345640937      -65.2082614640  TIP3      10647           0.0000000000
     54192     10839  TIP3      H1             34.3718074611      -24.6393162359      -65.2610374843  TIP3      10647           0.0000000000
     54193     10839  TIP3      H2             32.9082666997      -24.5440402735      -65.1625612315  TIP3      10647           0.0000000000
     54194     10840  TIP3      OH2            22.1228156131      -27.8155660970      -62.6029463949  TIP3      10648           0.0000000000
     54195     10840  TIP3      H1             22.5353389000      -28.6804547469      -62.6949172872  TIP3      10648           0.0000000000
     54196     10840  TIP3      H2             21.8835684180      -27.8122452735      -61.6619702098  TIP3      10648           0.0000000000
     54197     10841  TIP3      OH2            26.7735369291      -26.6586563515      -77.5456450202  TIP3      10649           0.0000000000
     54198     10841  TIP3      H1             26.2646846660      -27.1983641752      -76.9173224051  TIP3      10649           0.0000000000
     54199     10841  TIP3      H2             27.0835700761      -27.3364140103      -78.1895840523  TIP3      10649           0.0000000000
     54200     10842  TIP3      OH2            26.0167312766      -28.8807552699      -65.2535702606  TIP3      10650           0.0000000000
     54201     10842  TIP3      H1             25.4226756689      -28.1565513919      -64.9944126852  TIP3      10650           0.0000000000
     54202     10842  TIP3      H2             26.4149194523      -28.5070940646      -66.0586693032  TIP3      10650           0.0000000000
     54203     10843  TIP3      OH2            27.8503064043      -28.4917696731      -79.3443518992  TIP3      10651           0.0000000000
     54204     10843  TIP3      H1             27.7252820631      -28.5903058642      -80.2987009783  TIP3      10651           0.0000000000
     54205     10843  TIP3      H2             28.8306284619      -28.4040755103      -79.2533760907  TIP3      10651           0.0000000000
     54206     10844  TIP3      OH2            31.0878695351      -26.2948748860      -61.9102929449  TIP3      10652           0.0000000000
     54207     10844  TIP3      H1             32.0425003152      -26.3090265667      -62.0351381199  TIP3      10652           0.0000000000
     54208     10844  TIP3      H2             30.9363406135      -27.0761920253      -61.3536579886  TIP3      10652           0.0000000000
     54209     10845  TIP3      OH2            26.4228940576      -31.5118699125      -64.1932607617  TIP3      10653           0.0000000000
     54210     10845  TIP3      H1             26.5447265355      -32.2190026193      -64.8465333454  TIP3      10653           0.0000000000
     54211     10845  TIP3      H2             26.3896524641      -30.7023305338      -64.7492657634  TIP3      10653           0.0000000000
     54212     10846  TIP3      OH2            26.8232454596      -33.0827297192      -66.6664122935  TIP3      10654           0.0000000000
     54213     10846  TIP3      H1             27.3421447882      -32.6208015419      -67.3635421100  TIP3      10654           0.0000000000
     54214     10846  TIP3      H2             25.9335012845      -33.2002322367      -67.0773042356  TIP3      10654           0.0000000000
     54215     10847  TIP3      OH2            28.3641790956      -27.6230978868      -66.3969717650  TIP3      10655           0.0000000000
     54216     10847  TIP3      H1             29.1193476438      -27.7895482356      -66.9684857629  TIP3      10655           0.0000000000
     54217     10847  TIP3      H2             28.0053551650      -26.7870788545      -66.7325094142  TIP3      10655           0.0000000000
     54218     10848  TIP3      OH2            32.8169613999      -29.8431186669      -61.4223355339  TIP3      10656           0.0000000000
     54219     10848  TIP3      H1             33.0356288799      -30.7826494100      -61.5382102003  TIP3      10656           0.0000000000
     54220     10848  TIP3      H2             33.6911639952      -29.4292509409      -61.4686757586  TIP3      10656           0.0000000000
     54221     10849  TIP3      OH2            34.1253812133      -27.0306220938      -63.2628036530  TIP3      10657           0.0000000000
     54222     10849  TIP3      H1             33.8287493856      -26.3496843242      -63.9072672774  TIP3      10657           0.0000000000
     54223     10849  TIP3      H2             35.0528430318      -27.1515478407      -63.4789189535  TIP3      10657           0.0000000000
     54224     10850  TIP3      OH2            24.8857916819      -30.2447446704      -62.2730695022  TIP3      10658           0.0000000000
     54225     10850  TIP3      H1             24.1160152256      -30.8208831881      -62.4444171946  TIP3      10658           0.0000000000
     54226     10850  TIP3      H2             25.5428943519      -30.6050416628      -62.8955037773  TIP3      10658           0.0000000000
     54227     10851  TIP3      OH2            27.3898526838      -35.4882116324      -65.9537888273  TIP3      10659           0.0000000000
     54228     10851  TIP3      H1             27.4394229254      -34.5559966702      -66.2781721693  TIP3      10659           0.0000000000
     54229     10851  TIP3      H2             26.8908224770      -35.9064446584      -66.6591235270  TIP3      10659           0.0000000000
     54230     10852  TIP3      OH2            28.8639146358      -31.3233149252      -62.6350599598  TIP3      10660           0.0000000000
     54231     10852  TIP3      H1             28.5828217478      -31.6211519975      -61.7513629825  TIP3      10660           0.0000000000
     54232     10852  TIP3      H2             28.0861086148      -31.5594240955      -63.1677572997  TIP3      10660           0.0000000000
     54233     10853  TIP3      OH2            31.5825759021      -32.1334585928      -63.4831770365  TIP3      10661           0.0000000000
     54234     10853  TIP3      H1             30.6148833160      -32.2054086640      -63.4127439981  TIP3      10661           0.0000000000
     54235     10853  TIP3      H2             31.8973873065      -32.8472594399      -62.8905511878  TIP3      10661           0.0000000000
     54236     10854  TIP3      OH2            33.3044460218      -33.4904388564      -61.5631595952  TIP3      10662           0.0000000000
     54237     10854  TIP3      H1             33.1014716209      -34.4616825137      -61.6496869731  TIP3      10662           0.0000000000
     54238     10854  TIP3      H2             32.8889159808      -33.2936314815      -60.7077353325  TIP3      10662           0.0000000000
     54239     10855  TIP3      OH2            22.9480472647      -32.3173315263      -62.5193018841  TIP3      10663           0.0000000000
     54240     10855  TIP3      H1             23.2157645792      -33.0520354135      -63.1035645743  TIP3      10663           0.0000000000
     54241     10855  TIP3      H2             22.8816359088      -32.7731401060      -61.6563804874  TIP3      10663           0.0000000000
     54242     10856  TIP3      OH2            27.7812474990       36.6872463995      -63.5127080495  TIP3      10664           0.0000000000
     54243     10856  TIP3      H1             28.5556783986       36.1118281723      -63.4885201651  TIP3      10664           0.0000000000
     54244     10856  TIP3      H2             27.7315300573       36.9401063941      -64.4583097951  TIP3      10664           0.0000000000
     54245     10857  TIP3      OH2            28.1990399163      -34.6181529436      -61.4566955311  TIP3      10665           0.0000000000
     54246     10857  TIP3      H1             28.0678947942      -35.1722556826      -62.2576179756  TIP3      10665           0.0000000000
     54247     10857  TIP3      H2             27.5917746769      -33.8717351157      -61.5584380681  TIP3      10665           0.0000000000
     54248     10858  TIP3      OH2            27.6394066297      -17.7738709084      -78.3079808832  TIP3      10666           0.0000000000
     54249     10858  TIP3      H1             28.6131488255      -17.6566789010      -78.1971751226  TIP3      10666           0.0000000000
     54250     10858  TIP3      H2             27.4751153742      -17.1079897516      -78.9737470952  TIP3      10666           0.0000000000
     54251     10859  TIP3      OH2            21.2248082653      -23.1613145303      -78.7961190183  TIP3      10667           0.0000000000
     54252     10859  TIP3      H1             22.1819719814      -23.0487931344      -78.5866120131  TIP3      10667           0.0000000000
     54253     10859  TIP3      H2             21.2802072345      -23.7461523068      -79.5603590608  TIP3      10667           0.0000000000
     54254     10860  TIP3      OH2            19.9929590828      -17.7988805930      -73.8253684683  TIP3      10668           0.0000000000
     54255     10860  TIP3      H1             19.2737573718      -18.2831450724      -74.2877683689  TIP3      10668           0.0000000000
     54256     10860  TIP3      H2             20.2726794440      -18.4528184968      -73.1599775025  TIP3      10668           0.0000000000
     54257     10861  TIP3      OH2            20.8182341880      -19.6599476079      -71.9460691038  TIP3      10669           0.0000000000
     54258     10861  TIP3      H1             20.4634973693      -20.5389374928      -71.7481646635  TIP3      10669           0.0000000000
     54259     10861  TIP3      H2             21.0577341358      -19.3356996429      -71.0620075317  TIP3      10669           0.0000000000
     54260     10862  TIP3      OH2            36.2827309369      -21.6036385366      -66.7727371264  TIP3      10670           0.0000000000
     54261     10862  TIP3      H1             35.6202557740      -21.1736778058      -66.2128958716  TIP3      10670           0.0000000000
     54262     10862  TIP3      H2             35.7542273650      -21.9719220280      -67.5046264766  TIP3      10670           0.0000000000
     54263     10863  TIP3      OH2            35.3616130742      -28.5889407243      -73.4272211653  TIP3      10671           0.0000000000
     54264     10863  TIP3      H1             35.6174918483      -29.5182743398      -73.3926641156  TIP3      10671           0.0000000000
     54265     10863  TIP3      H2             35.4809126568      -28.3469952094      -72.4856019871  TIP3      10671           0.0000000000
     54266     10864  TIP3      OH2            20.8743329551      -26.5831174568      -69.4537606596  TIP3      10672           0.0000000000
     54267     10864  TIP3      H1             21.0506574415      -26.6643942560      -70.4166843955  TIP3      10672           0.0000000000
     54268     10864  TIP3      H2             21.7678698849      -26.7621491659      -69.1018551065  TIP3      10672           0.0000000000
     54269     10865  TIP3      OH2            35.5074057284      -31.1486342908      -75.2152220549  TIP3      10673           0.0000000000
     54270     10865  TIP3      H1             35.7945249980      -31.9891399556      -74.8163882718  TIP3      10673           0.0000000000
     54271     10865  TIP3      H2             36.3406931985      -30.7966730331      -75.5505326600  TIP3      10673           0.0000000000
     54272     10866  TIP3      OH2           -37.0691420384      -31.3659764015      -69.6403388948  TIP3      10674           0.0000000000
     54273     10866  TIP3      H1            -36.1720740453      -31.0334369141      -69.7556747093  TIP3      10674           0.0000000000
     54274     10866  TIP3      H2            -37.2701753731      -30.7553783884      -68.9145296047  TIP3      10674           0.0000000000
     54275     10867  TIP3      OH2            36.2573241975      -29.7636499738      -66.5805853270  TIP3      10675           0.0000000000
     54276     10867  TIP3      H1             35.3229680157      -29.4951098150      -66.4879093028  TIP3      10675           0.0000000000
     54277     10867  TIP3      H2             36.6188055459      -29.0759837308      -67.1696324727  TIP3      10675           0.0000000000
     54278     10868  TIP3      OH2            20.4840095347      -31.2640919876      -63.2944711716  TIP3      10676           0.0000000000
     54279     10868  TIP3      H1             21.4209570954      -31.4867526368      -63.1242450207  TIP3      10676           0.0000000000
     54280     10868  TIP3      H2             20.0421049062      -32.1030817807      -63.0455844564  TIP3      10676           0.0000000000
     54281     10869  TIP3      OH2            35.2971444960      -34.1405503188      -74.3360768268  TIP3      10677           0.0000000000
     54282     10869  TIP3      H1             36.2411418517      -34.2537427519      -74.1532245298  TIP3      10677           0.0000000000
     54283     10869  TIP3      H2             35.3011787392      -34.5359097403      -75.2385415016  TIP3      10677           0.0000000000
     54284     10870  TIP3      OH2            21.6595358092      -32.9394893743      -70.4931395389  TIP3      10678           0.0000000000
     54285     10870  TIP3      H1             22.0933619725      -33.7842273452      -70.2155266068  TIP3      10678           0.0000000000
     54286     10870  TIP3      H2             22.2361465092      -32.2920395139      -70.0686370384  TIP3      10678           0.0000000000
     54287     10871  TIP3      OH2            19.9740183379      -29.9925521184      -69.4163978583  TIP3      10679           0.0000000000
     54288     10871  TIP3      H1             20.5387500220      -30.2445600307      -70.1756406285  TIP3      10679           0.0000000000
     54289     10871  TIP3      H2             20.4420293115      -29.1887745333      -69.1470883878  TIP3      10679           0.0000000000
     54290     10872  TIP3      OH2            20.2589324320      -33.8664345788      -75.3992948122  TIP3      10680           0.0000000000
     54291     10872  TIP3      H1             19.3897111402      -33.4443097707      -75.4846578303  TIP3      10680           0.0000000000
     54292     10872  TIP3      H2             20.7638114672      -33.2894352211      -76.0222990843  TIP3      10680           0.0000000000
     54293     10873  TIP3      OH2            34.8958119035      -18.9715829025      -73.3039961410  TIP3      10681           0.0000000000
     54294     10873  TIP3      H1             35.5676777290      -19.3014620353      -73.9185884632  TIP3      10681           0.0000000000
     54295     10873  TIP3      H2             35.4171857477      -18.3956397216      -72.7177201796  TIP3      10681           0.0000000000
     54296     10874  TIP3      OH2            20.2927454749      -34.9978816474      -67.0358259077  TIP3      10682           0.0000000000
     54297     10874  TIP3      H1             19.6188098113      -35.2407418840      -66.3810104849  TIP3      10682           0.0000000000
     54298     10874  TIP3      H2             19.8113040147      -34.4008907278      -67.6312028652  TIP3      10682           0.0000000000
     54299     10875  TIP3      OH2            22.5288159451      -21.8883120430      -62.8850028067  TIP3      10683           0.0000000000
     54300     10875  TIP3      H1             21.6915126769      -21.6612547219      -63.3236007477  TIP3      10683           0.0000000000
     54301     10875  TIP3      H2             22.2590508830      -21.9562539154      -61.9657201130  TIP3      10683           0.0000000000
     54302     10876  TIP3      OH2            25.4288948970      -20.8731780741      -66.6055546415  TIP3      10684           0.0000000000
     54303     10876  TIP3      H1             25.0985781246      -20.0049243315      -66.8791617942  TIP3      10684           0.0000000000
     54304     10876  TIP3      H2             26.3539244397      -20.7887766357      -66.9113365945  TIP3      10684           0.0000000000
     54305     10877  TIP3      OH2            29.7496149923      -19.4500957242      -63.7055028233  TIP3      10685           0.0000000000
     54306     10877  TIP3      H1             29.8858035688      -19.8032204058      -62.7955857949  TIP3      10685           0.0000000000
     54307     10877  TIP3      H2             30.6519410997      -19.1430268833      -63.9478191124  TIP3      10685           0.0000000000
     54308     10878  TIP3      OH2            32.0573010771      -18.1848291062      -64.3837185633  TIP3      10686           0.0000000000
     54309     10878  TIP3      H1             32.7984118964      -18.7582218525      -64.6250366312  TIP3      10686           0.0000000000
     54310     10878  TIP3      H2             32.4379137117      -17.7320845129      -63.6014917877  TIP3      10686           0.0000000000
     54311     10879  TIP3      OH2            22.8511800978      -17.6395846933      -66.6139417306  TIP3      10687           0.0000000000
     54312     10879  TIP3      H1             22.1205113142      -17.1370242297      -67.0088002498  TIP3      10687           0.0000000000
     54313     10879  TIP3      H2             22.5413572227      -17.8284061985      -65.7164654838  TIP3      10687           0.0000000000
     54314     10880  TIP3      OH2            25.3195653088      -18.0612945954      -67.5379284189  TIP3      10688           0.0000000000
     54315     10880  TIP3      H1             24.4273800125      -17.9096802705      -67.1457521472  TIP3      10688           0.0000000000
     54316     10880  TIP3      H2             25.2651324702      -17.4711871822      -68.3120497309  TIP3      10688           0.0000000000
     54317     10881  TIP3      OH2            29.9911136333      -18.1611393876      -68.3683608145  TIP3      10689           0.0000000000
     54318     10881  TIP3      H1             29.5575883056      -17.5898559479      -69.0207903868  TIP3      10689           0.0000000000
     54319     10881  TIP3      H2             30.1553190451      -17.5250484222      -67.6391502537  TIP3      10689           0.0000000000
     54320     10882  TIP3      OH2            32.3100280755      -19.3453737214      -67.3422269899  TIP3      10690           0.0000000000
     54321     10882  TIP3      H1             31.4555052284      -19.0701720874      -67.7082914991  TIP3      10690           0.0000000000
     54322     10882  TIP3      H2             32.7722983989      -18.4885048578      -67.4097953747  TIP3      10690           0.0000000000
     54323     10883  TIP3      OH2            34.7640899720      -17.7734121897      -67.1275742253  TIP3      10691           0.0000000000
     54324     10883  TIP3      H1             34.7563885974      -16.8219735376      -67.3406473101  TIP3      10691           0.0000000000
     54325     10883  TIP3      H2             35.1035040357      -18.1409124107      -67.9642248080  TIP3      10691           0.0000000000
     54326     10884  TIP3      OH2            22.3127383599      -18.9889213955      -69.6697016496  TIP3      10692           0.0000000000
     54327     10884  TIP3      H1             22.2299877446      -19.4472981874      -68.8068853169  TIP3      10692           0.0000000000
     54328     10884  TIP3      H2             23.1273422136      -19.3687656466      -70.0569596907  TIP3      10692           0.0000000000
     54329     10885  TIP3      OH2            24.3854694206      -20.2778281033      -71.0170754550  TIP3      10693           0.0000000000
     54330     10885  TIP3      H1             24.2229560946      -21.2112289929      -70.7821383573  TIP3      10693           0.0000000000
     54331     10885  TIP3      H2             25.2419343539      -20.1213990508      -70.5636322859  TIP3      10693           0.0000000000
     54332     10886  TIP3      OH2            26.9621273642      -19.7914206803      -70.1393464164  TIP3      10694           0.0000000000
     54333     10886  TIP3      H1             27.1428550823      -20.7108076524      -70.4023493398  TIP3      10694           0.0000000000
     54334     10886  TIP3      H2             27.0337555863      -19.8448116252      -69.1743846987  TIP3      10694           0.0000000000
     54335     10887  TIP3      OH2            30.3060405107      -34.0756996846      -71.0057358723  TIP3      10695           0.0000000000
     54336     10887  TIP3      H1             29.7242671007      -34.8041586007      -70.7339976064  TIP3      10695           0.0000000000
     54337     10887  TIP3      H2             30.9952524882      -34.5583363643      -71.5066037100  TIP3      10695           0.0000000000
     54338     10888  TIP3      OH2            35.5856161906      -36.0479225135      -70.8577481738  TIP3      10696           0.0000000000
     54339     10888  TIP3      H1             36.1781751026      -35.5055845912      -71.3709279248  TIP3      10696           0.0000000000
     54340     10888  TIP3      H2             34.7152882567      -35.7313776483      -71.1047859196  TIP3      10696           0.0000000000
     54341     10889  TIP3      OH2            22.7833500410      -35.4949239052      -73.1051125306  TIP3      10697           0.0000000000
     54342     10889  TIP3      H1             22.0351658396      -35.7358385521      -73.6580973425  TIP3      10697           0.0000000000
     54343     10889  TIP3      H2             23.2854533090      -36.3302518769      -73.0780575841  TIP3      10697           0.0000000000
     54344     10890  TIP3      OH2            21.5646470852      -35.7700519242      -77.4140485168  TIP3      10698           0.0000000000
     54345     10890  TIP3      H1             22.0702993647      -35.1471408634      -77.9692585982  TIP3      10698           0.0000000000
     54346     10890  TIP3      H2             21.0203138514      -35.1624418464      -76.9093022425  TIP3      10698           0.0000000000
     54347     10891  TIP3      OH2            27.3486191064      -35.6602518618      -73.3789530728  TIP3      10699           0.0000000000
     54348     10891  TIP3      H1             28.2012000166      -35.1947007511      -73.4121666040  TIP3      10699           0.0000000000
     54349     10891  TIP3      H2             27.2463545874      -35.8164760037      -72.4337618585  TIP3      10699           0.0000000000
     54350     10892  TIP3      OH2            32.6948515635      -35.2121410271      -71.5972467230  TIP3      10700           0.0000000000
     54351     10892  TIP3      H1             32.8883979534      -35.2282276848      -72.5373181776  TIP3      10700           0.0000000000
     54352     10892  TIP3      H2             32.6298781548      -36.1900293839      -71.4671536999  TIP3      10700           0.0000000000
     54353     10893  TIP3      OH2            34.2389327334      -35.5904136532      -76.1744187573  TIP3      10701           0.0000000000
     54354     10893  TIP3      H1             33.5083485885      -34.9578424696      -76.2614119113  TIP3      10701           0.0000000000
     54355     10893  TIP3      H2             33.8141227965      -36.4195673983      -75.9224693590  TIP3      10701           0.0000000000
     54356     10894  TIP3      OH2            21.5117464661      -19.8069977354      -76.4286929476  TIP3      10702           0.0000000000
     54357     10894  TIP3      H1             20.8274944473      -19.8118564085      -77.1287572964  TIP3      10702           0.0000000000
     54358     10894  TIP3      H2             21.5203884573      -18.8584360059      -76.2500479020  TIP3      10702           0.0000000000
     54359     10895  TIP3      OH2            23.4005426614      -33.9707411021      -78.8720800752  TIP3      10703           0.0000000000
     54360     10895  TIP3      H1             23.9721426216      -34.4483634714      -79.4680594044  TIP3      10703           0.0000000000
     54361     10895  TIP3      H2             24.0394017933      -33.5137121387      -78.2958706900  TIP3      10703           0.0000000000
     54362     10896  TIP3      OH2            28.3555288154      -33.6038262351      -76.4629293268  TIP3      10704           0.0000000000
     54363     10896  TIP3      H1             28.7387995859      -34.1365303084      -75.7418282448  TIP3      10704           0.0000000000
     54364     10896  TIP3      H2             28.5082503305      -32.7187973553      -76.0526098401  TIP3      10704           0.0000000000
     54365     10897  TIP3      OH2            30.3301497218      -18.1880117680      -78.0383383376  TIP3      10705           0.0000000000
     54366     10897  TIP3      H1             31.2995110705      -18.2126295064      -78.1897803794  TIP3      10705           0.0000000000
     54367     10897  TIP3      H2             30.1682810418      -18.9164473995      -78.6799317475  TIP3      10705           0.0000000000
     54368     10898  TIP3      OH2            22.6000994708      -35.0063266403      -63.8092718928  TIP3      10706           0.0000000000
     54369     10898  TIP3      H1             22.2635658708      -35.7393227140      -63.2898584447  TIP3      10706           0.0000000000
     54370     10898  TIP3      H2             23.5008694867      -34.9823845820      -63.4012245937  TIP3      10706           0.0000000000
     54371     10899  TIP3      OH2            24.4478190950      -35.3767575179      -62.1633858006  TIP3      10707           0.0000000000
     54372     10899  TIP3      H1             25.3872546542      -35.5770022499      -62.2918296423  TIP3      10707           0.0000000000
     54373     10899  TIP3      H2             24.2746981814      -36.2331829721      -61.7219121064  TIP3      10707           0.0000000000
     54374     10900  TIP3      OH2            23.3644020859      -18.8322052463      -79.4677869841  TIP3      10708           0.0000000000
     54375     10900  TIP3      H1             23.0339538654      -18.5618074241      -78.5995925479  TIP3      10708           0.0000000000
     54376     10900  TIP3      H2             24.0986518313      -19.4048161786      -79.2594433421  TIP3      10708           0.0000000000
     54377     10901  TIP3      OH2            33.0947919639       37.0778039332      -61.8995207753  TIP3      10709           0.0000000000
     54378     10901  TIP3      H1             33.1084876235       36.4583535604      -61.1566289119  TIP3      10709           0.0000000000
     54379     10901  TIP3      H2             33.9008054196       36.8344870010      -62.3631555715  TIP3      10709           0.0000000000
     54380     10902  TIP3      OH2            36.0981634912      -20.3756900701      -63.1400721726  TIP3      10710           0.0000000000
     54381     10902  TIP3      H1             35.4516078465      -20.4335959933      -63.8748228750  TIP3      10710           0.0000000000
     54382     10902  TIP3      H2             36.1217077205      -19.3937785305      -63.0571217012  TIP3      10710           0.0000000000
     54383     10903  TIP3      OH2           -24.6642301017       -7.5155234889      -73.2950693264  TIP3      10711           0.0000000000
     54384     10903  TIP3      H1            -24.6780780043       -6.5366564198      -73.3363403325  TIP3      10711           0.0000000000
     54385     10903  TIP3      H2            -25.3924501563       -7.7528896922      -73.8943051931  TIP3      10711           0.0000000000
     54386     10904  TIP3      OH2           -25.8202155355       -8.2691012435      -69.7999539402  TIP3      10712           0.0000000000
     54387     10904  TIP3      H1            -25.8231209340       -8.9158560381      -69.0791784947  TIP3      10712           0.0000000000
     54388     10904  TIP3      H2            -26.1604564243       -8.7786168546      -70.5514401524  TIP3      10712           0.0000000000
     54389     10905  TIP3      OH2           -33.4046547731       -8.6069923924      -68.2815220157  TIP3      10713           0.0000000000
     54390     10905  TIP3      H1            -33.3486653091       -9.2752949593      -67.5672408831  TIP3      10713           0.0000000000
     54391     10905  TIP3      H2            -32.7069212067       -7.9965659147      -68.0042796338  TIP3      10713           0.0000000000
     54392     10906  TIP3      OH2           -22.1252037890       -5.3166986657      -71.5117242595  TIP3      10714           0.0000000000
     54393     10906  TIP3      H1            -22.5385834653       -6.0341594555      -71.0212800251  TIP3      10714           0.0000000000
     54394     10906  TIP3      H2            -22.0999992296       -4.6096566833      -70.8404321529  TIP3      10714           0.0000000000
     54395     10907  TIP3      OH2           -32.5364595563       -4.1584492383      -69.7260214102  TIP3      10715           0.0000000000
     54396     10907  TIP3      H1            -32.8492475030       -5.0166250353      -70.0707998321  TIP3      10715           0.0000000000
     54397     10907  TIP3      H2            -31.5785092627       -4.3286643811      -69.7035691575  TIP3      10715           0.0000000000
     54398     10908  TIP3      OH2           -35.5416852453      -10.5054743428      -74.7253503028  TIP3      10716           0.0000000000
     54399     10908  TIP3      H1            -36.0544911383       -9.7732449017      -74.3002602564  TIP3      10716           0.0000000000
     54400     10908  TIP3      H2            -36.3096700021      -11.1205782319      -74.6528206056  TIP3      10716           0.0000000000
     54401     10909  TIP3      OH2           -35.1021121802       -8.3333295953      -72.0465983383  TIP3      10717           0.0000000000
     54402     10909  TIP3      H1            -34.9458667325       -9.2042058604      -71.6565268147  TIP3      10717           0.0000000000
     54403     10909  TIP3      H2            -34.4965233906       -8.2902938567      -72.7911676290  TIP3      10717           0.0000000000
     54404     10910  TIP3      OH2           -25.0080952428       -0.1592493151      -71.2741548619  TIP3      10718           0.0000000000
     54405     10910  TIP3      H1            -24.3575145566       -0.8479369840      -71.5602966874  TIP3      10718           0.0000000000
     54406     10910  TIP3      H2            -25.2218573924       -0.4961364808      -70.4037362748  TIP3      10718           0.0000000000
     54407     10911  TIP3      OH2           -27.4369462295       -5.8676608402      -69.3206387218  TIP3      10719           0.0000000000
     54408     10911  TIP3      H1            -27.0980584168       -6.4942982117      -69.9809056772  TIP3      10719           0.0000000000
     54409     10911  TIP3      H2            -26.6248839635       -5.7093765658      -68.8075481684  TIP3      10719           0.0000000000
     54410     10912  TIP3      OH2           -18.8423084143      -14.2026292350      -68.6008650571  TIP3      10720           0.0000000000
     54411     10912  TIP3      H1            -18.6628374982      -13.6183509071      -67.8329339460  TIP3      10720           0.0000000000
     54412     10912  TIP3      H2            -18.2709180689      -13.7843171719      -69.2606243376  TIP3      10720           0.0000000000
     54413     10913  TIP3      OH2           -24.2691485235      -11.3981307525      -69.0084328911  TIP3      10721           0.0000000000
     54414     10913  TIP3      H1            -24.1003421797      -12.3569413824      -69.0040653610  TIP3      10721           0.0000000000
     54415     10913  TIP3      H2            -24.3708162199      -11.2581548865      -69.9698335257  TIP3      10721           0.0000000000
     54416     10914  TIP3      OH2           -31.1525842060      -13.3347058853      -71.7708735704  TIP3      10722           0.0000000000
     54417     10914  TIP3      H1            -31.0211988598      -12.4864502147      -72.2407835243  TIP3      10722           0.0000000000
     54418     10914  TIP3      H2            -31.5350291750      -13.8849729467      -72.4725835403  TIP3      10722           0.0000000000
     54419     10915  TIP3      OH2           -23.4153520269      -13.2311248310      -73.4283471881  TIP3      10723           0.0000000000
     54420     10915  TIP3      H1            -22.7654312048      -13.5416272808      -72.7557876833  TIP3      10723           0.0000000000
     54421     10915  TIP3      H2            -22.8513915495      -12.6562584549      -73.9719674223  TIP3      10723           0.0000000000
     54422     10916  TIP3      OH2           -34.5222916584      -10.9670793955      -71.1021851640  TIP3      10724           0.0000000000
     54423     10916  TIP3      H1            -33.8121064618      -11.4639468801      -70.6524480158  TIP3      10724           0.0000000000
     54424     10916  TIP3      H2            -34.3928046957      -11.2433061561      -72.0212900385  TIP3      10724           0.0000000000
     54425     10917  TIP3      OH2           -29.3800683788       -9.3449277642      -71.7425112802  TIP3      10725           0.0000000000
     54426     10917  TIP3      H1            -28.7031219937       -9.9222810346      -71.3479348534  TIP3      10725           0.0000000000
     54427     10917  TIP3      H2            -29.8883471732      -10.0019738002      -72.2544953258  TIP3      10725           0.0000000000
     54428     10918  TIP3      OH2           -18.3989487151      -12.8045619838      -66.3214663741  TIP3      10726           0.0000000000
     54429     10918  TIP3      H1            -19.0039217952      -12.0354241383      -66.4340555409  TIP3      10726           0.0000000000
     54430     10918  TIP3      H2            -18.3656771708      -12.8804674525      -65.3612823103  TIP3      10726           0.0000000000
     54431     10919  TIP3      OH2           -32.1832003110      -14.4265215866      -67.7280044956  TIP3      10727           0.0000000000
     54432     10919  TIP3      H1            -32.4939277777      -13.8625469604      -68.4810017731  TIP3      10727           0.0000000000
     54433     10919  TIP3      H2            -32.9075126803      -14.1735709459      -67.0891734357  TIP3      10727           0.0000000000
     54434     10920  TIP3      OH2           -24.9633365611       -4.9361619743      -74.2100597522  TIP3      10728           0.0000000000
     54435     10920  TIP3      H1            -25.2309201516       -5.1994687780      -75.1048957826  TIP3      10728           0.0000000000
     54436     10920  TIP3      H2            -25.2628073557       -4.0013688813      -74.1596988155  TIP3      10728           0.0000000000
     54437     10921  TIP3      OH2           -29.7069614049       -6.7662011283      -67.5164926127  TIP3      10729           0.0000000000
     54438     10921  TIP3      H1            -30.4248190215       -6.1308202320      -67.2979925182  TIP3      10729           0.0000000000
     54439     10921  TIP3      H2            -29.0134044652       -6.1622115255      -67.8192157663  TIP3      10729           0.0000000000
     54440     10922  TIP3      OH2           -21.6047002458      -13.8818477749      -71.4306760967  TIP3      10730           0.0000000000
     54441     10922  TIP3      H1            -21.8253234269      -14.6513223838      -70.8985322948  TIP3      10730           0.0000000000
     54442     10922  TIP3      H2            -20.9341698035      -13.4467381229      -70.8768319525  TIP3      10730           0.0000000000
     54443     10923  TIP3      OH2           -32.6900696235      -12.5801004670      -69.7101621750  TIP3      10731           0.0000000000
     54444     10923  TIP3      H1            -32.0919571076      -11.8587319760      -69.3984958923  TIP3      10731           0.0000000000
     54445     10923  TIP3      H2            -32.1543412308      -12.9490819943      -70.4609833685  TIP3      10731           0.0000000000
     54446     10924  TIP3      OH2           -31.2921474516       -4.7814218256      -66.7069495840  TIP3      10732           0.0000000000
     54447     10924  TIP3      H1            -31.3363041074       -3.8598261232      -67.0344724389  TIP3      10732           0.0000000000
     54448     10924  TIP3      H2            -32.1778255978       -4.8520708117      -66.2761245905  TIP3      10732           0.0000000000
     54449     10925  TIP3      OH2           -35.2376381540       -5.1116172891      -75.9303728718  TIP3      10733           0.0000000000
     54450     10925  TIP3      H1            -35.4184466667       -4.7863958708      -76.8311326303  TIP3      10733           0.0000000000
     54451     10925  TIP3      H2            -35.1286640673       -4.2995537366      -75.3961611160  TIP3      10733           0.0000000000
     54452     10926  TIP3      OH2           -21.5970225827       -3.4792367328      -69.1424319820  TIP3      10734           0.0000000000
     54453     10926  TIP3      H1            -22.5652388534       -3.3678010137      -69.0238056420  TIP3      10734           0.0000000000
     54454     10926  TIP3      H2            -21.3270119469       -2.5640458534      -69.3464584331  TIP3      10734           0.0000000000
     54455     10927  TIP3      OH2           -21.2732052038      -15.1977223896      -67.7550384180  TIP3      10735           0.0000000000
     54456     10927  TIP3      H1            -21.9965367757      -14.5638467294      -67.8471078306  TIP3      10735           0.0000000000
     54457     10927  TIP3      H2            -20.5585883727      -14.7789323921      -68.2774972092  TIP3      10735           0.0000000000
     54458     10928  TIP3      OH2           -28.3015124719      -17.0630806332      -70.2751073944  TIP3      10736           0.0000000000
     54459     10928  TIP3      H1            -28.4139257958      -18.0308810731      -70.3818186945  TIP3      10736           0.0000000000
     54460     10928  TIP3      H2            -29.1949565072      -16.7771788213      -70.0161724667  TIP3      10736           0.0000000000
     54461     10929  TIP3      OH2           -23.3359393272       -1.6966350462      -72.5563049896  TIP3      10737           0.0000000000
     54462     10929  TIP3      H1            -22.9084444493       -2.4163040407      -73.0643607796  TIP3      10737           0.0000000000
     54463     10929  TIP3      H2            -22.8955759833       -0.9082266372      -72.9385706680  TIP3      10737           0.0000000000
     54464     10930  TIP3      OH2           -22.1229601462       -3.7706818570      -74.0436614930  TIP3      10738           0.0000000000
     54465     10930  TIP3      H1            -22.4180265440       -4.4612404631      -74.6625122307  TIP3      10738           0.0000000000
     54466     10930  TIP3      H2            -22.0933034747       -4.2647015651      -73.2033663970  TIP3      10738           0.0000000000
     54467     10931  TIP3      OH2           -20.5087799317       -5.1711773660      -65.5435429592  TIP3      10739           0.0000000000
     54468     10931  TIP3      H1            -20.3611444172       -5.8268726837      -66.2610628508  TIP3      10739           0.0000000000
     54469     10931  TIP3      H2            -20.3009773218       -4.3303738395      -65.9893042384  TIP3      10739           0.0000000000
     54470     10932  TIP3      OH2           -26.0188766058       -8.2791682258      -75.8049976434  TIP3      10740           0.0000000000
     54471     10932  TIP3      H1            -26.7049191769       -7.6917235475      -76.1807273702  TIP3      10740           0.0000000000
     54472     10932  TIP3      H2            -25.3079107564       -8.2030154397      -76.4666790166  TIP3      10740           0.0000000000
     54473     10933  TIP3      OH2           -26.0051384733       -9.7894262092      -78.6643736502  TIP3      10741           0.0000000000
     54474     10933  TIP3      H1            -25.2217764332       -9.7219466386      -78.1003672365  TIP3      10741           0.0000000000
     54475     10933  TIP3      H2            -25.6610192404      -10.3810143623      -79.3346232688  TIP3      10741           0.0000000000
     54476     10934  TIP3      OH2           -18.6200446507       -8.8610806145      -67.4999340859  TIP3      10742           0.0000000000
     54477     10934  TIP3      H1            -19.2774621045       -8.1377726096      -67.4611049826  TIP3      10742           0.0000000000
     54478     10934  TIP3      H2            -18.1251774733       -8.6279375569      -68.3061399729  TIP3      10742           0.0000000000
     54479     10935  TIP3      OH2           -22.5662237180       -8.0698411562      -74.8366500949  TIP3      10743           0.0000000000
     54480     10935  TIP3      H1            -23.3117045070       -7.8289597477      -74.2361737069  TIP3      10743           0.0000000000
     54481     10935  TIP3      H2            -22.0896723474       -8.7472278586      -74.3219972527  TIP3      10743           0.0000000000
     54482     10936  TIP3      OH2           -22.6325980790       -9.9092521892      -65.7330191715  TIP3      10744           0.0000000000
     54483     10936  TIP3      H1            -22.6248008444       -9.0891098976      -65.2114548582  TIP3      10744           0.0000000000
     54484     10936  TIP3      H2            -23.2615113398       -9.6171131624      -66.4252506072  TIP3      10744           0.0000000000
     54485     10937  TIP3      OH2           -30.9330271845       -7.4098145107      -72.9348167464  TIP3      10745           0.0000000000
     54486     10937  TIP3      H1            -31.2834667172       -7.8067117380      -73.7681640534  TIP3      10745           0.0000000000
     54487     10937  TIP3      H2            -30.3260879905       -8.1096174601      -72.6065740916  TIP3      10745           0.0000000000
     54488     10938  TIP3      OH2           -29.6292708752       -4.0344272391      -70.2652274198  TIP3      10746           0.0000000000
     54489     10938  TIP3      H1            -29.6323429563       -4.5578605427      -71.0748965800  TIP3      10746           0.0000000000
     54490     10938  TIP3      H2            -28.8468840083       -4.3877163204      -69.8035443591  TIP3      10746           0.0000000000
     54491     10939  TIP3      OH2           -30.5827983332       -8.6921985317      -69.2728510175  TIP3      10747           0.0000000000
     54492     10939  TIP3      H1            -30.0607815166       -8.5632317398      -70.0877217057  TIP3      10747           0.0000000000
     54493     10939  TIP3      H2            -30.2444174038       -7.9863473589      -68.6774328315  TIP3      10747           0.0000000000
     54494     10940  TIP3      OH2           -24.2100244452       -3.0944925858      -68.5757215546  TIP3      10748           0.0000000000
     54495     10940  TIP3      H1            -24.4926003549       -2.4579570244      -67.9128420004  TIP3      10748           0.0000000000
     54496     10940  TIP3      H2            -24.4638280869       -3.9483356300      -68.1511728749  TIP3      10748           0.0000000000
     54497     10941  TIP3      OH2           -29.6524936064       -4.2141821017      -64.6119555128  TIP3      10749           0.0000000000
     54498     10941  TIP3      H1            -30.0847121770       -3.5163476163      -64.0777613954  TIP3      10749           0.0000000000
     54499     10941  TIP3      H2            -30.3484322941       -4.4413757729      -65.2727440833  TIP3      10749           0.0000000000
     54500     10942  TIP3      OH2           -23.6775907965       -8.8933663226      -77.1759360118  TIP3      10750           0.0000000000
     54501     10942  TIP3      H1            -23.1373879584       -8.6897649066      -76.3738096780  TIP3      10750           0.0000000000
     54502     10942  TIP3      H2            -23.2669673703       -8.3365780385      -77.8673068344  TIP3      10750           0.0000000000
     54503     10943  TIP3      OH2           -32.7381396756       -8.0696525826      -65.4004579888  TIP3      10751           0.0000000000
     54504     10943  TIP3      H1            -32.6875822427       -7.3919988100      -64.7007056217  TIP3      10751           0.0000000000
     54505     10943  TIP3      H2            -33.6741927008       -7.9727930069      -65.6421959887  TIP3      10751           0.0000000000
     54506     10944  TIP3      OH2           -25.9803655110       -2.1555524176      -73.7100087432  TIP3      10752           0.0000000000
     54507     10944  TIP3      H1            -25.5424591640       -1.8392693126      -72.9123488221  TIP3      10752           0.0000000000
     54508     10944  TIP3      H2            -26.5278238177       -1.4050914990      -73.9718263348  TIP3      10752           0.0000000000
     54509     10945  TIP3      OH2           -31.4233852556       -2.1812000243      -63.8518942731  TIP3      10753           0.0000000000
     54510     10945  TIP3      H1            -31.4988929455       -2.2869528666      -64.8182302485  TIP3      10753           0.0000000000
     54511     10945  TIP3      H2            -32.3439945446       -2.3591350407      -63.5680969529  TIP3      10753           0.0000000000
     54512     10946  TIP3      OH2           -19.9539755333      -17.1266907320      -77.2792933339  TIP3      10754           0.0000000000
     54513     10946  TIP3      H1            -20.9138210514      -17.0357724435      -77.0814193408  TIP3      10754           0.0000000000
     54514     10946  TIP3      H2            -19.7640900662      -16.2844810220      -77.7274217208  TIP3      10754           0.0000000000
     54515     10947  TIP3      OH2           -31.9219354955       -8.3917423412      -75.3501272139  TIP3      10755           0.0000000000
     54516     10947  TIP3      H1            -32.2556781728       -7.6195264151      -75.8511222565  TIP3      10755           0.0000000000
     54517     10947  TIP3      H2            -32.6028680049       -9.0489783586      -75.5420451281  TIP3      10755           0.0000000000
     54518     10948  TIP3      OH2           -18.8857887534       -2.7992009496      -78.9087438486  TIP3      10756           0.0000000000
     54519     10948  TIP3      H1            -18.7418614822       -1.8424995084      -78.8072557115  TIP3      10756           0.0000000000
     54520     10948  TIP3      H2            -17.9593113058       -3.0902076608      -78.9910799610  TIP3      10756           0.0000000000
     54521     10949  TIP3      OH2           -35.2950023975       -6.0943792105      -66.6823284148  TIP3      10757           0.0000000000
     54522     10949  TIP3      H1            -36.0670714927       -5.9696959168      -67.2761060787  TIP3      10757           0.0000000000
     54523     10949  TIP3      H2            -35.6677594622       -6.8795779749      -66.2207085101  TIP3      10757           0.0000000000
     54524     10950  TIP3      OH2           -35.8265622117       -2.9861367582      -69.9333361580  TIP3      10758           0.0000000000
     54525     10950  TIP3      H1            -35.0070158803       -3.3960152978      -69.6434741920  TIP3      10758           0.0000000000
     54526     10950  TIP3      H2            -36.1159218237       -2.5270049300      -69.1325845059  TIP3      10758           0.0000000000
     54527     10951  TIP3      OH2           -17.8909856881       -2.5243927478      -63.9599349431  TIP3      10759           0.0000000000
     54528     10951  TIP3      H1            -18.0100364113       -3.4842582192      -63.9890091844  TIP3      10759           0.0000000000
     54529     10951  TIP3      H2            -18.7649438162       -2.2756244893      -63.5758518353  TIP3      10759           0.0000000000
     54530     10952  TIP3      OH2           -26.9280185980       -2.9648800914      -65.1242401355  TIP3      10760           0.0000000000
     54531     10952  TIP3      H1            -26.8788411345       -2.1457645318      -64.5811071794  TIP3      10760           0.0000000000
     54532     10952  TIP3      H2            -27.7908782773       -3.3436481269      -64.8624523880  TIP3      10760           0.0000000000
     54533     10953  TIP3      OH2           -26.5168030383        0.7540629311      -75.3216494263  TIP3      10761           0.0000000000
     54534     10953  TIP3      H1            -26.5843695707        0.7094110571      -76.2933100763  TIP3      10761           0.0000000000
     54535     10953  TIP3      H2            -26.4618670143        1.7133725407      -75.1413175502  TIP3      10761           0.0000000000
     54536     10954  TIP3      OH2           -32.8641852643       -0.3590570667      -73.4916645600  TIP3      10762           0.0000000000
     54537     10954  TIP3      H1            -32.7231845669       -0.7687906761      -72.6098532790  TIP3      10762           0.0000000000
     54538     10954  TIP3      H2            -33.6944358107       -0.7927719841      -73.7350443390  TIP3      10762           0.0000000000
     54539     10955  TIP3      OH2           -23.4943395331       -0.0445897649      -78.3364338877  TIP3      10763           0.0000000000
     54540     10955  TIP3      H1            -22.9915500904       -0.7743984533      -78.7695236842  TIP3      10763           0.0000000000
     54541     10955  TIP3      H2            -23.3922129992       -0.2801425193      -77.3957186766  TIP3      10763           0.0000000000
     54542     10956  TIP3      OH2           -23.7515081554       -0.0919316404      -75.5380777425  TIP3      10764           0.0000000000
     54543     10956  TIP3      H1            -24.7081842228       -0.0247298712      -75.3577119802  TIP3      10764           0.0000000000
     54544     10956  TIP3      H2            -23.5029446223       -0.8322432899      -74.9637049909  TIP3      10764           0.0000000000
     54545     10957  TIP3      OH2           -20.7446550085      -11.0563964564      -63.4927561156  TIP3      10765           0.0000000000
     54546     10957  TIP3      H1            -21.2203262564      -10.6053218577      -64.2092624442  TIP3      10765           0.0000000000
     54547     10957  TIP3      H2            -20.7594881360      -11.9757522171      -63.7979666406  TIP3      10765           0.0000000000
     54548     10958  TIP3      OH2           -33.5787577859       -4.5616614154      -65.4316342458  TIP3      10766           0.0000000000
     54549     10958  TIP3      H1            -33.3998971728       -5.0104392158      -64.5710756186  TIP3      10766           0.0000000000
     54550     10958  TIP3      H2            -34.4121707201       -5.0104411516      -65.7023951194  TIP3      10766           0.0000000000
     54551     10959  TIP3      OH2           -30.9314390760      -16.1610960051      -69.4461717563  TIP3      10767           0.0000000000
     54552     10959  TIP3      H1            -31.7863616761      -16.2923982007      -69.9297406936  TIP3      10767           0.0000000000
     54553     10959  TIP3      H2            -31.0647562225      -15.2552067057      -69.1427617716  TIP3      10767           0.0000000000
     54554     10960  TIP3      OH2           -26.2518502455      -16.4901515627      -66.1702832024  TIP3      10768           0.0000000000
     54555     10960  TIP3      H1            -25.8482904318      -16.9328824314      -65.3966723412  TIP3      10768           0.0000000000
     54556     10960  TIP3      H2            -27.2073766000      -16.6516362042      -66.0182787259  TIP3      10768           0.0000000000
     54557     10961  TIP3      OH2           -22.9935000586      -12.6595259184      -65.2759976984  TIP3      10769           0.0000000000
     54558     10961  TIP3      H1            -23.5579891018      -12.8742853021      -64.4941743214  TIP3      10769           0.0000000000
     54559     10961  TIP3      H2            -23.1773903832      -11.7319295789      -65.5033917752  TIP3      10769           0.0000000000
     54560     10962  TIP3      OH2           -22.1488181280       -7.7529133971      -79.3132424911  TIP3      10770           0.0000000000
     54561     10962  TIP3      H1            -22.1597784137       -7.9686568339      -80.2645615103  TIP3      10770           0.0000000000
     54562     10962  TIP3      H2            -21.2552569015       -7.3634198403      -79.2420740604  TIP3      10770           0.0000000000
     54563     10963  TIP3      OH2           -26.6551272219      -13.9223905122      -78.8410124450  TIP3      10771           0.0000000000
     54564     10963  TIP3      H1            -26.9642538623      -13.9741467654      -77.9204167549  TIP3      10771           0.0000000000
     54565     10963  TIP3      H2            -26.8789033417      -14.8136717397      -79.1302237847  TIP3      10771           0.0000000000
     54566     10964  TIP3      OH2           -30.8419151183      -11.2173757765      -68.2760870961  TIP3      10772           0.0000000000
     54567     10964  TIP3      H1            -31.5782486836      -11.1807831448      -67.6377277953  TIP3      10772           0.0000000000
     54568     10964  TIP3      H2            -30.8466090831      -10.3070762894      -68.6550675530  TIP3      10772           0.0000000000
     54569     10965  TIP3      OH2           -30.8473100529      -11.1057700559      -73.4129541832  TIP3      10773           0.0000000000
     54570     10965  TIP3      H1            -31.7977346759      -11.3108233340      -73.5626827879  TIP3      10773           0.0000000000
     54571     10965  TIP3      H2            -30.4649599731      -11.3612654674      -74.2745414036  TIP3      10773           0.0000000000
     54572     10966  TIP3      OH2           -25.3352004435      -10.5864263261      -74.6890716183  TIP3      10774           0.0000000000
     54573     10966  TIP3      H1            -25.7429797120       -9.7520958079      -75.0098283266  TIP3      10774           0.0000000000
     54574     10966  TIP3      H2            -24.6419344728      -10.7366690623      -75.3585168915  TIP3      10774           0.0000000000
     54575     10967  TIP3      OH2           -26.2957180157      -10.3620951471      -63.2081403175  TIP3      10775           0.0000000000
     54576     10967  TIP3      H1            -26.8145271936      -11.1441494076      -62.9028718733  TIP3      10775           0.0000000000
     54577     10967  TIP3      H2            -25.4534108018      -10.4875713756      -62.7391373924  TIP3      10775           0.0000000000
     54578     10968  TIP3      OH2           -24.3054127648      -11.0904250418      -71.8012826586  TIP3      10776           0.0000000000
     54579     10968  TIP3      H1            -24.5895288300      -10.5271723423      -72.5416692693  TIP3      10776           0.0000000000
     54580     10968  TIP3      H2            -24.2121221643      -11.9390506843      -72.2738101934  TIP3      10776           0.0000000000
     54581     10969  TIP3      OH2           -33.1485565484      -10.9887211244      -66.5989262582  TIP3      10777           0.0000000000
     54582     10969  TIP3      H1            -33.1655674654      -10.5387610081      -65.7377491162  TIP3      10777           0.0000000000
     54583     10969  TIP3      H2            -33.6940932537      -11.7638310875      -66.4089986450  TIP3      10777           0.0000000000
     54584     10970  TIP3      OH2           -29.6104118107      -13.3005452075      -79.3929310201  TIP3      10778           0.0000000000
     54585     10970  TIP3      H1            -30.1647368530      -13.9175540382      -78.8968972981  TIP3      10778           0.0000000000
     54586     10970  TIP3      H2            -30.1704677550      -12.8863915353      -80.0616157468  TIP3      10778           0.0000000000
     54587     10971  TIP3      OH2           -36.1351474888      -13.5515563424      -72.7460535457  TIP3      10779           0.0000000000
     54588     10971  TIP3      H1            -35.8169274605      -13.9045882659      -71.9031876894  TIP3      10779           0.0000000000
     54589     10971  TIP3      H2            -36.0545339070      -14.2616733257      -73.3719825912  TIP3      10779           0.0000000000
     54590     10972  TIP3      OH2           -35.2199757356      -12.9876810967      -77.2798930635  TIP3      10780           0.0000000000
     54591     10972  TIP3      H1            -34.7534716587      -12.3980668773      -77.9020271097  TIP3      10780           0.0000000000
     54592     10972  TIP3      H2            -35.9937577277      -12.4845210419      -77.0360061663  TIP3      10780           0.0000000000
     54593     10973  TIP3      OH2           -25.1131696201       -9.5068458091      -67.2526251285  TIP3      10781           0.0000000000
     54594     10973  TIP3      H1            -24.7296039205      -10.1927442653      -67.8359931415  TIP3      10781           0.0000000000
     54595     10973  TIP3      H2            -25.5777642615      -10.0336937848      -66.5784652229  TIP3      10781           0.0000000000
     54596     10974  TIP3      OH2           -28.3022461849      -13.5232541100      -72.4144143338  TIP3      10782           0.0000000000
     54597     10974  TIP3      H1            -29.2332979065      -13.5201220803      -72.1171434049  TIP3      10782           0.0000000000
     54598     10974  TIP3      H2            -27.8199389467      -13.6977917590      -71.5928134396  TIP3      10782           0.0000000000
     54599     10975  TIP3      OH2           -33.4341770065      -11.9807111338      -73.5730411743  TIP3      10783           0.0000000000
     54600     10975  TIP3      H1            -34.3372128503      -11.7950496241      -73.9107866130  TIP3      10783           0.0000000000
     54601     10975  TIP3      H2            -33.2382532618      -12.8473537626      -73.9590781820  TIP3      10783           0.0000000000
     54602     10976  TIP3      OH2           -29.8597197257      -11.9426211465      -75.9352302483  TIP3      10784           0.0000000000
     54603     10976  TIP3      H1            -28.9082680823      -11.8123099980      -75.7389585570  TIP3      10784           0.0000000000
     54604     10976  TIP3      H2            -30.0967443778      -11.2503233561      -76.5840274066  TIP3      10784           0.0000000000
     54605     10977  TIP3      OH2           -23.9088418122      -14.2895601023      -69.1744905892  TIP3      10785           0.0000000000
     54606     10977  TIP3      H1            -24.5924618055      -14.2434468034      -68.4703560402  TIP3      10785           0.0000000000
     54607     10977  TIP3      H2            -24.4087993161      -14.5454848782      -69.9626036508  TIP3      10785           0.0000000000
     54608     10978  TIP3      OH2           -31.1230805659      -10.8141276406      -78.3301342329  TIP3      10786           0.0000000000
     54609     10978  TIP3      H1            -31.7150993692      -11.0712885933      -79.0483136044  TIP3      10786           0.0000000000
     54610     10978  TIP3      H2            -30.3280923904      -10.5336328265      -78.8129693991  TIP3      10786           0.0000000000
     54611     10979  TIP3      OH2           -20.7028030886        1.3478525232      -62.8493337690  TIP3      10787           0.0000000000
     54612     10979  TIP3      H1            -20.4362138887        1.7317577562      -63.7036668296  TIP3      10787           0.0000000000
     54613     10979  TIP3      H2            -19.9790132168        1.6682935196      -62.2901440631  TIP3      10787           0.0000000000
     54614     10980  TIP3      OH2           -33.0761070657       -6.1122226192      -63.3450471471  TIP3      10788           0.0000000000
     54615     10980  TIP3      H1            -32.3519812973       -5.9981186875      -62.6923589773  TIP3      10788           0.0000000000
     54616     10980  TIP3      H2            -33.7732346124       -6.1029063834      -62.6571611094  TIP3      10788           0.0000000000
     54617     10981  TIP3      OH2           -27.0356640628      -10.7775483015      -70.5210546001  TIP3      10789           0.0000000000
     54618     10981  TIP3      H1            -26.4274703369      -11.3037694436      -71.0546194111  TIP3      10789           0.0000000000
     54619     10981  TIP3      H2            -27.1714779619      -11.3250334956      -69.7396309352  TIP3      10789           0.0000000000
     54620     10982  TIP3      OH2           -32.0864521831      -14.6564877251      -74.2383840723  TIP3      10790           0.0000000000
     54621     10982  TIP3      H1            -32.2968107297      -15.5774661126      -73.9885553249  TIP3      10790           0.0000000000
     54622     10982  TIP3      H2            -31.1653617011      -14.7118697407      -74.5499480414  TIP3      10790           0.0000000000
     54623     10983  TIP3      OH2           -28.4053941734      -12.4550753365      -68.0903509143  TIP3      10791           0.0000000000
     54624     10983  TIP3      H1            -29.2041550590      -11.8935261393      -68.0303696424  TIP3      10791           0.0000000000
     54625     10983  TIP3      H2            -27.8213844481      -12.0735245375      -67.4016115378  TIP3      10791           0.0000000000
     54626     10984  TIP3      OH2           -27.7922815157       -6.2412502051      -76.3824154790  TIP3      10792           0.0000000000
     54627     10984  TIP3      H1            -28.5949216140       -6.6900608183      -76.7251879355  TIP3      10792           0.0000000000
     54628     10984  TIP3      H2            -28.0193813490       -6.1065951391      -75.4425753944  TIP3      10792           0.0000000000
     54629     10985  TIP3      OH2           -20.6100414780       -7.0187406722      -67.6076911471  TIP3      10793           0.0000000000
     54630     10985  TIP3      H1            -20.0483030683       -6.5350181580      -68.2402468250  TIP3      10793           0.0000000000
     54631     10985  TIP3      H2            -21.4709924040       -6.9740448685      -68.0706682098  TIP3      10793           0.0000000000
     54632     10986  TIP3      OH2           -23.9393410715      -13.3824606568      -78.2246298525  TIP3      10794           0.0000000000
     54633     10986  TIP3      H1            -24.8851343168      -13.2539266048      -78.4071464243  TIP3      10794           0.0000000000
     54634     10986  TIP3      H2            -23.6332414507      -12.5316955460      -77.8652258186  TIP3      10794           0.0000000000
     54635     10987  TIP3      OH2           -26.2841411680       -5.9473220618      -65.1713614470  TIP3      10795           0.0000000000
     54636     10987  TIP3      H1            -26.6537210535       -6.3810632359      -64.3874542002  TIP3      10795           0.0000000000
     54637     10987  TIP3      H2            -26.5756137027       -5.0384884350      -65.0493122609  TIP3      10795           0.0000000000
     54638     10988  TIP3      OH2           -23.2356146495      -11.4733035769      -76.5615397053  TIP3      10796           0.0000000000
     54639     10988  TIP3      H1            -22.3309344725      -11.6280870196      -76.2241108836  TIP3      10796           0.0000000000
     54640     10988  TIP3      H2            -23.1459821240      -10.6664305298      -77.0925793914  TIP3      10796           0.0000000000
     54641     10989  TIP3      OH2           -32.6670681655       -6.8109536131      -70.6069923509  TIP3      10797           0.0000000000
     54642     10989  TIP3      H1            -32.0173849022       -6.9089397042      -71.3204583944  TIP3      10797           0.0000000000
     54643     10989  TIP3      H2            -32.6155195559       -7.6703770497      -70.1575162436  TIP3      10797           0.0000000000
     54644     10990  TIP3      OH2           -25.7016507500       -4.7636728586      -77.3512282825  TIP3      10798           0.0000000000
     54645     10990  TIP3      H1            -26.0665585499       -3.9177841462      -77.0158880999  TIP3      10798           0.0000000000
     54646     10990  TIP3      H2            -26.4383076580       -5.3891790767      -77.1682873383  TIP3      10798           0.0000000000
     54647     10991  TIP3      OH2           -35.7260169028       -8.4571430277      -65.3409087297  TIP3      10799           0.0000000000
     54648     10991  TIP3      H1            -35.4623673404       -8.8767955413      -64.4947520002  TIP3      10799           0.0000000000
     54649     10991  TIP3      H2            -36.3187179051       -9.0940536209      -65.7608402331  TIP3      10799           0.0000000000
     54650     10992  TIP3      OH2           -28.6954912529       -8.8802517614      -63.1717027691  TIP3      10800           0.0000000000
     54651     10992  TIP3      H1            -29.0117367149       -9.1686676976      -64.0352491421  TIP3      10800           0.0000000000
     54652     10992  TIP3      H2            -27.7640071557       -9.1803489607      -63.1735197324  TIP3      10800           0.0000000000
     54653     10993  TIP3      OH2           -23.9980163649       -3.5255285901      -65.2174921561  TIP3      10801           0.0000000000
     54654     10993  TIP3      H1            -24.9246375031       -3.3515000984      -65.4513396476  TIP3      10801           0.0000000000
     54655     10993  TIP3      H2            -24.0337168102       -3.2358034065      -64.2860912925  TIP3      10801           0.0000000000
     54656     10994  TIP3      OH2           -18.3341718107      -11.3534188934      -76.7982329985  TIP3      10802           0.0000000000
     54657     10994  TIP3      H1            -18.9126057977      -11.6618696308      -77.5107508213  TIP3      10802           0.0000000000
     54658     10994  TIP3      H2            -18.2433013117      -10.4193889509      -77.0847000748  TIP3      10802           0.0000000000
     54659     10995  TIP3      OH2           -18.3446918151       -5.4856354021      -64.0254442528  TIP3      10803           0.0000000000
     54660     10995  TIP3      H1            -19.2375760099       -5.2654308177      -64.3899309733  TIP3      10803           0.0000000000
     54661     10995  TIP3      H2            -17.7994625436       -5.5380222789      -64.8371321638  TIP3      10803           0.0000000000
     54662     10996  TIP3      OH2           -20.0626816469       -2.5151738764      -76.4697972477  TIP3      10804           0.0000000000
     54663     10996  TIP3      H1            -20.4083415750       -3.3445557355      -76.1131196410  TIP3      10804           0.0000000000
     54664     10996  TIP3      H2            -19.7399244534       -2.7342195111      -77.3643181705  TIP3      10804           0.0000000000
     54665     10997  TIP3      OH2           -22.8332696427       -7.7038487964      -69.3268371228  TIP3      10805           0.0000000000
     54666     10997  TIP3      H1            -23.7736966676       -7.9098950152      -69.4417083660  TIP3      10805           0.0000000000
     54667     10997  TIP3      H2            -22.4029007367       -8.4630691010      -69.7630536160  TIP3      10805           0.0000000000
     54668     10998  TIP3      OH2           -30.3307850225       -3.3694295238      -73.2105571040  TIP3      10806           0.0000000000
     54669     10998  TIP3      H1            -29.8216747914       -2.5714461806      -73.4290388525  TIP3      10806           0.0000000000
     54670     10998  TIP3      H2            -31.2078282994       -3.1386367722      -73.5468962552  TIP3      10806           0.0000000000
     54671     10999  TIP3      OH2           -34.6025115836       -8.5585663299      -78.6389822783  TIP3      10807           0.0000000000
     54672     10999  TIP3      H1            -33.9526244004       -7.9195220845      -78.2806757172  TIP3      10807           0.0000000000
     54673     10999  TIP3      H2            -35.4427427274       -8.2023361932      -78.3314074004  TIP3      10807           0.0000000000
     54674     11000  TIP3      OH2           -28.8964448374       -5.7098767179      -73.7023614007  TIP3      10808           0.0000000000
     54675     11000  TIP3      H1            -29.2153845943       -4.7891696532      -73.6253441923  TIP3      10808           0.0000000000
     54676     11000  TIP3      H2            -29.6184080613       -6.2016150281      -73.2618700473  TIP3      10808           0.0000000000
     54677     11001  TIP3      OH2           -28.4392144376       -1.5272168860      -67.3013503092  TIP3      10809           0.0000000000
     54678     11001  TIP3      H1            -27.9916441271       -0.7156026981      -67.5836415443  TIP3      10809           0.0000000000
     54679     11001  TIP3      H2            -27.8290885788       -1.8647529943      -66.6203631182  TIP3      10809           0.0000000000
     54680     11002  TIP3      OH2           -30.2205471346       -0.7108786694      -74.1919604262  TIP3      10810           0.0000000000
     54681     11002  TIP3      H1            -31.1854352015       -0.5750969857      -74.0399384899  TIP3      10810           0.0000000000
     54682     11002  TIP3      H2            -29.8619485571        0.1192807413      -73.8283665141  TIP3      10810           0.0000000000
     54683     11003  TIP3      OH2           -24.9298967995       -5.5293417071      -67.6841427516  TIP3      10811           0.0000000000
     54684     11003  TIP3      H1            -25.2513998362       -5.7175867089      -66.7736130097  TIP3      10811           0.0000000000
     54685     11003  TIP3      H2            -24.2869993568       -6.2364524048      -67.8463361045  TIP3      10811           0.0000000000
     54686     11004  TIP3      OH2           -22.6214372488       -4.4745939883      -78.5393676015  TIP3      10812           0.0000000000
     54687     11004  TIP3      H1            -22.3224896993       -4.9558325934      -77.7447583594  TIP3      10812           0.0000000000
     54688     11004  TIP3      H2            -23.5772029968       -4.6414831665      -78.4865080693  TIP3      10812           0.0000000000
     54689     11005  TIP3      OH2           -22.1068441785       -0.9437256936      -65.1923840016  TIP3      10813           0.0000000000
     54690     11005  TIP3      H1            -22.8002999034       -1.4370088090      -65.6703108504  TIP3      10813           0.0000000000
     54691     11005  TIP3      H2            -21.9254973337       -0.2430267797      -65.8536095256  TIP3      10813           0.0000000000
     54692     11006  TIP3      OH2           -18.1325011904       -0.0688307491      -78.2870761821  TIP3      10814           0.0000000000
     54693     11006  TIP3      H1            -17.4386627291        0.5557449031      -78.5673651689  TIP3      10814           0.0000000000
     54694     11006  TIP3      H2            -18.8615152122        0.5467563483      -78.0621333025  TIP3      10814           0.0000000000
     54695     11007  TIP3      OH2           -34.0161779046      -13.7258354875      -65.8407028999  TIP3      10815           0.0000000000
     54696     11007  TIP3      H1            -34.8948123392      -13.3067079863      -65.7542024211  TIP3      10815           0.0000000000
     54697     11007  TIP3      H2            -34.1930758746      -14.5443232743      -65.3514875181  TIP3      10815           0.0000000000
     54698     11008  TIP3      OH2           -21.8050329400       -5.8347456634      -76.3332196215  TIP3      10816           0.0000000000
     54699     11008  TIP3      H1            -22.0493537230       -6.6323992972      -75.8180647077  TIP3      10816           0.0000000000
     54700     11008  TIP3      H2            -20.8590839126       -5.7643603687      -76.1348019234  TIP3      10816           0.0000000000
     54701     11009  TIP3      OH2           -34.2668280941       -1.8539662454      -67.4195345170  TIP3      10817           0.0000000000
     54702     11009  TIP3      H1            -34.1483360465       -2.8126849077      -67.3610378720  TIP3      10817           0.0000000000
     54703     11009  TIP3      H2            -34.1822362461       -1.6216422593      -66.4889665521  TIP3      10817           0.0000000000
     54704     11010  TIP3      OH2           -29.6956026905       -3.8163722315      -77.6676295156  TIP3      10818           0.0000000000
     54705     11010  TIP3      H1            -29.4326461210       -4.3777463268      -76.9227281348  TIP3      10818           0.0000000000
     54706     11010  TIP3      H2            -29.5969776615       -2.9025284869      -77.3235407693  TIP3      10818           0.0000000000
     54707     11011  TIP3      OH2           -33.2119135789       -6.6053569509      -77.1234523081  TIP3      10819           0.0000000000
     54708     11011  TIP3      H1            -33.9132954970       -6.2029606560      -76.5638621135  TIP3      10819           0.0000000000
     54709     11011  TIP3      H2            -32.6760452306       -5.8384241918      -77.3989131675  TIP3      10819           0.0000000000
     54710     11012  TIP3      OH2           -25.3327829973      -13.9129392364      -66.8316123324  TIP3      10820           0.0000000000
     54711     11012  TIP3      H1            -24.6078598066      -13.8501056430      -66.2023344070  TIP3      10820           0.0000000000
     54712     11012  TIP3      H2            -25.6799794961      -14.8052356916      -66.6304934176  TIP3      10820           0.0000000000
     54713     11013  TIP3      OH2           -24.5876253510      -14.3199619272      -75.7468744341  TIP3      10821           0.0000000000
     54714     11013  TIP3      H1            -24.3185228075      -13.8705773275      -76.5710260036  TIP3      10821           0.0000000000
     54715     11013  TIP3      H2            -23.9923229057      -13.9097347329      -75.1069426937  TIP3      10821           0.0000000000
     54716     11014  TIP3      OH2           -26.8969413583       -2.1705918687      -76.9505221289  TIP3      10822           0.0000000000
     54717     11014  TIP3      H1            -27.7111396694       -1.6499713029      -76.8506376888  TIP3      10822           0.0000000000
     54718     11014  TIP3      H2            -26.3437536050       -1.6482413379      -77.5552498119  TIP3      10822           0.0000000000
     54719     11015  TIP3      OH2           -27.3480449366      -12.6053389183      -74.9406754021  TIP3      10823           0.0000000000
     54720     11015  TIP3      H1            -26.5686493084      -12.0148067477      -74.9106341444  TIP3      10823           0.0000000000
     54721     11015  TIP3      H2            -27.6162514607      -12.7242006401      -74.0114403390  TIP3      10823           0.0000000000
     54722     11016  TIP3      OH2           -26.7971429196      -11.5782861055      -65.7321099362  TIP3      10824           0.0000000000
     54723     11016  TIP3      H1            -26.7180647238      -11.0112266171      -64.9430220322  TIP3      10824           0.0000000000
     54724     11016  TIP3      H2            -26.1219325645      -12.2631334500      -65.6434716518  TIP3      10824           0.0000000000
     54725     11017  TIP3      OH2           -26.4912600302      -15.5395933098      -74.0616636313  TIP3      10825           0.0000000000
     54726     11017  TIP3      H1            -26.8198789096      -14.8856459523      -73.4210787838  TIP3      10825           0.0000000000
     54727     11017  TIP3      H2            -25.7959003906      -14.9909692828      -74.5016163956  TIP3      10825           0.0000000000
     54728     11018  TIP3      OH2           -29.5262190084       -1.1407184192      -76.9028764792  TIP3      10826           0.0000000000
     54729     11018  TIP3      H1            -29.3455532706       -0.3138351238      -77.4038356517  TIP3      10826           0.0000000000
     54730     11018  TIP3      H2            -29.7625283988       -0.8001578066      -76.0165279830  TIP3      10826           0.0000000000
     54731     11019  TIP3      OH2           -30.8634429828      -14.4370935923      -77.2445390688  TIP3      10827           0.0000000000
     54732     11019  TIP3      H1            -30.8408715752      -13.4924514289      -76.9607593323  TIP3      10827           0.0000000000
     54733     11019  TIP3      H2            -29.9170964584      -14.6527920778      -77.0423056981  TIP3      10827           0.0000000000
     54734     11020  TIP3      OH2           -20.6115094050      -13.7015459912      -64.8953115283  TIP3      10828           0.0000000000
     54735     11020  TIP3      H1            -21.5387173578      -13.3853359551      -65.0241211603  TIP3      10828           0.0000000000
     54736     11020  TIP3      H2            -20.3094063513      -13.7152007016      -65.8189564303  TIP3      10828           0.0000000000
     54737     11021  TIP3      OH2           -21.9937342621       -9.9134021436      -70.8912946154  TIP3      10829           0.0000000000
     54738     11021  TIP3      H1            -22.8183003759      -10.3600417038      -71.1613857831  TIP3      10829           0.0000000000
     54739     11021  TIP3      H2            -21.5150575483      -10.6008857957      -70.3752008350  TIP3      10829           0.0000000000
     54740     11022  TIP3      OH2           -32.6102251198       -3.9611763800      -78.3140712322  TIP3      10830           0.0000000000
     54741     11022  TIP3      H1            -31.9431464608       -3.3562354515      -77.9678081928  TIP3      10830           0.0000000000
     54742     11022  TIP3      H2            -32.0771423890       -4.4410904369      -78.9818863613  TIP3      10830           0.0000000000
     54743     11023  TIP3      OH2           -34.2010056488      -11.3136401602      -79.0639566736  TIP3      10831           0.0000000000
     54744     11023  TIP3      H1            -34.2073151781      -10.3434887404      -78.9712464521  TIP3      10831           0.0000000000
     54745     11023  TIP3      H2            -35.0492822124      -11.5227473382      -79.4622487615  TIP3      10831           0.0000000000
     54746     11024  TIP3      OH2           -20.9334250429       -0.6517274108      -69.2158579777  TIP3      10832           0.0000000000
     54747     11024  TIP3      H1            -21.0218278368        0.0284588299      -69.9120721167  TIP3      10832           0.0000000000
     54748     11024  TIP3      H2            -19.9693285310       -0.6006187921      -69.0426672142  TIP3      10832           0.0000000000
     54749     11025  TIP3      OH2           -33.3959833975      -16.5582082156      -70.4140481723  TIP3      10833           0.0000000000
     54750     11025  TIP3      H1            -33.6369890768      -16.5115003105      -71.3643723470  TIP3      10833           0.0000000000
     54751     11025  TIP3      H2            -33.8719094637      -17.3788287951      -70.1673271676  TIP3      10833           0.0000000000
     54752     11026  TIP3      OH2           -34.4752733800       -2.6028774263      -74.2545325727  TIP3      10834           0.0000000000
     54753     11026  TIP3      H1            -35.3382679019       -2.1789895469      -74.3107897532  TIP3      10834           0.0000000000
     54754     11026  TIP3      H2            -33.9971923212       -2.1466974475      -74.9640120458  TIP3      10834           0.0000000000
     54755     11027  TIP3      OH2           -34.9803293066        0.0674936562      -62.9974551863  TIP3      10835           0.0000000000
     54756     11027  TIP3      H1            -34.5649372145       -0.1611135832      -62.1502767010  TIP3      10835           0.0000000000
     54757     11027  TIP3      H2            -35.4951520331       -0.7513304546      -63.1496757187  TIP3      10835           0.0000000000
     54758     11028  TIP3      OH2           -30.5824158260       -1.0383655680      -61.3811495058  TIP3      10836           0.0000000000
     54759     11028  TIP3      H1            -29.8526315681       -1.5711337687      -61.0401020026  TIP3      10836           0.0000000000
     54760     11028  TIP3      H2            -30.6236716542       -1.3235981628      -62.3148588954  TIP3      10836           0.0000000000
     54761     11029  TIP3      OH2           -26.0074109118       -1.4312499113      -79.3788772561  TIP3      10837           0.0000000000
     54762     11029  TIP3      H1            -26.8657378873       -1.8956413268      -79.4035315718  TIP3      10837           0.0000000000
     54763     11029  TIP3      H2            -25.5537126197       -1.9176481200      -80.0696496995  TIP3      10837           0.0000000000
     54764     11030  TIP3      OH2           -24.0972716619       -2.6565693503      -62.6233199946  TIP3      10838           0.0000000000
     54765     11030  TIP3      H1            -24.4120501390       -3.5444633022      -62.3488917459  TIP3      10838           0.0000000000
     54766     11030  TIP3      H2            -23.3268215025       -2.5382323922      -62.0326482334  TIP3      10838           0.0000000000
     54767     11031  TIP3      OH2           -21.8774535971       -1.7416827553      -79.7689789532  TIP3      10839           0.0000000000
     54768     11031  TIP3      H1            -21.6415506761       -2.5562727569      -79.2839400641  TIP3      10839           0.0000000000
     54769     11031  TIP3      H2            -21.0972764858       -1.5677798040      -80.3107998942  TIP3      10839           0.0000000000
     54770     11032  TIP3      OH2           -35.4577743935       -6.1704753244      -61.9989634527  TIP3      10840           0.0000000000
     54771     11032  TIP3      H1            -35.1635055478       -7.0533952716      -62.2932426493  TIP3      10840           0.0000000000
     54772     11032  TIP3      H2            -36.1430137226       -5.9156076609      -62.6116340191  TIP3      10840           0.0000000000
     54773     11033  TIP3      OH2           -30.9262928060       -5.7803601935      -79.8423480570  TIP3      10841           0.0000000000
     54774     11033  TIP3      H1            -30.8583794330       -6.6062408711      -79.3562818845  TIP3      10841           0.0000000000
     54775     11033  TIP3      H2            -30.3586226299       -6.0133367083      -80.6037894871  TIP3      10841           0.0000000000
     54776     11034  TIP3      OH2           -28.3580751657       -6.2488502950      -62.8281343208  TIP3      10842           0.0000000000
     54777     11034  TIP3      H1            -28.9997061011       -5.8977830261      -63.4709869258  TIP3      10842           0.0000000000
     54778     11034  TIP3      H2            -28.5923023149       -7.1990733426      -62.7160908834  TIP3      10842           0.0000000000
     54779     11035  TIP3      OH2           -22.9485212635       -6.3398745738      -65.2141021018  TIP3      10843           0.0000000000
     54780     11035  TIP3      H1            -22.1654603865       -5.7532700039      -65.2698823120  TIP3      10843           0.0000000000
     54781     11035  TIP3      H2            -23.6557196825       -5.6761112819      -65.1708792943  TIP3      10843           0.0000000000
     54782     11036  TIP3      OH2           -34.5703440171       -8.9907923972      -62.6401012102  TIP3      10844           0.0000000000
     54783     11036  TIP3      H1            -34.0123894577       -9.7867410449      -62.6827921781  TIP3      10844           0.0000000000
     54784     11036  TIP3      H2            -34.6540865588       -8.9122851494      -61.6768133774  TIP3      10844           0.0000000000
     54785     11037  TIP3      OH2           -29.8035471237       -7.7941024269      -77.5539638913  TIP3      10845           0.0000000000
     54786     11037  TIP3      H1            -30.3027307687       -8.3363969058      -76.9168045177  TIP3      10845           0.0000000000
     54787     11037  TIP3      H2            -29.4830953818       -8.4773312288      -78.1878367490  TIP3      10845           0.0000000000
     54788     11038  TIP3      OH2           -30.5468976926       -9.9944357103      -65.2259104933  TIP3      10846           0.0000000000
     54789     11038  TIP3      H1            -31.1554964887       -9.2799354739      -64.9813864266  TIP3      10846           0.0000000000
     54790     11038  TIP3      H2            -30.1572537721       -9.6483634943      -66.0497238518  TIP3      10846           0.0000000000
     54791     11039  TIP3      OH2           -28.7323776233       -9.6284391421      -79.3392043294  TIP3      10847           0.0000000000
     54792     11039  TIP3      H1            -28.8460755429       -9.7429578832      -80.2930127373  TIP3      10847           0.0000000000
     54793     11039  TIP3      H2            -27.7513325945       -9.5445985907      -79.2455581510  TIP3      10847           0.0000000000
     54794     11040  TIP3      OH2           -25.4714519432       -7.4527733237      -61.9137154925  TIP3      10848           0.0000000000
     54795     11040  TIP3      H1            -24.5156043078       -7.4597308789      -62.0347080954  TIP3      10848           0.0000000000
     54796     11040  TIP3      H2            -25.6475218531       -8.2156775360      -61.3419717892  TIP3      10848           0.0000000000
     54797     11041  TIP3      OH2           -19.6056143366       -7.1024156108       80.1805489234  TIP3      10849           0.0000000000
     54798     11041  TIP3      H1            -19.6565154850       -7.6250601782       79.3619090397  TIP3      10849           0.0000000000
     54799     11041  TIP3      H2            -19.3374086610       -6.2229681833       79.8910947136  TIP3      10849           0.0000000000
     54800     11042  TIP3      OH2           -30.1517097558      -12.6449455923      -64.1965952624  TIP3      10850           0.0000000000
     54801     11042  TIP3      H1            -30.0002270701      -13.3282440033      -64.8594073524  TIP3      10850           0.0000000000
     54802     11042  TIP3      H2            -30.2062440712      -11.8140097392      -64.7165626117  TIP3      10850           0.0000000000
     54803     11043  TIP3      OH2           -29.7276714173      -14.2144464510      -66.6767533361  TIP3      10851           0.0000000000
     54804     11043  TIP3      H1            -29.1656883792      -13.7242621029      -67.3382412335  TIP3      10851           0.0000000000
     54805     11043  TIP3      H2            -30.6014988757      -14.0672242361      -67.0968171247  TIP3      10851           0.0000000000
     54806     11044  TIP3      OH2           -28.2133993116       -8.7802196990      -66.3922683451  TIP3      10852           0.0000000000
     54807     11044  TIP3      H1            -27.4521236144       -8.9350971862      -66.9628020083  TIP3      10852           0.0000000000
     54808     11044  TIP3      H2            -28.5669484012       -7.9385501291      -66.7289609172  TIP3      10852           0.0000000000
     54809     11045  TIP3      OH2           -23.8073697063      -11.0171280082      -61.4348812847  TIP3      10853           0.0000000000
     54810     11045  TIP3      H1            -23.5718922326      -11.9517057282      -61.5258692986  TIP3      10853           0.0000000000
     54811     11045  TIP3      H2            -22.9433828618      -10.5731123593      -61.4018038209  TIP3      10853           0.0000000000
     54812     11046  TIP3      OH2           -22.4702234187       -8.2271641345      -63.2729651355  TIP3      10854           0.0000000000
     54813     11046  TIP3      H1            -22.7294609132       -7.5004340706      -63.8818797126  TIP3      10854           0.0000000000
     54814     11046  TIP3      H2            -21.5101014335       -8.2522343223      -63.4586492719  TIP3      10854           0.0000000000
     54815     11047  TIP3      OH2           -31.7072865482      -11.3768788185      -62.2374674480  TIP3      10855           0.0000000000
     54816     11047  TIP3      H1            -32.4681153804      -11.9550440154      -62.4518545070  TIP3      10855           0.0000000000
     54817     11047  TIP3      H2            -31.0438157023      -11.7173919992      -62.8587092356  TIP3      10855           0.0000000000
     54818     11048  TIP3      OH2           -28.8630940917      -16.8909955454      -66.1789290995  TIP3      10856           0.0000000000
     54819     11048  TIP3      H1            -28.8690723083      -15.9271587506      -66.3481945600  TIP3      10856           0.0000000000
     54820     11048  TIP3      H2            -29.4869291167      -17.3472018101      -66.7656332672  TIP3      10856           0.0000000000
     54821     11049  TIP3      OH2           -27.6692450596      -12.4935447311      -62.6158671381  TIP3      10857           0.0000000000
     54822     11049  TIP3      H1            -27.9959072772      -12.7214459897      -61.7225502962  TIP3      10857           0.0000000000
     54823     11049  TIP3      H2            -28.4593592158      -12.6762750468      -63.1509196605  TIP3      10857           0.0000000000
     54824     11050  TIP3      OH2           -24.9590136537      -13.3453589473      -63.5303775879  TIP3      10858           0.0000000000
     54825     11050  TIP3      H1            -25.9235976023      -13.2929428703      -63.4207837457  TIP3      10858           0.0000000000
     54826     11050  TIP3      H2            -24.6966888693      -13.9879344639      -62.8437615229  TIP3      10858           0.0000000000
     54827     11051  TIP3      OH2           -23.3777705753      -14.7292532929      -61.6323533842  TIP3      10859           0.0000000000
     54828     11051  TIP3      H1            -23.4274574671      -15.7067376847      -61.6023867417  TIP3      10859           0.0000000000
     54829     11051  TIP3      H2            -23.6277927832      -14.4362733028      -60.7339002962  TIP3      10859           0.0000000000
     54830     11052  TIP3      OH2           -33.4379655199      -13.4834363886      -62.4805021365  TIP3      10860           0.0000000000
     54831     11052  TIP3      H1            -33.3768543230      -14.2050596249      -63.1285789359  TIP3      10860           0.0000000000
     54832     11052  TIP3      H2            -33.6781567795      -13.9514024942      -61.6658741124  TIP3      10860           0.0000000000
     54833     11053  TIP3      OH2           -28.7547183466      -17.4328570991      -63.5528320018  TIP3      10861           0.0000000000
     54834     11053  TIP3      H1            -28.0648115061      -18.1335896971      -63.5282172375  TIP3      10861           0.0000000000
     54835     11053  TIP3      H2            -28.8020630607      -17.3051959988      -64.5142789396  TIP3      10861           0.0000000000
     54836     11054  TIP3      OH2           -28.3782999754      -15.8117167730      -61.4390835888  TIP3      10862           0.0000000000
     54837     11054  TIP3      H1            -28.5505083063      -16.3234409591      -62.2633863457  TIP3      10862           0.0000000000
     54838     11054  TIP3      H2            -28.9744267593      -15.0439589813      -61.5222151607  TIP3      10862           0.0000000000
     54839     11055  TIP3      OH2           -28.9258522862        1.0829811038      -78.3046513400  TIP3      10863           0.0000000000
     54840     11055  TIP3      H1            -27.9532692159        1.2005401155      -78.1966935339  TIP3      10863           0.0000000000
     54841     11055  TIP3      H2            -29.0921611553        1.7474253806      -78.9729155122  TIP3      10863           0.0000000000
     54842     11056  TIP3      OH2           -35.2794596893       -4.3480867176      -78.7706832397  TIP3      10864           0.0000000000
     54843     11056  TIP3      H1            -34.3264579504       -4.2018845266      -78.5793268570  TIP3      10864           0.0000000000
     54844     11056  TIP3      H2            -35.2724948075       -4.8908099733      -79.5623196714  TIP3      10864           0.0000000000
     54845     11057  TIP3      OH2            36.8542480053        1.2147173531      -74.0073967379  TIP3      10865           0.0000000000
     54846     11057  TIP3      H1             35.9430069428        1.0120051088      -74.3096998677  TIP3      10865           0.0000000000
     54847     11057  TIP3      H2             36.9387223351        0.5804461660      -73.2570440432  TIP3      10865           0.0000000000
     54848     11058  TIP3      OH2           -35.7215281506       -0.7669758756      -71.9977551565  TIP3      10866           0.0000000000
     54849     11058  TIP3      H1            -36.0846653135       -1.6524043208      -71.7674065376  TIP3      10866           0.0000000000
     54850     11058  TIP3      H2            -35.4798784617       -0.4868242885      -71.0959281950  TIP3      10866           0.0000000000
     54851     11059  TIP3      OH2           -18.2130720021       -0.0095428373      -69.0201941821  TIP3      10867           0.0000000000
     54852     11059  TIP3      H1            -18.1826407312        0.1508507481      -68.0610391190  TIP3      10867           0.0000000000
     54853     11059  TIP3      H2            -17.5094041738        0.5733537798      -69.3231737877  TIP3      10867           0.0000000000
     54854     11060  TIP3      OH2           -18.6411612942       -0.4139168290      -66.0728146514  TIP3      10868           0.0000000000
     54855     11060  TIP3      H1            -19.1112269519       -1.1843096072      -66.4556954937  TIP3      10868           0.0000000000
     54856     11060  TIP3      H2            -18.1533362136       -0.8612841744      -65.3615582433  TIP3      10868           0.0000000000
     54857     11061  TIP3      OH2           -20.1946687257       -4.6951678526      -61.4006452499  TIP3      10869           0.0000000000
     54858     11061  TIP3      H1            -21.1014295451       -4.7206419698      -61.0372383912  TIP3      10869           0.0000000000
     54859     11061  TIP3      H2            -19.8234659905       -3.8884334023      -60.9908973316  TIP3      10869           0.0000000000
     54860     11062  TIP3      OH2           -18.8638341325       -6.3679245443      -75.9780044712  TIP3      10870           0.0000000000
     54861     11062  TIP3      H1            -18.0147766021       -5.9581820217      -75.7587581576  TIP3      10870           0.0000000000
     54862     11062  TIP3      H2            -18.8996930805       -7.0738840900      -75.2954929968  TIP3      10870           0.0000000000
     54863     11063  TIP3      OH2           -18.5226646042       -8.2838078359      -74.0902717388  TIP3      10871           0.0000000000
     54864     11063  TIP3      H1            -19.2733426477       -8.7933256323      -73.7083956014  TIP3      10871           0.0000000000
     54865     11063  TIP3      H2            -17.9264835264       -8.1571005607      -73.3237162151  TIP3      10871           0.0000000000
     54866     11064  TIP3      OH2           -18.7630357415       -5.5923094349      -69.0988284080  TIP3      10872           0.0000000000
     54867     11064  TIP3      H1            -17.9498804437       -5.9699626635      -69.4786469658  TIP3      10872           0.0000000000
     54868     11064  TIP3      H2            -18.6170724879       -4.6389243065      -69.2710169870  TIP3      10872           0.0000000000
     54869     11065  TIP3      OH2           -20.2033379432       -2.6854181788      -66.8316186248  TIP3      10873           0.0000000000
     54870     11065  TIP3      H1            -20.8941181352       -2.3451913287      -66.2428847146  TIP3      10873           0.0000000000
     54871     11065  TIP3      H2            -20.7516174237       -3.0882019817      -67.5387780420  TIP3      10873           0.0000000000
     54872     11066  TIP3      OH2           -18.2074049626       -8.4446618647      -77.6885668061  TIP3      10874           0.0000000000
     54873     11066  TIP3      H1            -18.8123448116       -8.1063435113      -78.3731920151  TIP3      10874           0.0000000000
     54874     11066  TIP3      H2            -18.2987864706       -7.7453321082      -77.0155720451  TIP3      10874           0.0000000000
     54875     11067  TIP3      OH2           -20.2840394946      -11.2187115720      -79.0576870323  TIP3      10875           0.0000000000
     54876     11067  TIP3      H1            -19.8345849337      -10.6112995699      -79.6708829630  TIP3      10875           0.0000000000
     54877     11067  TIP3      H2            -20.0514772542      -12.0412867709      -79.5028472946  TIP3      10875           0.0000000000
     54878     11068  TIP3      OH2           -20.6954721066       -9.8141040548      -73.5130308304  TIP3      10876           0.0000000000
     54879     11068  TIP3      H1            -20.8495035156      -10.7689390292      -73.5593578684  TIP3      10876           0.0000000000
     54880     11068  TIP3      H2            -21.0276030299       -9.6016114080      -72.6216177554  TIP3      10876           0.0000000000
     54881     11069  TIP3      OH2           -35.6834665657       -7.7431233376      -69.5271515921  TIP3      10877           0.0000000000
     54882     11069  TIP3      H1            -35.4737094433       -7.7842403015      -70.4889825924  TIP3      10877           0.0000000000
     54883     11069  TIP3      H2            -34.7982460469       -7.8539952828      -69.1168938716  TIP3      10877           0.0000000000
     54884     11070  TIP3      OH2           -19.8389286492       -7.8468749517      -63.8245226521  TIP3      10878           0.0000000000
     54885     11070  TIP3      H1            -19.2287950189       -8.6038247931      -63.6927380007  TIP3      10878           0.0000000000
     54886     11070  TIP3      H2            -19.2345461678       -7.0740675253      -63.8225627384  TIP3      10878           0.0000000000
     54887     11071  TIP3      OH2           -18.3370024625       -9.9681564258      -63.1741935328  TIP3      10879           0.0000000000
     54888     11071  TIP3      H1            -19.2200393046      -10.3667176208      -63.3292471106  TIP3      10879           0.0000000000
     54889     11071  TIP3      H2            -17.7667934263      -10.7510061119      -63.2510025867  TIP3      10879           0.0000000000
     54890     11072  TIP3      OH2           -21.0426227172      -12.2304233642      -75.0500039910  TIP3      10880           0.0000000000
     54891     11072  TIP3      H1            -20.7394796168      -13.1626251932      -74.9443653309  TIP3      10880           0.0000000000
     54892     11072  TIP3      H2            -20.2525959816      -11.8266178338      -75.4303212606  TIP3      10880           0.0000000000
     54893     11073  TIP3      OH2           -20.3927349136      -11.6875555314      -69.6123464108  TIP3      10881           0.0000000000
     54894     11073  TIP3      H1            -19.4319728116      -11.4577336195      -69.6261540628  TIP3      10881           0.0000000000
     54895     11073  TIP3      H2            -20.5802699963      -11.5475097468      -68.6726899046  TIP3      10881           0.0000000000
     54896     11074  TIP3      OH2           -20.3247683966      -10.9678785118      -66.8257613490  TIP3      10882           0.0000000000
     54897     11074  TIP3      H1            -21.2099531714      -10.6781277298      -66.5159200085  TIP3      10882           0.0000000000
     54898     11074  TIP3      H2            -19.8925997481      -10.1084939599      -67.0538995527  TIP3      10882           0.0000000000
     54899     11075  TIP3      OH2           -35.8015370645      -12.5572017982      -63.3215768601  TIP3      10883           0.0000000000
     54900     11075  TIP3      H1            -34.9123774425      -12.7485733273      -63.0055641137  TIP3      10883           0.0000000000
     54901     11075  TIP3      H2            -36.3802808830      -13.2386793831      -62.8993851036  TIP3      10883           0.0000000000
     54902     11076  TIP3      OH2           -18.0545188370      -16.9011484626      -61.4936127313  TIP3      10884           0.0000000000
     54903     11076  TIP3      H1            -17.7021154801      -17.5626577469      -62.1139617766  TIP3      10884           0.0000000000
     54904     11076  TIP3      H2            -17.9523526837      -16.0868841770      -62.0257419786  TIP3      10884           0.0000000000
     54905     11077  TIP3      OH2           -20.3621254035      -14.9561659994      -75.0283062396  TIP3      10885           0.0000000000
     54906     11077  TIP3      H1            -20.1452447108      -15.3834770401      -74.1731053467  TIP3      10885           0.0000000000
     54907     11077  TIP3      H2            -20.9721941756      -15.5909681015      -75.4565264357  TIP3      10885           0.0000000000
     54908     11078  TIP3      OH2           -34.8229604090      -14.1925314360      -70.4873264990  TIP3      10886           0.0000000000
     54909     11078  TIP3      H1            -34.3636902060      -14.9781065572      -70.1551933818  TIP3      10886           0.0000000000
     54910     11078  TIP3      H2            -34.3513251866      -13.4518350945      -70.0753483721  TIP3      10886           0.0000000000
     54911     11079  TIP3      OH2           -36.0282234999      -10.3818692617      -69.0748882596  TIP3      10887           0.0000000000
     54912     11079  TIP3      H1            -35.9948418749      -10.8034671660      -69.9582903005  TIP3      10887           0.0000000000
     54913     11079  TIP3      H2            -35.9342636908       -9.4632255085      -69.3392048043  TIP3      10887           0.0000000000
     54914     11080  TIP3      OH2           -18.5347104274      -14.8032552303      -63.1385086776  TIP3      10888           0.0000000000
     54915     11080  TIP3      H1            -19.4719843377      -14.5323290716      -63.1928565992  TIP3      10888           0.0000000000
     54916     11080  TIP3      H2            -18.5005982764      -15.3549515853      -63.9347412633  TIP3      10888           0.0000000000
     54917     11081  TIP3      OH2           -18.5253220531      -14.8886183995      -78.4466324323  TIP3      10889           0.0000000000
     54918     11081  TIP3      H1            -18.1353808671      -15.5975090820      -78.9659550655  TIP3      10889           0.0000000000
     54919     11081  TIP3      H2            -17.8199413030      -14.2320074260      -78.4596522835  TIP3      10889           0.0000000000
     54920     11082  TIP3      OH2           -35.7063329042      -14.9083583323      -75.7379956895  TIP3      10890           0.0000000000
     54921     11082  TIP3      H1            -36.6701250397      -14.7781552020      -75.6341435406  TIP3      10890           0.0000000000
     54922     11082  TIP3      H2            -35.5769782514      -14.1355088001      -76.3282109728  TIP3      10890           0.0000000000
     54923     11083  TIP3      OH2           -21.4939599961        0.0689521103      -73.3847080037  TIP3      10891           0.0000000000
     54924     11083  TIP3      H1            -20.8103805648       -0.2298779289      -74.0110792214  TIP3      10891           0.0000000000
     54925     11083  TIP3      H2            -20.9769977594        0.5718887078      -72.7390792840  TIP3      10891           0.0000000000
     54926     11084  TIP3      OH2            37.0432001012      -16.2657844578      -66.8381035176  TIP3      10892           0.0000000000
     54927     11084  TIP3      H1             36.2512261420      -16.4664421770      -66.3100337588  TIP3      10892           0.0000000000
     54928     11084  TIP3      H2             36.5472552945      -15.7451364782      -67.5003236108  TIP3      10892           0.0000000000
     54929     11085  TIP3      OH2           -34.0732152603       -3.0100471089      -62.8680241554  TIP3      10893           0.0000000000
     54930     11085  TIP3      H1            -34.9223416307       -2.8412463405      -63.2879264785  TIP3      10893           0.0000000000
     54931     11085  TIP3      H2            -34.3139313929       -3.1223822168      -61.9485711031  TIP3      10893           0.0000000000
     54932     11086  TIP3      OH2           -31.1091206890       -1.9966165676      -66.5793649284  TIP3      10894           0.0000000000
     54933     11086  TIP3      H1            -31.5065294657       -1.1603459677      -66.8751665392  TIP3      10894           0.0000000000
     54934     11086  TIP3      H2            -30.1997749761       -1.9087350075      -66.9206270213  TIP3      10894           0.0000000000
     54935     11087  TIP3      OH2           -26.8219921157       -0.5907749949      -63.7029766093  TIP3      10895           0.0000000000
     54936     11087  TIP3      H1            -26.6845383676       -0.9502229922      -62.7955074585  TIP3      10895           0.0000000000
     54937     11087  TIP3      H2            -25.9181213150       -0.2918496418      -63.9451000990  TIP3      10895           0.0000000000
     54938     11088  TIP3      OH2           -24.5334902098        0.6729433599      -64.3912768226  TIP3      10896           0.0000000000
     54939     11088  TIP3      H1            -23.8008739295        0.0892726280      -64.6299401657  TIP3      10896           0.0000000000
     54940     11088  TIP3      H2            -24.1576991177        1.1115779406      -63.5975154464  TIP3      10896           0.0000000000
     54941     11089  TIP3      OH2           -19.5120230783      -16.7132321749      -65.2853631055  TIP3      10897           0.0000000000
     54942     11089  TIP3      H1            -20.3414680960      -16.4150803426      -65.6969865135  TIP3      10897           0.0000000000
     54943     11089  TIP3      H2            -19.3457295059      -17.5371268563      -65.8019796300  TIP3      10897           0.0000000000
     54944     11090  TIP3      OH2           -33.6846085207        1.2242262988      -66.5899994215  TIP3      10898           0.0000000000
     54945     11090  TIP3      H1            -34.4345095421        1.7126412018      -66.9843824585  TIP3      10898           0.0000000000
     54946     11090  TIP3      H2            -34.0319063683        1.0307174664      -65.7054271748  TIP3      10898           0.0000000000
     54947     11091  TIP3      OH2           -31.2351544750        0.8032347510      -67.5517951477  TIP3      10899           0.0000000000
     54948     11091  TIP3      H1            -32.1317464426        0.9331582401      -67.1567468786  TIP3      10899           0.0000000000
     54949     11091  TIP3      H2            -31.2906398711        1.3988281558      -68.3191495321  TIP3      10899           0.0000000000
     54950     11092  TIP3      OH2           -26.5396269615        0.7110487816      -68.3731983898  TIP3      10900           0.0000000000
     54951     11092  TIP3      H1            -27.0041028986        1.2668820638      -69.0161526360  TIP3      10900           0.0000000000
     54952     11092  TIP3      H2            -26.4090835423        1.3398470016      -67.6320950715  TIP3      10900           0.0000000000
     54953     11093  TIP3      OH2           -24.2542171311       -0.4840598032      -67.3370634832  TIP3      10901           0.0000000000
     54954     11093  TIP3      H1            -25.1068614300       -0.2060949538      -67.7095658823  TIP3      10901           0.0000000000
     54955     11093  TIP3      H2            -23.7676225785        0.3528772618      -67.4311226357  TIP3      10901           0.0000000000
     54956     11094  TIP3      OH2           -21.6710227453        1.0861064427      -67.1200764372  TIP3      10902           0.0000000000
     54957     11094  TIP3      H1            -21.7233567216        2.0471248315      -67.3475598926  TIP3      10902           0.0000000000
     54958     11094  TIP3      H2            -21.4536737494        0.7131532694      -67.9971012570  TIP3      10902           0.0000000000
     54959     11095  TIP3      OH2           -34.3105186333       -0.1299827071      -69.6782298517  TIP3      10903           0.0000000000
     54960     11095  TIP3      H1            -34.3141939625       -0.5793700974      -68.8077323621  TIP3      10903           0.0000000000
     54961     11095  TIP3      H2            -33.4937579742       -0.5051803406      -70.0664029468  TIP3      10903           0.0000000000
     54962     11096  TIP3      OH2           -32.2099955902       -1.4156500465      -71.0077057920  TIP3      10904           0.0000000000
     54963     11096  TIP3      H1            -32.3647429062       -2.3532106279      -70.7750961868  TIP3      10904           0.0000000000
     54964     11096  TIP3      H2            -31.3429393350       -1.2642345443      -70.5704223854  TIP3      10904           0.0000000000
     54965     11097  TIP3      OH2           -29.5940367764       -0.9424248779      -70.1331322595  TIP3      10905           0.0000000000
     54966     11097  TIP3      H1            -29.4213907600       -1.8637322005      -70.3985420918  TIP3      10905           0.0000000000
     54967     11097  TIP3      H2            -29.5268332942       -0.9928514375      -69.1684692799  TIP3      10905           0.0000000000
     54968     11098  TIP3      OH2           -26.1113764784      -15.2769746053      -71.0108532668  TIP3      10906           0.0000000000
     54969     11098  TIP3      H1            -26.7782777716      -15.9230603076      -70.7274061357  TIP3      10906           0.0000000000
     54970     11098  TIP3      H2            -25.5613488393      -15.8145863940      -71.5906273127  TIP3      10906           0.0000000000
     54971     11099  TIP3      OH2           -20.9877009547      -17.2366340675      -70.9418238370  TIP3      10907           0.0000000000
     54972     11099  TIP3      H1            -20.3756672877      -16.6451586608      -71.4462056712  TIP3      10907           0.0000000000
     54973     11099  TIP3      H2            -21.8703335633      -16.8760227037      -71.1690044504  TIP3      10907           0.0000000000
     54974     11100  TIP3      OH2           -19.3240720386      -15.9884819966      -72.6558919504  TIP3      10908           0.0000000000
     54975     11100  TIP3      H1            -18.6349322381      -16.5654491828      -73.0681497178  TIP3      10908           0.0000000000
     54976     11100  TIP3      H2            -18.8139139757      -15.1531987991      -72.5523087972  TIP3      10908           0.0000000000
     54977     11101  TIP3      OH2           -33.7088349617      -16.6664176893      -73.1635742187  TIP3      10909           0.0000000000
     54978     11101  TIP3      H1            -34.5322019617      -16.8884367802      -73.6557979703  TIP3      10909           0.0000000000
     54979     11101  TIP3      H2            -33.2558852054      -17.5343081383      -73.2003005396  TIP3      10909           0.0000000000
     54980     11102  TIP3      OH2           -34.7829733990      -16.8737863533      -77.3088539376  TIP3      10910           0.0000000000
     54981     11102  TIP3      H1            -34.5851613507      -16.3032388578      -78.0750312555  TIP3      10910           0.0000000000
     54982     11102  TIP3      H2            -35.5652889996      -16.4150584710      -76.9221234998  TIP3      10910           0.0000000000
     54983     11103  TIP3      OH2           -29.3025011390      -16.7042019243      -73.3673412503  TIP3      10911           0.0000000000
     54984     11103  TIP3      H1            -28.3833905981      -16.3850079023      -73.4435289930  TIP3      10911           0.0000000000
     54985     11103  TIP3      H2            -29.3078321464      -16.9599345020      -72.4427425640  TIP3      10911           0.0000000000
     54986     11104  TIP3      OH2           -23.5670588926      -16.7192273087      -71.7412268393  TIP3      10912           0.0000000000
     54987     11104  TIP3      H1            -23.6167165571      -16.6013099209      -72.6978079974  TIP3      10912           0.0000000000
     54988     11104  TIP3      H2            -23.9459646836      -17.6236103382      -71.6179254867  TIP3      10912           0.0000000000
     54989     11105  TIP3      OH2           -22.3028611015      -16.6923181291      -76.0866832332  TIP3      10913           0.0000000000
     54990     11105  TIP3      H1            -23.0435280009      -16.0865335572      -76.2375729010  TIP3      10913           0.0000000000
     54991     11105  TIP3      H2            -22.7432592421      -17.5432073376      -75.8610924051  TIP3      10913           0.0000000000
     54992     11106  TIP3      OH2           -35.0622213990       -0.9373721847      -76.4169265418  TIP3      10914           0.0000000000
     54993     11106  TIP3      H1            -35.7146441708       -0.9514246715      -77.1393804499  TIP3      10914           0.0000000000
     54994     11106  TIP3      H2            -35.0383571737        0.0226839545      -76.2801155255  TIP3      10914           0.0000000000
     54995     11107  TIP3      OH2           -33.1280745016      -15.0560007147      -78.8279939112  TIP3      10915           0.0000000000
     54996     11107  TIP3      H1            -32.6576769476      -15.5838993345      -79.4883620322  TIP3      10915           0.0000000000
     54997     11107  TIP3      H2            -32.4076043735      -14.5450379897      -78.4309063359  TIP3      10915           0.0000000000
     54998     11108  TIP3      OH2           -28.1998841415      -14.7353601447      -76.4912328287  TIP3      10916           0.0000000000
     54999     11108  TIP3      H1            -27.8453417304      -15.2884979179      -75.7721581955  TIP3      10916           0.0000000000
     55000     11108  TIP3      H2            -28.0432398312      -13.8574794679      -76.0604521514  TIP3      10916           0.0000000000
     55001     11109  TIP3      OH2           -26.2241119191        0.6723776000      -78.0397118420  TIP3      10917           0.0000000000
     55002     11109  TIP3      H1            -25.2583008842        0.6408212599      -78.2018605065  TIP3      10917           0.0000000000
     55003     11109  TIP3      H2            -26.4003911924       -0.0635920701      -78.6733672857  TIP3      10917           0.0000000000
     55004     11110  TIP3      OH2           -19.5037768070       -0.1380137849      -75.3570138874  TIP3      10918           0.0000000000
     55005     11110  TIP3      H1            -19.6990457011       -0.9201126492      -75.9304968892  TIP3      10918           0.0000000000
     55006     11110  TIP3      H2            -19.5891825809        0.5970569435      -75.9990717840  TIP3      10918           0.0000000000
     55007     11111  TIP3      OH2           -33.8864474471      -16.1130812219      -63.7003123710  TIP3      10919           0.0000000000
     55008     11111  TIP3      H1            -34.2666215584      -16.9292318631      -63.3127410312  TIP3      10919           0.0000000000
     55009     11111  TIP3      H2            -32.9914377548      -16.1650278077      -63.2918435144  TIP3      10919           0.0000000000
     55010     11112  TIP3      OH2           -31.8634499691      -16.7542510801      -62.1076775375  TIP3      10920           0.0000000000
     55011     11112  TIP3      H1            -30.9595893653      -17.0976380353      -62.2439150183  TIP3      10920           0.0000000000
     55012     11112  TIP3      H2            -32.2562875291      -17.5311466270      -61.6582918873  TIP3      10920           0.0000000000
     55013     11113  TIP3      OH2           -33.1718063342        0.0362162801      -79.4734444573  TIP3      10921           0.0000000000
     55014     11113  TIP3      H1            -33.5254198875        0.2994246101      -78.6130991362  TIP3      10921           0.0000000000
     55015     11113  TIP3      H2            -32.4625663368       -0.5556692329      -79.2537530790  TIP3      10921           0.0000000000
     55016     11114  TIP3      OH2           -23.4660353937      -17.4501700036      -61.9084856155  TIP3      10922           0.0000000000
     55017     11114  TIP3      H1            -23.3709147294      -17.9227145539      -61.0589122045  TIP3      10922           0.0000000000
     55018     11114  TIP3      H2            -22.5488940812      -17.4829558629      -62.2517397413  TIP3      10922           0.0000000000
     55019     11115  TIP3      OH2           -20.2543512224       -1.3987281136      -63.2766255399  TIP3      10923           0.0000000000
     55020     11115  TIP3      H1            -21.0585635392       -1.5349905212      -63.8233604130  TIP3      10923           0.0000000000
     55021     11115  TIP3      H2            -20.3707028943       -0.4517307152      -63.0596596565  TIP3      10923           0.0000000000
     55022     11116  TIP3      OH2            -5.8080797996       -7.5146399133      -73.2961509357  TIP3      10924           0.0000000000
     55023     11116  TIP3      H1             -5.8204813671       -6.5343573048      -73.3340125167  TIP3      10924           0.0000000000
     55024     11116  TIP3      H2             -6.5373959033       -7.7506141821      -73.8950219978  TIP3      10924           0.0000000000
     55025     11117  TIP3      OH2            -6.9586968989       -8.2653304898      -69.7976725271  TIP3      10925           0.0000000000
     55026     11117  TIP3      H1             -6.9670705748       -8.9151608711      -69.0794211108  TIP3      10925           0.0000000000
     55027     11117  TIP3      H2             -7.3092657149       -8.7720558858      -70.5476450407  TIP3      10925           0.0000000000
     55028     11118  TIP3      OH2           -14.6023430826       -8.5895271853      -68.2431082845  TIP3      10926           0.0000000000
     55029     11118  TIP3      H1            -14.5184171939       -9.2772947256      -67.5496647370  TIP3      10926           0.0000000000
     55030     11118  TIP3      H2            -13.8525625434       -8.0194203645      -68.0193651038  TIP3      10926           0.0000000000
     55031     11119  TIP3      OH2            -3.2692607960       -5.3167548483      -71.5118783141  TIP3      10927           0.0000000000
     55032     11119  TIP3      H1             -3.6825578096       -6.0341131046      -71.0211861208  TIP3      10927           0.0000000000
     55033     11119  TIP3      H2             -3.2439013297       -4.6096030659      -70.8406438737  TIP3      10927           0.0000000000
     55034     11120  TIP3      OH2           -13.6767167909       -4.1420522238      -69.7430210560  TIP3      10928           0.0000000000
     55035     11120  TIP3      H1            -13.9872169625       -5.0120951579      -70.0608194759  TIP3      10928           0.0000000000
     55036     11120  TIP3      H2            -12.7210590751       -4.3249037809      -69.6968403282  TIP3      10928           0.0000000000
     55037     11121  TIP3      OH2           -17.0365181716      -10.5859093539      -74.2505283731  TIP3      10929           0.0000000000
     55038     11121  TIP3      H1            -17.4723796094       -9.7144287140      -74.3091012034  TIP3      10929           0.0000000000
     55039     11121  TIP3      H2            -17.6017028345      -11.1249741382      -74.8208501700  TIP3      10929           0.0000000000
     55040     11122  TIP3      OH2           -16.3247741623       -8.3605497734      -72.1017166407  TIP3      10930           0.0000000000
     55041     11122  TIP3      H1            -16.0492918961       -9.1823922061      -71.6519328602  TIP3      10930           0.0000000000
     55042     11122  TIP3      H2            -15.6318074441       -8.2533555155      -72.7709942516  TIP3      10930           0.0000000000
     55043     11123  TIP3      OH2            -6.1496555727       -0.1588770346      -71.2728097598  TIP3      10931           0.0000000000
     55044     11123  TIP3      H1             -5.5013413735       -0.8480372578      -71.5602510769  TIP3      10931           0.0000000000
     55045     11123  TIP3      H2             -6.3659226309       -0.4961837814      -70.4036704273  TIP3      10931           0.0000000000
     55046     11124  TIP3      OH2            -8.5792599661       -5.8697789813      -69.3214295906  TIP3      10932           0.0000000000
     55047     11124  TIP3      H1             -8.2418109967       -6.4942937854      -69.9814592607  TIP3      10932           0.0000000000
     55048     11124  TIP3      H2             -7.7685412619       -5.7094895010      -68.8075022096  TIP3      10932           0.0000000000
     55049     11125  TIP3      OH2             0.0137911636      -14.2024377819      -68.6002769922  TIP3      10933           0.0000000000
     55050     11125  TIP3      H1              0.1939575416      -13.6184618595      -67.8321002981  TIP3      10933           0.0000000000
     55051     11125  TIP3      H2              0.5849192308      -13.7844391556      -69.2605573792  TIP3      10933           0.0000000000
     55052     11126  TIP3      OH2            -5.4114948801      -11.3976074098      -69.0063439084  TIP3      10934           0.0000000000
     55053     11126  TIP3      H1             -5.2446617706      -12.3567152007      -69.0040125875  TIP3      10934           0.0000000000
     55054     11126  TIP3      H2             -5.5137390053      -11.2538724193      -69.9663035006  TIP3      10934           0.0000000000
     55055     11127  TIP3      OH2           -12.2986097561      -13.3084355095      -71.7947284503  TIP3      10935           0.0000000000
     55056     11127  TIP3      H1            -12.1912603587      -12.4740003177      -72.2876342732  TIP3      10935           0.0000000000
     55057     11127  TIP3      H2            -12.6975955485      -13.8826424662      -72.4839917522  TIP3      10935           0.0000000000
     55058     11128  TIP3      OH2            -4.5410549765      -13.2624122922      -73.4644779504  TIP3      10936           0.0000000000
     55059     11128  TIP3      H1             -3.9149655163      -13.5357583856      -72.7504988300  TIP3      10936           0.0000000000
     55060     11128  TIP3      H2             -3.9802673078      -12.6416751734      -73.9592476276  TIP3      10936           0.0000000000
     55061     11129  TIP3      OH2           -15.6738910317      -10.8982705847      -71.0604907479  TIP3      10937           0.0000000000
     55062     11129  TIP3      H1            -15.0047161663      -11.4424232282      -70.6053075491  TIP3      10937           0.0000000000
     55063     11129  TIP3      H2            -15.5685268582      -11.2130156390      -71.9715799195  TIP3      10937           0.0000000000
     55064     11130  TIP3      OH2           -10.5168414927       -9.3412834479      -71.7402685969  TIP3      10938           0.0000000000
     55065     11130  TIP3      H1             -9.8450217722       -9.9234524321      -71.3459240878  TIP3      10938           0.0000000000
     55066     11130  TIP3      H2            -11.0309574051       -9.9963985488      -72.2517677756  TIP3      10938           0.0000000000
     55067     11131  TIP3      OH2             0.4569810096      -12.8036590909      -66.3214455987  TIP3      10939           0.0000000000
     55068     11131  TIP3      H1             -0.1477228218      -12.0356717335      -66.4340295989  TIP3      10939           0.0000000000
     55069     11131  TIP3      H2              0.4903020656      -12.8804891412      -65.3612350285  TIP3      10939           0.0000000000
     55070     11132  TIP3      OH2           -13.3882790901      -14.4092527717      -67.7548696299  TIP3      10940           0.0000000000
     55071     11132  TIP3      H1            -13.6711023433      -13.8378790704      -68.5001881369  TIP3      10940           0.0000000000
     55072     11132  TIP3      H2            -14.0659773899      -14.1814277055      -67.0724865358  TIP3      10940           0.0000000000
     55073     11133  TIP3      OH2            -6.1080717321       -4.9343162086      -74.2106695937  TIP3      10941           0.0000000000
     55074     11133  TIP3      H1             -6.3740319162       -5.1980450849      -75.1059468305  TIP3      10941           0.0000000000
     55075     11133  TIP3      H2             -6.4081365676       -3.9992737573      -74.1604043425  TIP3      10941           0.0000000000
     55076     11134  TIP3      OH2           -10.8771743140       -6.7672789673      -67.5160744051  TIP3      10942           0.0000000000
     55077     11134  TIP3      H1            -11.5813373677       -6.1222499289      -67.2944292066  TIP3      10942           0.0000000000
     55078     11134  TIP3      H2            -10.1700606384       -6.1688251654      -67.8063357246  TIP3      10942           0.0000000000
     55079     11135  TIP3      OH2            -2.7504623553      -13.8800585558      -71.4313646591  TIP3      10943           0.0000000000
     55080     11135  TIP3      H1             -2.9695434108      -14.6507440382      -70.8998135761  TIP3      10943           0.0000000000
     55081     11135  TIP3      H2             -2.0784278805      -13.4471243177      -70.8775363457  TIP3      10943           0.0000000000
     55082     11136  TIP3      OH2           -13.8208504431      -12.5529496952      -69.7177839260  TIP3      10944           0.0000000000
     55083     11136  TIP3      H1            -13.1926449672      -11.8638261754      -69.4057789628  TIP3      10944           0.0000000000
     55084     11136  TIP3      H2            -13.3051936181      -12.9633359237      -70.4568266769  TIP3      10944           0.0000000000
     55085     11137  TIP3      OH2           -12.4276490971       -4.7612030386      -66.6950370737  TIP3      10945           0.0000000000
     55086     11137  TIP3      H1            -12.4762415959       -3.8476443212      -67.0320285231  TIP3      10945           0.0000000000
     55087     11137  TIP3      H2            -13.3101584166       -4.8417336428      -66.2522055732  TIP3      10945           0.0000000000
     55088     11138  TIP3      OH2           -16.3693118758       -5.1527048817      -75.9109599177  TIP3      10946           0.0000000000
     55089     11138  TIP3      H1            -16.5779283335       -4.8081252681      -76.7993239097  TIP3      10946           0.0000000000
     55090     11138  TIP3      H2            -16.2845062993       -4.3254338196      -75.3906107140  TIP3      10946           0.0000000000
     55091     11139  TIP3      OH2            -2.7400217538       -3.4794213496      -69.1430061624  TIP3      10947           0.0000000000
     55092     11139  TIP3      H1             -3.7086046283       -3.3679691981      -69.0233928314  TIP3      10947           0.0000000000
     55093     11139  TIP3      H2             -2.4708784094       -2.5639383804      -69.3464531503  TIP3      10947           0.0000000000
     55094     11140  TIP3      OH2            -2.4171695639      -15.1979050025      -67.7548386012  TIP3      10948           0.0000000000
     55095     11140  TIP3      H1             -3.1407777645      -14.5642494078      -67.8473310677  TIP3      10948           0.0000000000
     55096     11140  TIP3      H2             -1.7027625889      -14.7787346191      -68.2774124653  TIP3      10948           0.0000000000
     55097     11141  TIP3      OH2            -9.4522776240      -17.0752498385      -70.2896754158  TIP3      10949           0.0000000000
     55098     11141  TIP3      H1             -9.5955036541      -18.0389238802      -70.3642014481  TIP3      10949           0.0000000000
     55099     11141  TIP3      H2            -10.3300687947      -16.7697459307      -69.9819424906  TIP3      10949           0.0000000000
     55100     11142  TIP3      OH2            -4.4799773938       -1.6966367582      -72.5563150696  TIP3      10950           0.0000000000
     55101     11142  TIP3      H1             -4.0524305355       -2.4162937815      -73.0643543537  TIP3      10950           0.0000000000
     55102     11142  TIP3      H2             -4.0395759939       -0.9082249147      -72.9385757157  TIP3      10950           0.0000000000
     55103     11143  TIP3      OH2            -3.2669808434       -3.7706623122      -74.0435605990  TIP3      10951           0.0000000000
     55104     11143  TIP3      H1             -3.5619976830       -4.4611979140      -74.6624350534  TIP3      10951           0.0000000000
     55105     11143  TIP3      H2             -3.2369318656       -4.2645921737      -73.2032174695  TIP3      10951           0.0000000000
     55106     11144  TIP3      OH2            -1.6536711835       -5.1716063959      -65.5436404713  TIP3      10952           0.0000000000
     55107     11144  TIP3      H1             -1.5050969993       -5.8268790950      -66.2611618096  TIP3      10952           0.0000000000
     55108     11144  TIP3      H2             -1.4450828797       -4.3305634382      -65.9891329186  TIP3      10952           0.0000000000
     55109     11145  TIP3      OH2            -7.1591902119       -8.2756354938      -75.7981415618  TIP3      10953           0.0000000000
     55110     11145  TIP3      H1             -7.8479910302       -7.6969632307      -76.1800499770  TIP3      10953           0.0000000000
     55111     11145  TIP3      H2             -6.4531342258       -8.2054003430      -76.4654559343  TIP3      10953           0.0000000000
     55112     11146  TIP3      OH2            -7.1527712906       -9.8231907284      -78.6568687757  TIP3      10954           0.0000000000
     55113     11146  TIP3      H1             -6.3633686137       -9.7027449725      -78.1094937003  TIP3      10954           0.0000000000
     55114     11146  TIP3      H2             -6.7845645444      -10.3509081260      -79.3612877514  TIP3      10954           0.0000000000
     55115     11147  TIP3      OH2             0.2359768366       -8.8610773410      -67.4998254449  TIP3      10955           0.0000000000
     55116     11147  TIP3      H1             -0.4214397464       -8.1377939546      -67.4611092336  TIP3      10955           0.0000000000
     55117     11147  TIP3      H2              0.7308211319       -8.6279550347      -68.3061461483  TIP3      10955           0.0000000000
     55118     11148  TIP3      OH2            -3.7109771943       -8.0717187047      -74.8397756401  TIP3      10956           0.0000000000
     55119     11148  TIP3      H1             -4.4552789594       -7.8276339121      -74.2360998614  TIP3      10956           0.0000000000
     55120     11148  TIP3      H2             -3.2310430088       -8.7429707007      -74.3200578579  TIP3      10956           0.0000000000
     55121     11149  TIP3      OH2            -3.7762589341       -9.9089652002      -65.7329557030  TIP3      10957           0.0000000000
     55122     11149  TIP3      H1             -3.7691451235       -9.0890354887      -65.2115268499  TIP3      10957           0.0000000000
     55123     11149  TIP3      H2             -4.4057689126       -9.6175381067      -66.4251312197  TIP3      10957           0.0000000000
     55124     11150  TIP3      OH2           -12.0966813335       -7.4181546761      -72.9404090025  TIP3      10958           0.0000000000
     55125     11150  TIP3      H1            -12.4150210433       -7.8063088201      -73.7909204092  TIP3      10958           0.0000000000
     55126     11150  TIP3      H2            -11.4794662098       -8.1068397572      -72.6073804918  TIP3      10958           0.0000000000
     55127     11151  TIP3      OH2           -10.7754311187       -4.0328776468      -70.2619978118  TIP3      10959           0.0000000000
     55128     11151  TIP3      H1            -10.7785643322       -4.5556321631      -71.0731915145  TIP3      10959           0.0000000000
     55129     11151  TIP3      H2             -9.9920926305       -4.3880671008      -69.8029501368  TIP3      10959           0.0000000000
     55130     11152  TIP3      OH2           -11.7660901878       -8.6681673481      -69.2787486940  TIP3      10960           0.0000000000
     55131     11152  TIP3      H1            -11.2171090406       -8.5702176261      -70.0814318853  TIP3      10960           0.0000000000
     55132     11152  TIP3      H2            -11.3737739981       -8.0029154794      -68.6705201576  TIP3      10960           0.0000000000
     55133     11153  TIP3      OH2            -5.3432296203       -3.0964409446      -68.5717069619  TIP3      10961           0.0000000000
     55134     11153  TIP3      H1             -5.6355362407       -2.4590954079      -67.9142046610  TIP3      10961           0.0000000000
     55135     11153  TIP3      H2             -5.6027011559       -3.9486551158      -68.1503038462  TIP3      10961           0.0000000000
     55136     11154  TIP3      OH2           -10.8116183687       -4.2373518416      -64.5840971125  TIP3      10962           0.0000000000
     55137     11154  TIP3      H1            -11.2265467953       -3.4985292074      -64.0937541304  TIP3      10962           0.0000000000
     55138     11154  TIP3      H2            -11.4839674220       -4.4373640132      -65.2813078734  TIP3      10962           0.0000000000
     55139     11155  TIP3      OH2            -4.8184960519       -8.9020365359      -77.1763693043  TIP3      10963           0.0000000000
     55140     11155  TIP3      H1             -4.2824178045       -8.6902319072      -76.3737293950  TIP3      10963           0.0000000000
     55141     11155  TIP3      H2             -4.4136669276       -8.3386465084      -77.8661598232  TIP3      10963           0.0000000000
     55142     11156  TIP3      OH2           -13.8699026942       -8.0785626193      -65.4306206131  TIP3      10964           0.0000000000
     55143     11156  TIP3      H1            -13.8167389673       -7.4101115116      -64.7223324914  TIP3      10964           0.0000000000
     55144     11156  TIP3      H2            -14.8122154727       -7.9900066854      -65.6423664089  TIP3      10964           0.0000000000
     55145     11157  TIP3      OH2            -7.1242584437       -2.1553372819      -73.7097643326  TIP3      10965           0.0000000000
     55146     11157  TIP3      H1             -6.6865291272       -1.8384600332      -72.9122724270  TIP3      10965           0.0000000000
     55147     11157  TIP3      H2             -7.6717875680       -1.4051624172      -73.9721228267  TIP3      10965           0.0000000000
     55148     11158  TIP3      OH2           -12.5648481364       -2.2028373490      -63.8368225308  TIP3      10966           0.0000000000
     55149     11158  TIP3      H1            -12.6261969686       -2.3023000254      -64.8023613822  TIP3      10966           0.0000000000
     55150     11158  TIP3      H2            -13.4945623426       -2.3375022344      -63.5692760910  TIP3      10966           0.0000000000
     55151     11159  TIP3      OH2            -1.0972703342      -17.1240372377      -77.2778126677  TIP3      10967           0.0000000000
     55152     11159  TIP3      H1             -2.0524196502      -17.0379592195      -77.0790915084  TIP3      10967           0.0000000000
     55153     11159  TIP3      H2             -0.8969516338      -16.2854039792      -77.7289884947  TIP3      10967           0.0000000000
     55154     11160  TIP3      OH2           -13.1347180035       -8.3936939039      -75.3113288375  TIP3      10968           0.0000000000
     55155     11160  TIP3      H1            -13.4043786469       -7.6182420749      -75.8507876958  TIP3      10968           0.0000000000
     55156     11160  TIP3      H2            -13.7811512879       -9.0576501989      -75.5625210446  TIP3      10968           0.0000000000
     55157     11161  TIP3      OH2            -0.0279327557       -2.8000116596      -78.9066355674  TIP3      10969           0.0000000000
     55158     11161  TIP3      H1              0.1143929079       -1.8424281245      -78.8074435515  TIP3      10969           0.0000000000
     55159     11161  TIP3      H2              0.8977553413       -3.0899107193      -78.9910916554  TIP3      10969           0.0000000000
     55160     11162  TIP3      OH2           -17.0397150029       -5.9629763592      -66.4238148682  TIP3      10970           0.0000000000
     55161     11162  TIP3      H1            -17.4788352884       -6.0439672208      -67.2909291716  TIP3      10970           0.0000000000
     55162     11162  TIP3      H2            -16.9542979742       -6.9121049037      -66.2112486894  TIP3      10970           0.0000000000
     55163     11163  TIP3      OH2           -17.2751372021       -3.2275714295      -69.6517770187  TIP3      10971           0.0000000000
     55164     11163  TIP3      H1            -16.3168062365       -3.3432466294      -69.6715720812  TIP3      10971           0.0000000000
     55165     11163  TIP3      H2            -17.3571589565       -2.4093926562      -69.1471317077  TIP3      10971           0.0000000000
     55166     11164  TIP3      OH2             0.9658406291       -2.5230711560      -63.9593175355  TIP3      10972           0.0000000000
     55167     11164  TIP3      H1              0.8470607251       -3.4819232876      -63.9892538572  TIP3      10972           0.0000000000
     55168     11164  TIP3      H2              0.0916727947       -2.2746835524      -63.5759081670  TIP3      10972           0.0000000000
     55169     11165  TIP3      OH2            -8.0787127968       -2.9838787257      -65.1004771387  TIP3      10973           0.0000000000
     55170     11165  TIP3      H1             -8.0196262851       -2.1416921035      -64.5912142804  TIP3      10973           0.0000000000
     55171     11165  TIP3      H2             -8.9510527906       -3.3433150853      -64.8485248825  TIP3      10973           0.0000000000
     55172     11166  TIP3      OH2            -7.6578299784        0.7570266528      -75.3236677235  TIP3      10974           0.0000000000
     55173     11166  TIP3      H1             -7.7284062254        0.7108813736      -76.2945817992  TIP3      10974           0.0000000000
     55174     11166  TIP3      H2             -7.6052526698        1.7154315771      -75.1422404025  TIP3      10974           0.0000000000
     55175     11167  TIP3      OH2           -13.9974800057       -0.3615349832      -73.4878699384  TIP3      10975           0.0000000000
     55176     11167  TIP3      H1            -13.8520561394       -0.7733953193      -72.6076519590  TIP3      10975           0.0000000000
     55177     11167  TIP3      H2            -14.8474668488       -0.7685552239      -73.7210962642  TIP3      10975           0.0000000000
     55178     11168  TIP3      OH2            -4.6373155538       -0.0432680891      -78.3358412459  TIP3      10976           0.0000000000
     55179     11168  TIP3      H1             -4.1355110083       -0.7744408693      -78.7695637756  TIP3      10976           0.0000000000
     55180     11168  TIP3      H2             -4.5360477203       -0.2806007590      -77.3957376331  TIP3      10976           0.0000000000
     55181     11169  TIP3      OH2            -4.8955053426       -0.0918994379      -75.5380517962  TIP3      10977           0.0000000000
     55182     11169  TIP3      H1             -5.8522188501       -0.0246485140      -75.3577120827  TIP3      10977           0.0000000000
     55183     11169  TIP3      H2             -4.6469334405       -0.8322483912      -74.9637377099  TIP3      10977           0.0000000000
     55184     11170  TIP3      OH2            -1.8886134463      -11.0563520984      -63.4928418560  TIP3      10978           0.0000000000
     55185     11170  TIP3      H1             -2.3643666630      -10.6054513177      -64.2093853904  TIP3      10978           0.0000000000
     55186     11170  TIP3      H2             -1.9035628107      -11.9757684434      -63.7980166659  TIP3      10978           0.0000000000
     55187     11171  TIP3      OH2           -14.7476937055       -4.6472617723      -65.4873019156  TIP3      10979           0.0000000000
     55188     11171  TIP3      H1            -14.5266442800       -5.0118275038      -64.6051781860  TIP3      10979           0.0000000000
     55189     11171  TIP3      H2            -15.6174711930       -5.0446335846      -65.6998301088  TIP3      10979           0.0000000000
     55190     11172  TIP3      OH2           -12.0677515989      -16.1728406306      -69.5383975918  TIP3      10980           0.0000000000
     55191     11172  TIP3      H1            -12.9704812324      -16.2995218415      -69.9050453988  TIP3      10980           0.0000000000
     55192     11172  TIP3      H2            -12.2021460009      -15.3424797355      -69.0524489556  TIP3      10980           0.0000000000
     55193     11173  TIP3      OH2            -7.4234999377      -16.5076449195      -66.1777483878  TIP3      10981           0.0000000000
     55194     11173  TIP3      H1             -7.0320863914      -16.9301430730      -65.3905529292  TIP3      10981           0.0000000000
     55195     11173  TIP3      H2             -8.3959714481      -16.6224196100      -66.0316854659  TIP3      10981           0.0000000000
     55196     11174  TIP3      OH2            -4.1366256838      -12.6588407431      -65.2745978501  TIP3      10982           0.0000000000
     55197     11174  TIP3      H1             -4.7020687807      -12.8739057314      -64.4938096901  TIP3      10982           0.0000000000
     55198     11174  TIP3      H2             -4.3218249032      -11.7318753937      -65.5037902022  TIP3      10982           0.0000000000
     55199     11175  TIP3      OH2            -3.2962103279       -7.7424171827      -79.3166920246  TIP3      10983           0.0000000000
     55200     11175  TIP3      H1             -3.3023512413       -7.9724612296      -80.2644885670  TIP3      10983           0.0000000000
     55201     11175  TIP3      H2             -2.3969440727       -7.3624317798      -79.2451115103  TIP3      10983           0.0000000000
     55202     11176  TIP3      OH2            -7.9256323563      -13.9073282156      -78.9659523332  TIP3      10984           0.0000000000
     55203     11176  TIP3      H1             -8.3402020728      -13.8572155428      -78.0817098189  TIP3      10984           0.0000000000
     55204     11176  TIP3      H2             -8.1602675507      -14.8028196771      -79.2489965683  TIP3      10984           0.0000000000
     55205     11177  TIP3      OH2           -11.9629237246      -11.1950422286      -68.2747282304  TIP3      10985           0.0000000000
     55206     11177  TIP3      H1            -12.7052605189      -11.2080228423      -67.6455775262  TIP3      10985           0.0000000000
     55207     11177  TIP3      H2            -12.0139329466      -10.2898061203      -68.6566825207  TIP3      10985           0.0000000000
     55208     11178  TIP3      OH2           -12.0068029196      -11.0893469099      -73.4200323534  TIP3      10986           0.0000000000
     55209     11178  TIP3      H1            -12.9479381176      -11.3308749244      -73.5523161959  TIP3      10986           0.0000000000
     55210     11178  TIP3      H2            -11.6317785389      -11.3730953708      -74.2771655313  TIP3      10986           0.0000000000
     55211     11179  TIP3      OH2            -6.4938548210      -10.6153428034      -74.7142419723  TIP3      10987           0.0000000000
     55212     11179  TIP3      H1             -6.8857919650       -9.7536648911      -74.9900917868  TIP3      10987           0.0000000000
     55213     11179  TIP3      H2             -5.7695028437      -10.7099320037      -75.3549722656  TIP3      10987           0.0000000000
     55214     11180  TIP3      OH2            -7.4321380130      -10.3700596770      -63.2136782204  TIP3      10988           0.0000000000
     55215     11180  TIP3      H1             -7.9571784520      -11.1458630019      -62.9034488687  TIP3      10988           0.0000000000
     55216     11180  TIP3      H2             -6.5939362238      -10.4909063693      -62.7371158864  TIP3      10988           0.0000000000
     55217     11181  TIP3      OH2            -5.4453185410      -11.0925446736      -71.8042092479  TIP3      10989           0.0000000000
     55218     11181  TIP3      H1             -5.7339965152      -10.5272870633      -72.5406998875  TIP3      10989           0.0000000000
     55219     11181  TIP3      H2             -5.3591338706      -11.9408597371      -72.2748957435  TIP3      10989           0.0000000000
     55220     11182  TIP3      OH2           -14.3454756950      -10.9498541917      -66.6060544106  TIP3      10990           0.0000000000
     55221     11182  TIP3      H1            -14.2616855328      -10.5417932969      -65.7266292207  TIP3      10990           0.0000000000
     55222     11182  TIP3      H2            -14.7851314212      -11.7886220452      -66.3948329734  TIP3      10990           0.0000000000
     55223     11183  TIP3      OH2           -10.7472506395      -13.2777219441      -79.3648457828  TIP3      10991           0.0000000000
     55224     11183  TIP3      H1            -11.3380308631      -13.9105103772      -78.9108274028  TIP3      10991           0.0000000000
     55225     11183  TIP3      H2            -11.3095876075      -12.9196311490      -80.0725009277  TIP3      10991           0.0000000000
     55226     11184  TIP3      OH2           -17.6861541220      -13.8409468361      -72.6135994138  TIP3      10992           0.0000000000
     55227     11184  TIP3      H1            -17.0018465701      -13.8797008955      -71.9152588577  TIP3      10992           0.0000000000
     55228     11184  TIP3      H2            -17.2391776883      -14.2142717451      -73.3965123766  TIP3      10992           0.0000000000
     55229     11185  TIP3      OH2           -16.4044053552      -13.1001324943      -77.2531866995  TIP3      10993           0.0000000000
     55230     11185  TIP3      H1            -15.8911691700      -12.5146659169      -77.8446830397  TIP3      10993           0.0000000000
     55231     11185  TIP3      H2            -17.1005040005      -12.4793865644      -76.9621524332  TIP3      10993           0.0000000000
     55232     11186  TIP3      OH2            -6.2563120371       -9.5063010075      -67.2520121170  TIP3      10994           0.0000000000
     55233     11186  TIP3      H1             -5.8750299804      -10.1925836145      -67.8364143977  TIP3      10994           0.0000000000
     55234     11186  TIP3      H2             -6.7223484367      -10.0339052078      -66.5789362585  TIP3      10994           0.0000000000
     55235     11187  TIP3      OH2            -9.4590688395      -13.5219763578      -72.4150243574  TIP3      10995           0.0000000000
     55236     11187  TIP3      H1            -10.3940358306      -13.5254811798      -72.1200394499  TIP3      10995           0.0000000000
     55237     11187  TIP3      H2             -8.9718473025      -13.6971608915      -71.5958415487  TIP3      10995           0.0000000000
     55238     11188  TIP3      OH2           -14.6436009922      -11.9790081936      -73.5455532416  TIP3      10996           0.0000000000
     55239     11188  TIP3      H1            -15.5269028457      -11.8215597425      -73.9376359648  TIP3      10996           0.0000000000
     55240     11188  TIP3      H2            -14.3592771131      -12.8124264856      -73.9558345955  TIP3      10996           0.0000000000
     55241     11189  TIP3      OH2           -10.9886302188      -11.9339324944      -75.9300064290  TIP3      10997           0.0000000000
     55242     11189  TIP3      H1            -10.0468384308      -11.7867779328      -75.7336276476  TIP3      10997           0.0000000000
     55243     11189  TIP3      H2            -11.2417445461      -11.2606644456      -76.5900467828  TIP3      10997           0.0000000000
     55244     11190  TIP3      OH2            -5.0466719389      -14.2912704605      -69.1753594192  TIP3      10998           0.0000000000
     55245     11190  TIP3      H1             -5.7280168378      -14.2430139765      -68.4684504619  TIP3      10998           0.0000000000
     55246     11190  TIP3      H2             -5.5580262094      -14.5491970030      -69.9569943707  TIP3      10998           0.0000000000
     55247     11191  TIP3      OH2           -12.2943002827      -10.7527108237      -78.3285115974  TIP3      10999           0.0000000000
     55248     11191  TIP3      H1            -12.8652977475      -11.1024179522      -79.0301768395  TIP3      10999           0.0000000000
     55249     11191  TIP3      H2            -11.4756745199      -10.5516525983      -78.8111529880  TIP3      10999           0.0000000000
     55250     11192  TIP3      OH2            -1.8470110321        1.3478531954      -62.8492632631  TIP3      11000           0.0000000000
     55251     11192  TIP3      H1             -1.5802133550        1.7317819062      -63.7034962296  TIP3      11000           0.0000000000
     55252     11192  TIP3      H2             -1.1228579605        1.6680610733      -62.2904821535  TIP3      11000           0.0000000000
     55253     11193  TIP3      OH2           -14.1684368078       -6.1781766530      -63.2763256337  TIP3      11001           0.0000000000
     55254     11193  TIP3      H1            -13.4487334609       -5.9364755883      -62.6729137462  TIP3      11001           0.0000000000
     55255     11193  TIP3      H2            -14.9420739925       -6.1019093301      -62.6756898478  TIP3      11001           0.0000000000
     55256     11194  TIP3      OH2            -8.1701070806      -10.7714232315      -70.5226781250  TIP3      11002           0.0000000000
     55257     11194  TIP3      H1             -7.5704566691      -11.3058359060      -71.0558716455  TIP3      11002           0.0000000000
     55258     11194  TIP3      H2             -8.3164989015      -11.3210812305      -69.7408658373  TIP3      11002           0.0000000000
     55259     11195  TIP3      OH2           -13.1617718128      -14.6325720888      -74.0680612090  TIP3      11003           0.0000000000
     55260     11195  TIP3      H1            -13.4736896342      -15.5541228031      -74.0905208436  TIP3      11003           0.0000000000
     55261     11195  TIP3      H2            -12.3755636753      -14.7002418912      -74.6267361319  TIP3      11003           0.0000000000
     55262     11196  TIP3      OH2            -9.5312068454      -12.4452354624      -68.1080774447  TIP3      11004           0.0000000000
     55263     11196  TIP3      H1            -10.3555321899      -11.9259012031      -68.0196438597  TIP3      11004           0.0000000000
     55264     11196  TIP3      H2             -8.9760152195      -12.0925005165      -67.3859832256  TIP3      11004           0.0000000000
     55265     11197  TIP3      OH2            -8.9358594296       -6.2412158997      -76.3827523839  TIP3      11005           0.0000000000
     55266     11197  TIP3      H1             -9.7392724050       -6.6890141288      -76.7256033371  TIP3      11005           0.0000000000
     55267     11197  TIP3      H2             -9.1617368327       -6.1063990697      -75.4426484947  TIP3      11005           0.0000000000
     55268     11198  TIP3      OH2            -1.7541010896       -7.0187713546      -67.6076512686  TIP3      11006           0.0000000000
     55269     11198  TIP3      H1             -1.1923062983       -6.5350050770      -68.2402161876  TIP3      11006           0.0000000000
     55270     11198  TIP3      H2             -2.6149422272       -6.9740057206      -68.0707956320  TIP3      11006           0.0000000000
     55271     11199  TIP3      OH2            -5.1116619160      -13.3706767496      -78.2100416687  TIP3      11007           0.0000000000
     55272     11199  TIP3      H1             -5.9536194882      -13.0376012974      -78.5384391215  TIP3      11007           0.0000000000
     55273     11199  TIP3      H2             -4.6974621356      -12.5322336264      -77.8845733971  TIP3      11007           0.0000000000
     55274     11200  TIP3      OH2            -7.4498947359       -5.9506540838      -65.1650010846  TIP3      11008           0.0000000000
     55275     11200  TIP3      H1             -7.7973845577       -6.3809988287      -64.3768687299  TIP3      11008           0.0000000000
     55276     11200  TIP3      H2             -7.7069026312       -5.0295803510      -65.0581148027  TIP3      11008           0.0000000000
     55277     11201  TIP3      OH2            -4.3757635680      -11.4990433818      -76.5894819709  TIP3      11009           0.0000000000
     55278     11201  TIP3      H1             -3.4757920593      -11.6141128460      -76.2138151594  TIP3      11009           0.0000000000
     55279     11201  TIP3      H2             -4.2961097883      -10.6608962327      -77.0780141119  TIP3      11009           0.0000000000
     55280     11202  TIP3      OH2           -13.8288180726       -6.8238862667      -70.6098049055  TIP3      11010           0.0000000000
     55281     11202  TIP3      H1            -13.1532161696       -6.9094002018      -71.3113585837  TIP3      11010           0.0000000000
     55282     11202  TIP3      H2            -13.7728504146       -7.6840165480      -70.1552018766  TIP3      11010           0.0000000000
     55283     11203  TIP3      OH2            -6.8456857432       -4.7639012044      -77.3514071880  TIP3      11011           0.0000000000
     55284     11203  TIP3      H1             -7.2098228754       -3.9175072079      -77.0161306051  TIP3      11011           0.0000000000
     55285     11203  TIP3      H2             -7.5826907773       -5.3889126394      -77.1679810613  TIP3      11011           0.0000000000
     55286     11204  TIP3      OH2           -16.8444190974       -8.4242294008      -65.3486024554  TIP3      11012           0.0000000000
     55287     11204  TIP3      H1            -16.6729454822       -8.8692521775      -64.4958284153  TIP3      11012           0.0000000000
     55288     11204  TIP3      H2            -17.4637870190       -9.0345203039      -65.7882465514  TIP3      11012           0.0000000000
     55289     11205  TIP3      OH2            -9.8301063207       -8.8636552054      -63.1733618739  TIP3      11013           0.0000000000
     55290     11205  TIP3      H1            -10.1498985160       -9.1731567358      -64.0329352644  TIP3      11013           0.0000000000
     55291     11205  TIP3      H2             -8.9074129195       -9.1885699556      -63.1746426678  TIP3      11013           0.0000000000
     55292     11206  TIP3      OH2            -5.1432495537       -3.5280868075      -65.2166619246  TIP3      11014           0.0000000000
     55293     11206  TIP3      H1             -6.0684366078       -3.3499212899      -65.4511354619  TIP3      11014           0.0000000000
     55294     11206  TIP3      H2             -5.1769055099       -3.2348222209      -64.2861394022  TIP3      11014           0.0000000000
     55295     11207  TIP3      OH2             0.5225123324      -11.3536120396      -76.7971219574  TIP3      11015           0.0000000000
     55296     11207  TIP3      H1             -0.0564137026      -11.6617078610      -77.5105196187  TIP3      11015           0.0000000000
     55297     11207  TIP3      H2              0.6140185760      -10.4190500972      -77.0859112909  TIP3      11015           0.0000000000
     55298     11208  TIP3      OH2             0.5107852523       -5.4848206218      -64.0249276924  TIP3      11016           0.0000000000
     55299     11208  TIP3      H1             -0.3819642339       -5.2652960813      -64.3898809015  TIP3      11016           0.0000000000
     55300     11208  TIP3      H2              1.0562055221       -5.5381336996      -64.8367997740  TIP3      11016           0.0000000000
     55301     11209  TIP3      OH2            -1.2067009039       -2.5161569471      -76.4687740202  TIP3      11017           0.0000000000
     55302     11209  TIP3      H1             -1.5532390920       -3.3459100874      -76.1139044942  TIP3      11017           0.0000000000
     55303     11209  TIP3      H2             -0.8842072840       -2.7341170082      -77.3641846279  TIP3      11017           0.0000000000
     55304     11210  TIP3      OH2            -3.9783332970       -7.7039988349      -69.3260391874  TIP3      11018           0.0000000000
     55305     11210  TIP3      H1             -4.9188029921       -7.9120766290      -69.4371514161  TIP3      11018           0.0000000000
     55306     11210  TIP3      H2             -3.5471312204       -8.4626060059      -69.7625702287  TIP3      11018           0.0000000000
     55307     11211  TIP3      OH2           -11.4637357216       -3.3750015088      -73.2218375431  TIP3      11019           0.0000000000
     55308     11211  TIP3      H1            -10.9618133233       -2.5699983130      -73.4295545604  TIP3      11019           0.0000000000
     55309     11211  TIP3      H2            -12.3399580403       -3.1412765278      -73.5562260963  TIP3      11019           0.0000000000
     55310     11212  TIP3      OH2           -15.7183045537       -8.5005064155      -78.7085022230  TIP3      11020           0.0000000000
     55311     11212  TIP3      H1            -15.1037086275       -7.8983572958      -78.2473556488  TIP3      11020           0.0000000000
     55312     11212  TIP3      H2            -16.5913014787       -8.2431228207      -78.3603241891  TIP3      11020           0.0000000000
     55313     11213  TIP3      OH2           -10.0418686717       -5.7101931971      -73.7009572894  TIP3      11021           0.0000000000
     55314     11213  TIP3      H1            -10.3593541309       -4.7905668555      -73.6237697358  TIP3      11021           0.0000000000
     55315     11213  TIP3      H2            -10.7635085919       -6.2013107852      -73.2609015226  TIP3      11021           0.0000000000
     55316     11214  TIP3      OH2            -9.5950852457       -1.5223213280      -67.2944082497  TIP3      11022           0.0000000000
     55317     11214  TIP3      H1             -9.1337622787       -0.7185146057      -67.5830952446  TIP3      11022           0.0000000000
     55318     11214  TIP3      H2             -8.9777122908       -1.8651962221      -66.6224566685  TIP3      11022           0.0000000000
     55319     11215  TIP3      OH2           -11.3647206027       -0.7116387696      -74.1928504107  TIP3      11023           0.0000000000
     55320     11215  TIP3      H1            -12.3279891859       -0.5770394675      -74.0391665959  TIP3      11023           0.0000000000
     55321     11215  TIP3      H2            -11.0058586402        0.1195601708      -73.8289066768  TIP3      11023           0.0000000000
     55322     11216  TIP3      OH2            -6.0766182974       -5.5297953681      -67.6811370526  TIP3      11024           0.0000000000
     55323     11216  TIP3      H1             -6.3950425395       -5.7184055706      -66.7737651316  TIP3      11024           0.0000000000
     55324     11216  TIP3      H2             -5.4313982424       -6.2358909625      -67.8467078069  TIP3      11024           0.0000000000
     55325     11217  TIP3      OH2            -3.7650019945       -4.4744391218      -78.5389923204  TIP3      11025           0.0000000000
     55326     11217  TIP3      H1             -3.4665919177       -4.9557816658      -77.7451958434  TIP3      11025           0.0000000000
     55327     11217  TIP3      H2             -4.7214372486       -4.6412734053      -78.4865419416  TIP3      11025           0.0000000000
     55328     11218  TIP3      OH2            -3.2511262610       -0.9434973659      -65.1921887477  TIP3      11026           0.0000000000
     55329     11218  TIP3      H1             -3.9440752050       -1.4370211887      -65.6704570205  TIP3      11026           0.0000000000
     55330     11218  TIP3      H2             -3.0693715322       -0.2430475438      -65.8535819491  TIP3      11026           0.0000000000
     55331     11219  TIP3      OH2             0.7245377714       -0.0679796566      -78.2859943190  TIP3      11027           0.0000000000
     55332     11219  TIP3      H1              1.4163805110        0.5589783419      -78.5691831443  TIP3      11027           0.0000000000
     55333     11219  TIP3      H2             -0.0058554579        0.5468744218      -78.0633373203  TIP3      11027           0.0000000000
     55334     11220  TIP3      OH2           -15.1913721305      -13.6902384888      -65.8025741490  TIP3      11028           0.0000000000
     55335     11220  TIP3      H1            -16.0976556120      -13.3378096941      -65.8208377657  TIP3      11028           0.0000000000
     55336     11220  TIP3      H2            -15.3036907772      -14.5348367957      -65.3383195239  TIP3      11028           0.0000000000
     55337     11221  TIP3      OH2            -2.9491679109       -5.8348639582      -76.3329949800  TIP3      11029           0.0000000000
     55338     11221  TIP3      H1             -3.1930915435       -6.6324358062      -75.8179086643  TIP3      11029           0.0000000000
     55339     11221  TIP3      H2             -2.0031334499       -5.7642853143      -76.1349779435  TIP3      11029           0.0000000000
     55340     11222  TIP3      OH2           -15.5808368791       -1.9068974752      -67.3730041669  TIP3      11030           0.0000000000
     55341     11222  TIP3      H1            -15.2755633171       -2.8269155717      -67.3662306677  TIP3      11030           0.0000000000
     55342     11222  TIP3      H2            -15.3172886325       -1.6146603644      -66.4932366965  TIP3      11030           0.0000000000
     55343     11223  TIP3      OH2           -10.8339258441       -3.8156269734      -77.6671906242  TIP3      11031           0.0000000000
     55344     11223  TIP3      H1            -10.5765244662       -4.3780554419      -76.9222200963  TIP3      11031           0.0000000000
     55345     11223  TIP3      H2            -10.7393426524       -2.9025530238      -77.3225482180  TIP3      11031           0.0000000000
     55346     11224  TIP3      OH2           -14.3191095603       -6.6034579980      -77.1317846698  TIP3      11032           0.0000000000
     55347     11224  TIP3      H1            -15.0020949473       -6.1856244738      -76.5654569773  TIP3      11032           0.0000000000
     55348     11224  TIP3      H2            -13.7813837868       -5.8384961387      -77.4068592474  TIP3      11032           0.0000000000
     55349     11225  TIP3      OH2            -6.4605264699      -13.9163400136      -66.8355325615  TIP3      11033           0.0000000000
     55350     11225  TIP3      H1             -5.7449259451      -13.8561416761      -66.1935680091  TIP3      11033           0.0000000000
     55351     11225  TIP3      H2             -6.8437072932      -14.7928733702      -66.6322144486  TIP3      11033           0.0000000000
     55352     11226  TIP3      OH2            -5.6757034098      -14.2901381077      -75.7274595372  TIP3      11034           0.0000000000
     55353     11226  TIP3      H1             -5.3269782372      -13.7487281476      -76.4600890031  TIP3      11034           0.0000000000
     55354     11226  TIP3      H2             -5.1280316569      -13.9193393855      -75.0129540821  TIP3      11034           0.0000000000
     55355     11227  TIP3      OH2            -8.0430003150       -2.1711721315      -76.9489494583  TIP3      11035           0.0000000000
     55356     11227  TIP3      H1             -8.8558592496       -1.6500992867      -76.8505110622  TIP3      11035           0.0000000000
     55357     11227  TIP3      H2             -7.4885928136       -1.6500619508      -77.5559830201  TIP3      11035           0.0000000000
     55358     11228  TIP3      OH2            -8.4634488048      -12.6251500265      -74.9502858890  TIP3      11036           0.0000000000
     55359     11228  TIP3      H1             -7.7228836266      -11.9867543662      -74.8943343399  TIP3      11036           0.0000000000
     55360     11228  TIP3      H2             -8.7723574181      -12.7135307027      -74.0253454574  TIP3      11036           0.0000000000
     55361     11229  TIP3      OH2            -7.9331710559      -11.5710853135      -65.7397968440  TIP3      11037           0.0000000000
     55362     11229  TIP3      H1             -7.8580189653      -11.0126686825      -64.9407674367  TIP3      11037           0.0000000000
     55363     11229  TIP3      H2             -7.2700016750      -12.2647921374      -65.6443367420  TIP3      11037           0.0000000000
     55364     11230  TIP3      OH2            -7.6390712135      -15.5307746986      -74.0999713802  TIP3      11038           0.0000000000
     55365     11230  TIP3      H1             -7.9604243289      -14.9235124879      -73.4028838463  TIP3      11038           0.0000000000
     55366     11230  TIP3      H2             -6.9225413004      -14.9685243477      -74.4632639678  TIP3      11038           0.0000000000
     55367     11231  TIP3      OH2           -10.6712844720       -1.1437847070      -76.8995590922  TIP3      11039           0.0000000000
     55368     11231  TIP3      H1            -10.4855796031       -0.3196359269      -77.3991145577  TIP3      11039           0.0000000000
     55369     11231  TIP3      H2            -10.9087726082       -0.8001103330      -76.0143922606  TIP3      11039           0.0000000000
     55370     11232  TIP3      OH2           -11.9731835236      -14.4377689166      -77.2972743412  TIP3      11040           0.0000000000
     55371     11232  TIP3      H1            -12.0585014651      -13.5266815371      -76.9452185310  TIP3      11040           0.0000000000
     55372     11232  TIP3      H2            -11.0766734469      -14.6619617364      -77.0117137722  TIP3      11040           0.0000000000
     55373     11233  TIP3      OH2            -1.7554784132      -13.7015275548      -64.8952721083  TIP3      11041           0.0000000000
     55374     11233  TIP3      H1             -2.6826678739      -13.3852227688      -65.0239721680  TIP3      11041           0.0000000000
     55375     11233  TIP3      H2             -1.4543642264      -13.7149898336      -65.8191837943  TIP3      11041           0.0000000000
     55376     11234  TIP3      OH2            -3.1373483439       -9.9137742945      -70.8918795330  TIP3      11042           0.0000000000
     55377     11234  TIP3      H1             -3.9629316608      -10.3592891137      -71.1615872698  TIP3      11042           0.0000000000
     55378     11234  TIP3      H2             -2.6591351180      -10.6002578707      -70.3735904847  TIP3      11042           0.0000000000
     55379     11235  TIP3      OH2           -13.7367644599       -3.9788848051      -78.3120031162  TIP3      11043           0.0000000000
     55380     11235  TIP3      H1            -13.0745404419       -3.3707290851      -77.9625219133  TIP3      11043           0.0000000000
     55381     11235  TIP3      H2            -13.2011337182       -4.4422996066      -78.9872719437  TIP3      11043           0.0000000000
     55382     11236  TIP3      OH2           -15.3424730786      -11.2968155316      -79.1014767008  TIP3      11044           0.0000000000
     55383     11236  TIP3      H1            -15.3776421226      -10.3338392664      -78.9794562777  TIP3      11044           0.0000000000
     55384     11236  TIP3      H2            -16.2184301568      -11.5051054408      -79.4426146387  TIP3      11044           0.0000000000
     55385     11237  TIP3      OH2            -2.0772823533       -0.6519301841      -69.2159915862  TIP3      11045           0.0000000000
     55386     11237  TIP3      H1             -2.1658072041        0.0283435965      -69.9119974058  TIP3      11045           0.0000000000
     55387     11237  TIP3      H2             -1.1132165686       -0.6006769700      -69.0426561606  TIP3      11045           0.0000000000
     55388     11238  TIP3      OH2           -14.5857543481      -16.5324166556      -70.4062574283  TIP3      11046           0.0000000000
     55389     11238  TIP3      H1            -14.7790367473      -16.5147541769      -71.3704740920  TIP3      11046           0.0000000000
     55390     11238  TIP3      H2            -14.9994141007      -17.3859339740      -70.1578508122  TIP3      11046           0.0000000000
     55391     11239  TIP3      OH2           -15.6263498885       -2.6106824560      -74.2689512535  TIP3      11047           0.0000000000
     55392     11239  TIP3      H1            -16.4844409563       -2.1672561516      -74.3074780001  TIP3      11047           0.0000000000
     55393     11239  TIP3      H2            -15.1572950139       -2.1460984233      -74.9741800864  TIP3      11047           0.0000000000
     55394     11240  TIP3      OH2           -16.4281623874        0.0409112547      -62.9817963895  TIP3      11048           0.0000000000
     55395     11240  TIP3      H1            -15.8213316461       -0.1601762064      -62.2417135054  TIP3      11048           0.0000000000
     55396     11240  TIP3      H2            -16.8257849763       -0.8290596537      -63.1626463059  TIP3      11048           0.0000000000
     55397     11241  TIP3      OH2           -11.7353114884       -1.0378631649      -61.3732316337  TIP3      11049           0.0000000000
     55398     11241  TIP3      H1            -10.9855677385       -1.5439210486      -61.0395331046  TIP3      11049           0.0000000000
     55399     11241  TIP3      H2            -11.7703359896       -1.3198303266      -62.3074745320  TIP3      11049           0.0000000000
     55400     11242  TIP3      OH2            -7.1443475775       -1.4423146164      -79.3692599526  TIP3      11050           0.0000000000
     55401     11242  TIP3      H1             -8.0074460614       -1.8955947666      -79.4069572241  TIP3      11050           0.0000000000
     55402     11242  TIP3      H2             -6.6994173113       -1.9162570347      -80.0729643987  TIP3      11050           0.0000000000
     55403     11243  TIP3      OH2            -5.2415032387       -2.6566913017      -62.6230734725  TIP3      11051           0.0000000000
     55404     11243  TIP3      H1             -5.5564373063       -3.5440745385      -62.3485191464  TIP3      11051           0.0000000000
     55405     11243  TIP3      H2             -4.4728913034       -2.5379854320      -62.0305658088  TIP3      11051           0.0000000000
     55406     11244  TIP3      OH2            -3.0185199930       -1.7369645056      -79.7523698638  TIP3      11052           0.0000000000
     55407     11244  TIP3      H1             -2.7835328222       -2.5595704377      -79.2816564865  TIP3      11052           0.0000000000
     55408     11244  TIP3      H2             -2.2466141675       -1.5639171982      -80.3087756983  TIP3      11052           0.0000000000
     55409     11245  TIP3      OH2           -16.5158224433       -6.1875365759      -61.9841584592  TIP3      11053           0.0000000000
     55410     11245  TIP3      H1            -16.3492956155       -7.0989488821      -62.2857673372  TIP3      11053           0.0000000000
     55411     11245  TIP3      H2            -17.2553762917       -5.9295615714      -62.5589076679  TIP3      11053           0.0000000000
     55412     11246  TIP3      OH2           -12.0599483088       -5.7722430168      -79.8395214236  TIP3      11054           0.0000000000
     55413     11246  TIP3      H1            -12.0018468938       -6.6046488712      -79.3619455962  TIP3      11054           0.0000000000
     55414     11246  TIP3      H2            -11.5051925027       -6.0043552953      -80.6134621489  TIP3      11054           0.0000000000
     55415     11247  TIP3      OH2            -9.7977667401       -6.1978980999      -62.5998442536  TIP3      11055           0.0000000000
     55416     11247  TIP3      H1            -10.1329113973       -5.8862732228      -63.4631475869  TIP3      11055           0.0000000000
     55417     11247  TIP3      H2             -9.7237453893       -7.1763514611      -62.7079063833  TIP3      11055           0.0000000000
     55418     11248  TIP3      OH2            -4.1015733405       -6.3396168174      -65.2070104000  TIP3      11056           0.0000000000
     55419     11248  TIP3      H1             -3.3137117229       -5.7568622921      -65.2691758365  TIP3      11056           0.0000000000
     55420     11248  TIP3      H2             -4.8016814082       -5.6717139122      -65.1716422477  TIP3      11056           0.0000000000
     55421     11249  TIP3      OH2           -15.5925838129       -8.9623586743      -62.6048495459  TIP3      11057           0.0000000000
     55422     11249  TIP3      H1            -15.1756833427       -9.8255135741      -62.6951305903  TIP3      11057           0.0000000000
     55423     11249  TIP3      H2            -15.8274525873       -8.9564362272      -61.6629635172  TIP3      11057           0.0000000000
     55424     11250  TIP3      OH2           -10.9427221203       -7.7987338443      -77.5458202836  TIP3      11058           0.0000000000
     55425     11250  TIP3      H1            -11.4485838202       -8.3418791086      -76.9180630109  TIP3      11058           0.0000000000
     55426     11250  TIP3      H2            -10.6333371943       -8.4721381551      -78.1938883961  TIP3      11058           0.0000000000
     55427     11251  TIP3      OH2           -11.6955351804      -10.0181089457      -65.2513064526  TIP3      11059           0.0000000000
     55428     11251  TIP3      H1            -12.2916919850       -9.2966284879      -64.9942499597  TIP3      11059           0.0000000000
     55429     11251  TIP3      H2            -11.2975972342       -9.6500431871      -66.0586072556  TIP3      11059           0.0000000000
     55430     11252  TIP3      OH2            -9.8632848279       -9.6351765069      -79.3439866077  TIP3      11060           0.0000000000
     55431     11252  TIP3      H1             -9.9837420680       -9.7440408647      -80.2985530805  TIP3      11060           0.0000000000
     55432     11252  TIP3      H2             -8.8862404506       -9.5466255397      -79.2512480112  TIP3      11060           0.0000000000
     55433     11253  TIP3      OH2            -6.6210239270       -7.4483038097      -61.9138664144  TIP3      11061           0.0000000000
     55434     11253  TIP3      H1             -5.6641959857       -7.4613247696      -62.0371998106  TIP3      11061           0.0000000000
     55435     11253  TIP3      H2             -6.7925713865       -8.2149501699      -61.3439972509  TIP3      11061           0.0000000000
     55436     11254  TIP3      OH2            -0.7490318441       -7.1030553254       80.1802563281  TIP3      11062           0.0000000000
     55437     11254  TIP3      H1             -0.7995423543       -7.6249613529       79.3611027888  TIP3      11062           0.0000000000
     55438     11254  TIP3      H2             -0.4816230948       -6.2230592209       79.8913136784  TIP3      11062           0.0000000000
     55439     11255  TIP3      OH2           -11.2893477213      -12.6397240896      -64.1941899048  TIP3      11063           0.0000000000
     55440     11255  TIP3      H1            -11.1723567566      -13.3485437124      -64.8534338647  TIP3      11063           0.0000000000
     55441     11255  TIP3      H2            -11.3335712411      -11.8286308871      -64.7431178724  TIP3      11063           0.0000000000
     55442     11256  TIP3      OH2           -10.8851786930      -14.2567821055      -66.6386206146  TIP3      11064           0.0000000000
     55443     11256  TIP3      H1            -10.3767835953      -13.7923332702      -67.3458650113  TIP3      11064           0.0000000000
     55444     11256  TIP3      H2            -11.7786167330      -14.3353722359      -67.0447633013  TIP3      11064           0.0000000000
     55445     11257  TIP3      OH2            -9.3466810496       -8.7657026130      -66.3968766666  TIP3      11065           0.0000000000
     55446     11257  TIP3      H1             -8.5927616836       -8.9326578106      -66.9684408788  TIP3      11065           0.0000000000
     55447     11257  TIP3      H2             -9.7119745673       -7.9329402925      -66.7338547254  TIP3      11065           0.0000000000
     55448     11258  TIP3      OH2            -4.9517359234      -11.0171271873      -61.4354629226  TIP3      11066           0.0000000000
     55449     11258  TIP3      H1             -4.7159013344      -11.9517320317      -61.5261796739  TIP3      11066           0.0000000000
     55450     11258  TIP3      H2             -4.0876289429      -10.5732232917      -61.4018503678  TIP3      11066           0.0000000000
     55451     11259  TIP3      OH2            -3.6083873383       -8.2225372902      -63.2687128192  TIP3      11067           0.0000000000
     55452     11259  TIP3      H1             -3.8616219745       -7.5013129131      -63.8856061488  TIP3      11067           0.0000000000
     55453     11259  TIP3      H2             -2.6524662332       -8.2538501176      -63.4573420462  TIP3      11067           0.0000000000
     55454     11260  TIP3      OH2           -12.8286313818      -11.3882996428      -62.2723933963  TIP3      11068           0.0000000000
     55455     11260  TIP3      H1            -13.5963644086      -11.9664197184      -62.4407080569  TIP3      11068           0.0000000000
     55456     11260  TIP3      H2            -12.1728422984      -11.7585584125      -62.8942528407  TIP3      11068           0.0000000000
     55457     11261  TIP3      OH2           -10.0920355628      -16.8179985149      -66.2613881788  TIP3      11069           0.0000000000
     55458     11261  TIP3      H1            -10.2808873581      -15.8554967864      -66.3494273835  TIP3      11069           0.0000000000
     55459     11261  TIP3      H2            -10.8460209476      -17.1863412283      -66.7539938332  TIP3      11069           0.0000000000
     55460     11262  TIP3      OH2            -8.8254056278      -12.4941013587      -62.6275775097  TIP3      11070           0.0000000000
     55461     11262  TIP3      H1             -9.1387864351      -12.7236821283      -61.7310434968  TIP3      11070           0.0000000000
     55462     11262  TIP3      H2             -9.6091758039      -12.6949354604      -63.1665895288  TIP3      11070           0.0000000000
     55463     11263  TIP3      OH2            -6.1045373440      -13.3472107177      -63.5307215167  TIP3      11071           0.0000000000
     55464     11263  TIP3      H1             -7.0698728098      -13.2940732890      -63.4236012691  TIP3      11071           0.0000000000
     55465     11263  TIP3      H2             -5.8415195842      -13.9885672035      -62.8426800018  TIP3      11071           0.0000000000
     55466     11264  TIP3      OH2            -4.5234278640      -14.7289607896      -61.6332018121  TIP3      11072           0.0000000000
     55467     11264  TIP3      H1             -4.5713545089      -15.7066375687      -61.6020956432  TIP3      11072           0.0000000000
     55468     11264  TIP3      H2             -4.7720795243      -14.4362214386      -60.7337976238  TIP3      11072           0.0000000000
     55469     11265  TIP3      OH2           -14.7501103832      -13.4509669956      -62.5166817159  TIP3      11073           0.0000000000
     55470     11265  TIP3      H1            -14.5020542681      -14.1872242678      -63.1028556821  TIP3      11073           0.0000000000
     55471     11265  TIP3      H2            -14.8383680932      -13.8999264772      -61.6531270625  TIP3      11073           0.0000000000
     55472     11266  TIP3      OH2            -9.8820513182      -17.4264814791      -63.5515448778  TIP3      11074           0.0000000000
     55473     11266  TIP3      H1             -9.2030331429      -18.1306015825      -63.5667035061  TIP3      11074           0.0000000000
     55474     11266  TIP3      H2             -9.9965218430      -17.2850323290      -64.5112150550  TIP3      11074           0.0000000000
     55475     11267  TIP3      OH2            -9.5171063102      -15.8187511020      -61.4401932031  TIP3      11075           0.0000000000
     55476     11267  TIP3      H1             -9.6945632629      -16.3270150544      -62.2686133687  TIP3      11075           0.0000000000
     55477     11267  TIP3      H2            -10.1182113437      -15.0522166813      -61.5347051092  TIP3      11075           0.0000000000
     55478     11268  TIP3      OH2           -10.0698216110        1.0827364255      -78.3043999095  TIP3      11076           0.0000000000
     55479     11268  TIP3      H1             -9.0974213338        1.1998261902      -78.1966355218  TIP3      11076           0.0000000000
     55480     11268  TIP3      H2            -10.2366549206        1.7467756999      -78.9730410396  TIP3      11076           0.0000000000
     55481     11269  TIP3      OH2           -16.4875328353       -4.3054423851      -78.7963045888  TIP3      11077           0.0000000000
     55482     11269  TIP3      H1            -15.5306141260       -4.1933445288      -78.5861168469  TIP3      11077           0.0000000000
     55483     11269  TIP3      H2            -16.4310281765       -4.8890290769      -79.5613704804  TIP3      11077           0.0000000000
     55484     11270  TIP3      OH2           -17.7193030076        1.0574376800      -73.8250749726  TIP3      11078           0.0000000000
     55485     11270  TIP3      H1            -18.4381541263        0.5728412122      -74.2878203937  TIP3      11078           0.0000000000
     55486     11270  TIP3      H2            -17.4392559110        0.4030713513      -73.1602605309  TIP3      11078           0.0000000000
     55487     11271  TIP3      OH2           -16.8957037420       -0.8050976849      -71.9483633983  TIP3      11079           0.0000000000
     55488     11271  TIP3      H1            -17.2488509727       -1.6842800253      -71.7494397711  TIP3      11079           0.0000000000
     55489     11271  TIP3      H2            -16.6705256627       -0.4757342764      -71.0637367181  TIP3      11079           0.0000000000
     55490     11272  TIP3      OH2             0.6428528218       -0.0095026859      -69.0201845611  TIP3      11080           0.0000000000
     55491     11272  TIP3      H1              0.6733804588        0.1508367896      -68.0610289255  TIP3      11080           0.0000000000
     55492     11272  TIP3      H2              1.3466319653        0.5733016807      -69.3232118259  TIP3      11080           0.0000000000
     55493     11273  TIP3      OH2             0.2149177207       -0.4138045750      -66.0727933354  TIP3      11081           0.0000000000
     55494     11273  TIP3      H1             -0.2561276996       -1.1838238699      -66.4547643939  TIP3      11081           0.0000000000
     55495     11273  TIP3      H2              0.7026751121       -0.8612686581      -65.3615054827  TIP3      11081           0.0000000000
     55496     11274  TIP3      OH2            -1.3386049260       -4.6951242887      -61.4006898506  TIP3      11082           0.0000000000
     55497     11274  TIP3      H1             -2.2453393903       -4.7204276882      -61.0371353183  TIP3      11082           0.0000000000
     55498     11274  TIP3      H2             -0.9673708955       -3.8884319131      -60.9909155399  TIP3      11082           0.0000000000
     55499     11275  TIP3      OH2            -0.0077253986       -6.3678427531      -75.9780041169  TIP3      11083           0.0000000000
     55500     11275  TIP3      H1              0.8416304178       -5.9579453955      -75.7590091315  TIP3      11083           0.0000000000
     55501     11275  TIP3      H2             -0.0436335528       -7.0738881768      -75.2955532849  TIP3      11083           0.0000000000
     55502     11276  TIP3      OH2             0.3332970497       -8.2839356943      -74.0901965918  TIP3      11084           0.0000000000
     55503     11276  TIP3      H1             -0.4171636243       -8.7931985491      -73.7081995587  TIP3      11084           0.0000000000
     55504     11276  TIP3      H2              0.9296281822       -8.1569684899      -73.3237830717  TIP3      11084           0.0000000000
     55505     11277  TIP3      OH2             0.0930466650       -5.5922542562      -69.0987122551  TIP3      11085           0.0000000000
     55506     11277  TIP3      H1              0.9061142885       -5.9699600956      -69.4786965517  TIP3      11085           0.0000000000
     55507     11277  TIP3      H2              0.2387995006       -4.6388838561      -69.2711050068  TIP3      11085           0.0000000000
     55508     11278  TIP3      OH2            -1.3476697976       -2.6861231595      -66.8318117297  TIP3      11086           0.0000000000
     55509     11278  TIP3      H1             -2.0381581605       -2.3452196724      -66.2429286861  TIP3      11086           0.0000000000
     55510     11278  TIP3      H2             -1.8960480442       -3.0891880911      -67.5387635714  TIP3      11086           0.0000000000
     55511     11279  TIP3      OH2             0.6468234434       -8.4457792388      -77.6875052147  TIP3      11087           0.0000000000
     55512     11279  TIP3      H1              0.0443516774       -8.1068988287      -78.3728243055  TIP3      11087           0.0000000000
     55513     11279  TIP3      H2              0.5573742531       -7.7457109463      -77.0157484184  TIP3      11087           0.0000000000
     55514     11280  TIP3      OH2            -1.4283608619      -11.2180445917      -79.0581085188  TIP3      11088           0.0000000000
     55515     11280  TIP3      H1             -0.9778191746      -10.6112559964      -79.6709986132  TIP3      11088           0.0000000000
     55516     11280  TIP3      H2             -1.1960747023      -12.0417982656      -79.5017140071  TIP3      11088           0.0000000000
     55517     11281  TIP3      OH2            -1.8411659717       -9.8153766182      -73.5143769243  TIP3      11089           0.0000000000
     55518     11281  TIP3      H1             -1.9930424787      -10.7697439739      -73.5571455483  TIP3      11089           0.0000000000
     55519     11281  TIP3      H2             -2.1706575097       -9.6008761180      -72.6231177826  TIP3      11089           0.0000000000
     55520     11282  TIP3      OH2           -16.8372259435       -7.7269706675      -69.4544109977  TIP3      11090           0.0000000000
     55521     11282  TIP3      H1            -16.6601968180       -7.8097832382      -70.4176087497  TIP3      11090           0.0000000000
     55522     11282  TIP3      H2            -15.9439768117       -7.9061451457      -69.1017767111  TIP3      11090           0.0000000000
     55523     11283  TIP3      OH2            -0.9824717379       -7.8470843195      -63.8247647063  TIP3      11091           0.0000000000
     55524     11283  TIP3      H1             -0.3720203512       -8.6035902668      -63.6918110676  TIP3      11091           0.0000000000
     55525     11283  TIP3      H2             -0.3785226594       -7.0739388199      -63.8224744343  TIP3      11091           0.0000000000
     55526     11284  TIP3      OH2             0.5189902553       -9.9681350150      -63.1741109153  TIP3      11092           0.0000000000
     55527     11284  TIP3      H1             -0.3640213139      -10.3667408548      -63.3292782522  TIP3      11092           0.0000000000
     55528     11284  TIP3      H2              1.0892453561      -10.7510187028      -63.2510347505  TIP3      11092           0.0000000000
     55529     11285  TIP3      OH2            -2.2084202185      -12.2432968930      -75.0753717179  TIP3      11093           0.0000000000
     55530     11285  TIP3      H1             -1.8708656933      -13.1591566676      -74.9333237434  TIP3      11093           0.0000000000
     55531     11285  TIP3      H2             -1.4119675752      -11.8262057243      -75.4294911123  TIP3      11093           0.0000000000
     55532     11286  TIP3      OH2            -1.5364627486      -11.6886458856      -69.6119963261  TIP3      11094           0.0000000000
     55533     11286  TIP3      H1             -0.5762098395      -11.4579155709      -69.6263465698  TIP3      11094           0.0000000000
     55534     11286  TIP3      H2             -1.7241981783      -11.5477555315      -68.6726793093  TIP3      11094           0.0000000000
     55535     11287  TIP3      OH2            -1.4686616055      -10.9674273041      -66.8249473337  TIP3      11095           0.0000000000
     55536     11287  TIP3      H1             -2.3544849558      -10.6780016060      -66.5158084530  TIP3      11095           0.0000000000
     55537     11287  TIP3      H2             -1.0369680228      -10.1087488067      -67.0537430724  TIP3      11095           0.0000000000
     55538     11288  TIP3      OH2           -17.2179678439      -12.4255388945      -63.2945550369  TIP3      11096           0.0000000000
     55539     11288  TIP3      H1            -16.2810836493      -12.6410274903      -63.1090378682  TIP3      11096           0.0000000000
     55540     11288  TIP3      H2            -17.6764088531      -13.2518850008      -63.0277991413  TIP3      11096           0.0000000000
     55541     11289  TIP3      OH2             0.8001952703      -16.9017646970      -61.4933992728  TIP3      11097           0.0000000000
     55542     11289  TIP3      H1              1.1537289932      -17.5629608039      -62.1137398046  TIP3      11097           0.0000000000
     55543     11289  TIP3      H2              0.9033879328      -16.0872918385      -62.0253803070  TIP3      11097           0.0000000000
     55544     11290  TIP3      OH2            -1.5332962271      -14.9488025805      -75.0267638186  TIP3      11098           0.0000000000
     55545     11290  TIP3      H1             -1.2916012592      -15.3769167131      -74.1779378405  TIP3      11098           0.0000000000
     55546     11290  TIP3      H2             -2.1026790057      -15.6095135456      -75.4589905410  TIP3      11098           0.0000000000
     55547     11291  TIP3      OH2           -16.0205487990      -14.1377538116      -70.4507785288  TIP3      11099           0.0000000000
     55548     11291  TIP3      H1            -15.5602623021      -14.9649460439      -70.1965547678  TIP3      11099           0.0000000000
     55549     11291  TIP3      H2            -15.4678099286      -13.4470713684      -70.0620741394  TIP3      11099           0.0000000000
     55550     11292  TIP3      OH2           -17.7379444400      -11.1351596337      -69.4162711658  TIP3      11100           0.0000000000
     55551     11292  TIP3      H1            -17.1741497704      -11.3868787602      -70.1760197351  TIP3      11100           0.0000000000
     55552     11292  TIP3      H2            -17.2694136843      -10.3321830263      -69.1465657858  TIP3      11100           0.0000000000
     55553     11293  TIP3      OH2             0.3219270221      -14.8035548976      -63.1382046431  TIP3      11101           0.0000000000
     55554     11293  TIP3      H1             -0.6165510783      -14.5318918792      -63.1899600766  TIP3      11101           0.0000000000
     55555     11293  TIP3      H2              0.3553989020      -15.3548708311      -63.9348519777  TIP3      11101           0.0000000000
     55556     11294  TIP3      OH2             0.3321146771      -14.8881769716      -78.4468307378  TIP3      11102           0.0000000000
     55557     11294  TIP3      H1              0.7206636358      -15.5973378109      -78.9670832085  TIP3      11102           0.0000000000
     55558     11294  TIP3      H2              1.0387168112      -14.2318676543      -78.4598416975  TIP3      11102           0.0000000000
     55559     11295  TIP3      OH2           -17.3883469457      -14.8692152428      -75.3468205814  TIP3      11103           0.0000000000
     55560     11295  TIP3      H1            -18.3246856974      -14.6802018589      -75.5101354164  TIP3      11103           0.0000000000
     55561     11295  TIP3      H2            -16.9539571023      -14.3830687794      -76.0654286798  TIP3      11103           0.0000000000
     55562     11296  TIP3      OH2            -2.6384282031        0.0694928917      -73.3848840942  TIP3      11104           0.0000000000
     55563     11296  TIP3      H1             -1.9546092659       -0.2279215396      -74.0113650773  TIP3      11104           0.0000000000
     55564     11296  TIP3      H2             -2.1213978671        0.5718806948      -72.7387255551  TIP3      11104           0.0000000000
     55565     11297  TIP3      OH2           -17.4242887145      -16.2266269253      -67.0490102973  TIP3      11105           0.0000000000
     55566     11297  TIP3      H1            -18.0918396084      -16.4166783825      -66.3665391605  TIP3      11105           0.0000000000
     55567     11297  TIP3      H2            -17.8814655185      -15.5502669794      -67.5884900025  TIP3      11105           0.0000000000
     55568     11298  TIP3      OH2           -15.1831712835       -3.0319934775      -62.8850711456  TIP3      11106           0.0000000000
     55569     11298  TIP3      H1            -16.0206109480       -2.8054836443      -63.3236095330  TIP3      11106           0.0000000000
     55570     11298  TIP3      H2            -15.4529125293       -3.1003422703      -61.9657307955  TIP3      11106           0.0000000000
     55571     11299  TIP3      OH2           -12.2845626676       -2.0160410690      -66.6049011021  TIP3      11107           0.0000000000
     55572     11299  TIP3      H1            -12.6134227356       -1.1489419703      -66.8791081297  TIP3      11107           0.0000000000
     55573     11299  TIP3      H2            -11.3581238815       -1.9331923924      -66.9111591250  TIP3      11107           0.0000000000
     55574     11300  TIP3      OH2            -7.9654612013       -0.5942966326      -63.7032162270  TIP3      11108           0.0000000000
     55575     11300  TIP3      H1             -7.8258358071       -0.9483628336      -62.7951509637  TIP3      11108           0.0000000000
     55576     11300  TIP3      H2             -7.0618342223       -0.2916720805      -63.9454569970  TIP3      11108           0.0000000000
     55577     11301  TIP3      OH2            -5.6773682760        0.6728400539      -64.3909488169  TIP3      11109           0.0000000000
     55578     11301  TIP3      H1             -4.9453522935        0.0883929329      -64.6298685847  TIP3      11109           0.0000000000
     55579     11301  TIP3      H2             -5.3012867770        1.1118419198      -63.5979776369  TIP3      11109           0.0000000000
     55580     11302  TIP3      OH2            -0.6569103272      -16.7134863905      -65.2848290477  TIP3      11110           0.0000000000
     55581     11302  TIP3      H1             -1.4855450395      -16.4145034105      -65.6972898806  TIP3      11110           0.0000000000
     55582     11302  TIP3      H2             -0.4893983670      -17.5365437084      -65.8021435588  TIP3      11110           0.0000000000
     55583     11303  TIP3      OH2           -14.8604401989        1.2166491771      -66.6137639215  TIP3      11111           0.0000000000
     55584     11303  TIP3      H1            -15.5916368986        1.7188534536      -67.0085889974  TIP3      11111           0.0000000000
     55585     11303  TIP3      H2            -15.1710474149        1.0277292314      -65.7167134348  TIP3      11111           0.0000000000
     55586     11304  TIP3      OH2           -12.3925069812        0.7944474503      -67.5380602128  TIP3      11112           0.0000000000
     55587     11304  TIP3      H1            -13.2847101700        0.9463814340      -67.1458669733  TIP3      11112           0.0000000000
     55588     11304  TIP3      H2            -12.4467400379        1.3850767271      -68.3118928450  TIP3      11112           0.0000000000
     55589     11305  TIP3      OH2            -7.6834094254        0.7096456838      -68.3726018860  TIP3      11113           0.0000000000
     55590     11305  TIP3      H1             -8.1482858461        1.2660171117      -69.0164154690  TIP3      11113           0.0000000000
     55591     11305  TIP3      H2             -7.5540589015        1.3404378765      -67.6326461745  TIP3      11113           0.0000000000
     55592     11306  TIP3      OH2            -5.3987229032       -0.4841760471      -67.3369573932  TIP3      11114           0.0000000000
     55593     11306  TIP3      H1             -6.2509201397       -0.2056180481      -67.7098673682  TIP3      11114           0.0000000000
     55594     11306  TIP3      H2             -4.9112913116        0.3526023272      -67.4314030234  TIP3      11114           0.0000000000
     55595     11307  TIP3      OH2            -2.8157422184        1.0856485909      -67.1202469568  TIP3      11115           0.0000000000
     55596     11307  TIP3      H1             -2.8674090985        2.0467852002      -67.3474458268  TIP3      11115           0.0000000000
     55597     11307  TIP3      H2             -2.5977009737        0.7129735695      -67.9972072011  TIP3      11115           0.0000000000
     55598     11308  TIP3      OH2           -15.3990961451       -0.1328550082      -69.6690790986  TIP3      11116           0.0000000000
     55599     11308  TIP3      H1            -15.4822403789       -0.5930800063      -68.8070658118  TIP3      11116           0.0000000000
     55600     11308  TIP3      H2            -14.5850426918       -0.5127749110      -70.0571299585  TIP3      11116           0.0000000000
     55601     11309  TIP3      OH2           -13.3238780556       -1.4214034092      -71.0162782337  TIP3      11117           0.0000000000
     55602     11309  TIP3      H1            -13.4889181788       -2.3548157823      -70.7822583290  TIP3      11117           0.0000000000
     55603     11309  TIP3      H2            -12.4689845500       -1.2662197113      -70.5624960431  TIP3      11117           0.0000000000
     55604     11310  TIP3      OH2           -10.7173750515       -0.9343818134      -70.1372958269  TIP3      11118           0.0000000000
     55605     11310  TIP3      H1            -10.5659152366       -1.8590928972      -70.4001043866  TIP3      11118           0.0000000000
     55606     11310  TIP3      H2            -10.6759742212       -0.9927427677      -69.1707193341  TIP3      11118           0.0000000000
     55607     11311  TIP3      OH2            -7.2705472951      -15.2837064635      -71.0107747787  TIP3      11119           0.0000000000
     55608     11311  TIP3      H1             -7.9419443755      -15.9259026203      -70.7205722745  TIP3      11119           0.0000000000
     55609     11311  TIP3      H2             -6.7119258736      -15.8217593877      -71.5824181989  TIP3      11119           0.0000000000
     55610     11312  TIP3      OH2            -2.1309561282      -17.2401745598      -70.9390510019  TIP3      11120           0.0000000000
     55611     11312  TIP3      H1             -1.5192271614      -16.6462290458      -71.4446071259  TIP3      11120           0.0000000000
     55612     11312  TIP3      H2             -3.0133947416      -16.8779003348      -71.1665550607  TIP3      11120           0.0000000000
     55613     11313  TIP3      OH2            -0.4647749379      -15.9894554468      -72.6598895318  TIP3      11121           0.0000000000
     55614     11313  TIP3      H1              0.2235444490      -16.5668580309      -73.0689747012  TIP3      11121           0.0000000000
     55615     11313  TIP3      H2              0.0431921915      -15.1536296352      -72.5524240662  TIP3      11121           0.0000000000
     55616     11314  TIP3      OH2           -14.9007405402      -16.6669132215      -73.1344296221  TIP3      11122           0.0000000000
     55617     11314  TIP3      H1            -15.6900063554      -16.8546307966      -73.6792838952  TIP3      11122           0.0000000000
     55618     11314  TIP3      H2            -14.4396767942      -17.5240398701      -73.2063957204  TIP3      11122           0.0000000000
     55619     11315  TIP3      OH2           -16.1438041377      -16.9063343221      -77.4208736152  TIP3      11123           0.0000000000
     55620     11315  TIP3      H1            -15.6418565568      -16.2637308104      -77.9643430215  TIP3      11123           0.0000000000
     55621     11315  TIP3      H2            -16.6933244553      -16.3364140440      -76.8537314147  TIP3      11123           0.0000000000
     55622     11316  TIP3      OH2           -10.4246113951      -16.7342181385      -73.3705132300  TIP3      11124           0.0000000000
     55623     11316  TIP3      H1             -9.5269049986      -16.3799258256      -73.4264776763  TIP3      11124           0.0000000000
     55624     11316  TIP3      H2            -10.4656607315      -16.9560972808      -72.4389260657  TIP3      11124           0.0000000000
     55625     11317  TIP3      OH2            -4.7129801941      -16.7200813250      -71.7308826880  TIP3      11125           0.0000000000
     55626     11317  TIP3      H1             -4.7481714268      -16.6096020342      -72.6856917867  TIP3      11125           0.0000000000
     55627     11317  TIP3      H2             -5.0903963380      -17.6263042190      -71.6166282487  TIP3      11125           0.0000000000
     55628     11318  TIP3      OH2            -3.4636664917      -16.6940531422      -76.1194790808  TIP3      11126           0.0000000000
     55629     11318  TIP3      H1             -4.1947996691      -16.0794159673      -76.2028252515  TIP3      11126           0.0000000000
     55630     11318  TIP3      H2             -3.8870207759      -17.5424732065      -75.8562447632  TIP3      11126           0.0000000000
     55631     11319  TIP3      OH2           -16.2000657958       -0.9510950872      -76.4290214892  TIP3      11127           0.0000000000
     55632     11319  TIP3      H1            -16.8847198917       -0.9561801397      -77.1286754924  TIP3      11127           0.0000000000
     55633     11319  TIP3      H2            -16.1913846889       -0.0024521175      -76.2506369659  TIP3      11127           0.0000000000
     55634     11320  TIP3      OH2           -14.2976789785      -15.0604973454      -78.8838824801  TIP3      11128           0.0000000000
     55635     11320  TIP3      H1            -13.7506806708      -15.5857500608      -79.4681762030  TIP3      11128           0.0000000000
     55636     11320  TIP3      H2            -13.6460982995      -14.6305972965      -78.2993591664  TIP3      11128           0.0000000000
     55637     11321  TIP3      OH2            -9.1172019378      -14.7331604829      -76.5332623140  TIP3      11129           0.0000000000
     55638     11321  TIP3      H1             -9.0551747492      -15.2990363977      -75.7366275241  TIP3      11129           0.0000000000
     55639     11321  TIP3      H2             -9.2363723056      -13.8701770063      -76.0493739552  TIP3      11129           0.0000000000
     55640     11322  TIP3      OH2            -7.3690102853        0.6731006673      -78.0422424701  TIP3      11130           0.0000000000
     55641     11322  TIP3      H1             -6.4026618780        0.6381045525      -78.2006959466  TIP3      11130           0.0000000000
     55642     11322  TIP3      H2             -7.5440511251       -0.0646356311      -78.6744966799  TIP3      11130           0.0000000000
     55643     11323  TIP3      OH2            -0.6472770610       -0.1377004265      -75.3562901570  TIP3      11131           0.0000000000
     55644     11323  TIP3      H1             -0.8428487261       -0.9197633058      -75.9299453806  TIP3      11131           0.0000000000
     55645     11323  TIP3      H2             -0.7329520305        0.5971094595      -75.9988058610  TIP3      11131           0.0000000000
     55646     11324  TIP3      OH2           -15.0117789049      -16.1182741384      -63.7036728436  TIP3      11132           0.0000000000
     55647     11324  TIP3      H1            -15.4005820022      -16.9134601964      -63.2970308964  TIP3      11132           0.0000000000
     55648     11324  TIP3      H2            -14.1029185194      -16.1609497945      -63.3204765816  TIP3      11132           0.0000000000
     55649     11325  TIP3      OH2           -13.0111400415      -16.7361802687      -62.0584877846  TIP3      11133           0.0000000000
     55650     11325  TIP3      H1            -12.1181242539      -17.0737018709      -62.2746783178  TIP3      11133           0.0000000000
     55651     11325  TIP3      H2            -13.3847949856      -17.5437025123      -61.6546410827  TIP3      11133           0.0000000000
     55652     11326  TIP3      OH2           -14.3459777381        0.0256232322      -79.4674643542  TIP3      11134           0.0000000000
     55653     11326  TIP3      H1            -14.6778071518        0.2928774695      -78.5990060564  TIP3      11134           0.0000000000
     55654     11326  TIP3      H2            -13.6144041575       -0.5502045504      -79.2572806447  TIP3      11134           0.0000000000
     55655     11327  TIP3      OH2            -4.6097004817      -17.4527252755      -61.9111182209  TIP3      11135           0.0000000000
     55656     11327  TIP3      H1             -4.5150032018      -17.9223665432      -61.0598151364  TIP3      11135           0.0000000000
     55657     11327  TIP3      H2             -3.6915506234      -17.4836723660      -62.2518558666  TIP3      11135           0.0000000000
     55658     11328  TIP3      OH2            -1.3983723331       -1.3987560703      -63.2766684711  TIP3      11136           0.0000000000
     55659     11328  TIP3      H1             -2.2025576188       -1.5350304374      -63.8233922488  TIP3      11136           0.0000000000
     55660     11328  TIP3      H2             -1.5146108773       -0.4517311778      -63.0596550473  TIP3      11136           0.0000000000
     55661     11329  TIP3      OH2            13.0726853835       -7.5088755540      -73.3072511614  TIP3      11137           0.0000000000
     55662     11329  TIP3      H1             13.0095770014       -6.5302128611      -73.3443181102  TIP3      11137           0.0000000000
     55663     11329  TIP3      H2             12.3215352117       -7.7603595859      -73.8767147579  TIP3      11137           0.0000000000
     55664     11330  TIP3      OH2            11.8938878505       -8.2659660206      -69.7957405889  TIP3      11138           0.0000000000
     55665     11330  TIP3      H1             11.8829564646       -8.9151121994      -69.0771451441  TIP3      11138           0.0000000000
     55666     11330  TIP3      H2             11.5527471523       -8.7767797859      -70.5490952120  TIP3      11138           0.0000000000
     55667     11331  TIP3      OH2             4.2535650284       -8.5895252796      -68.2431341762  TIP3      11139           0.0000000000
     55668     11331  TIP3      H1              4.3376770137       -9.2776161915      -67.5500440190  TIP3      11139           0.0000000000
     55669     11331  TIP3      H2              5.0034388525       -8.0195011392      -68.0194033721  TIP3      11139           0.0000000000
     55670     11332  TIP3      OH2            15.6655162205       -5.3706870233      -71.4543388087  TIP3      11140           0.0000000000
     55671     11332  TIP3      H1             15.0693280717       -5.9914574158      -71.0053341275  TIP3      11140           0.0000000000
     55672     11332  TIP3      H2             15.5757663749       -4.5945768712      -70.8498849577  TIP3      11140           0.0000000000
     55673     11333  TIP3      OH2             5.1793110661       -4.1421342050      -69.7428049287  TIP3      11141           0.0000000000
     55674     11333  TIP3      H1              4.8687898244       -5.0120788411      -70.0608699283  TIP3      11141           0.0000000000
     55675     11333  TIP3      H2              6.1349735696       -4.3249026068      -69.6969581435  TIP3      11141           0.0000000000
     55676     11334  TIP3      OH2             1.8192503380      -10.5860654032      -74.2501178035  TIP3      11142           0.0000000000
     55677     11334  TIP3      H1              1.3838324189       -9.7143895315      -74.3092776762  TIP3      11142           0.0000000000
     55678     11334  TIP3      H2              1.2546929429      -11.1249235581      -74.8215104699  TIP3      11142           0.0000000000
     55679     11335  TIP3      OH2             2.5312321848       -8.3605385289      -72.1017176167  TIP3      11143           0.0000000000
     55680     11335  TIP3      H1              2.8067134489       -9.1824058343      -71.6519501909  TIP3      11143           0.0000000000
     55681     11335  TIP3      H2              3.2242049075       -8.2533685739      -72.7709900273  TIP3      11143           0.0000000000
     55682     11336  TIP3      OH2            12.7078414397       -0.1624612182      -71.2746273836  TIP3      11144           0.0000000000
     55683     11336  TIP3      H1             13.3578979648       -0.8503870544      -71.5584762938  TIP3      11144           0.0000000000
     55684     11336  TIP3      H2             12.4913585955       -0.4976490048      -70.4038528573  TIP3      11144           0.0000000000
     55685     11337  TIP3      OH2            10.2768898140       -5.8695771939      -69.3216626402  TIP3      11145           0.0000000000
     55686     11337  TIP3      H1             10.6140382537       -6.4947604322      -69.9811668221  TIP3      11145           0.0000000000
     55687     11337  TIP3      H2             11.0874996202       -5.7092234083      -68.8076718520  TIP3      11145           0.0000000000
     55688     11338  TIP3      OH2            18.8682767565      -14.2003990072      -68.6013079492  TIP3      11146           0.0000000000
     55689     11338  TIP3      H1             19.0506954929      -13.6184868125      -67.8321443149  TIP3      11146           0.0000000000
     55690     11338  TIP3      H2             19.4414286469      -13.7847767828      -69.2611039172  TIP3      11146           0.0000000000
     55691     11339  TIP3      OH2            13.4447359933      -11.3964875828      -69.0083640664  TIP3      11147           0.0000000000
     55692     11339  TIP3      H1             13.6113397027      -12.3559165520      -69.0035788939  TIP3      11147           0.0000000000
     55693     11339  TIP3      H2             13.3401354571      -11.2581864259      -69.9699660083  TIP3      11147           0.0000000000
     55694     11340  TIP3      OH2             6.5572800228      -13.3083585010      -71.7944046524  TIP3      11148           0.0000000000
     55695     11340  TIP3      H1              6.6651348842      -12.4742541064      -72.2881267879  TIP3      11148           0.0000000000
     55696     11340  TIP3      H2              6.1589841268      -13.8825033324      -72.4843203277  TIP3      11148           0.0000000000
     55697     11341  TIP3      OH2            14.2975465760      -13.2309903180      -73.4284996068  TIP3      11149           0.0000000000
     55698     11341  TIP3      H1             14.9473186125      -13.5416745572      -72.7557034925  TIP3      11149           0.0000000000
     55699     11341  TIP3      H2             14.8617163816      -12.6564702233      -73.9719601043  TIP3      11149           0.0000000000
     55700     11342  TIP3      OH2             3.1811641100      -10.8978113631      -71.0602828015  TIP3      11150           0.0000000000
     55701     11342  TIP3      H1              3.8513225016      -11.4424312562      -70.6053680366  TIP3      11150           0.0000000000
     55702     11342  TIP3      H2              3.2874908121      -11.2130466383      -71.9715652729  TIP3      11150           0.0000000000
     55703     11343  TIP3      OH2             8.3388902309       -9.3411300906      -71.7395728560  TIP3      11151           0.0000000000
     55704     11343  TIP3      H1              9.0110504234       -9.9234281874      -71.3463453911  TIP3      11151           0.0000000000
     55705     11343  TIP3      H2              7.8260060189       -9.9963179220      -72.2526189235  TIP3      11151           0.0000000000
     55706     11344  TIP3      OH2            19.3129115394      -12.8011039239      -66.3216551617  TIP3      11152           0.0000000000
     55707     11344  TIP3      H1             18.7078593416      -12.0354516539      -66.4339503246  TIP3      11152           0.0000000000
     55708     11344  TIP3      H2             19.3464982685      -12.8809071678      -65.3617261194  TIP3      11152           0.0000000000
     55709     11345  TIP3      OH2             5.4676389282      -14.4091744963      -67.7547168976  TIP3      11153           0.0000000000
     55710     11345  TIP3      H1              5.1849136639      -13.8378912403      -68.5001965123  TIP3      11153           0.0000000000
     55711     11345  TIP3      H2              4.7899753099      -14.1813793709      -67.0724925488  TIP3      11153           0.0000000000
     55712     11346  TIP3      OH2            12.7811448522       -4.9258013786      -74.2179818032  TIP3      11154           0.0000000000
     55713     11346  TIP3      H1             12.4720982239       -5.2035398110      -75.0970887036  TIP3      11154           0.0000000000
     55714     11346  TIP3      H2             12.4440345192       -4.0049004866      -74.1576004394  TIP3      11154           0.0000000000
     55715     11347  TIP3      OH2             7.9779758215       -6.7676443963      -67.5157089204  TIP3      11155           0.0000000000
     55716     11347  TIP3      H1              7.2742189990       -6.1221810236      -67.2944157541  TIP3      11155           0.0000000000
     55717     11347  TIP3      H2              8.6851102133       -6.1695575485      -67.8065005271  TIP3      11155           0.0000000000
     55718     11348  TIP3      OH2            16.1071643689      -13.8816464258      -71.4304959380  TIP3      11156           0.0000000000
     55719     11348  TIP3      H1             15.8862453760      -14.6512354799      -70.8985664961  TIP3      11156           0.0000000000
     55720     11348  TIP3      H2             16.7781859693      -13.4468676332      -70.8775409484  TIP3      11156           0.0000000000
     55721     11349  TIP3      OH2             5.0355005039      -12.5531777513      -69.7182382649  TIP3      11157           0.0000000000
     55722     11349  TIP3      H1              5.6633197674      -11.8638295911      -69.4057184407  TIP3      11157           0.0000000000
     55723     11349  TIP3      H2              5.5514517422      -12.9630853645      -70.4571270629  TIP3      11157           0.0000000000
     55724     11350  TIP3      OH2             6.4292795708       -4.7605603878      -66.6937890776  TIP3      11158           0.0000000000
     55725     11350  TIP3      H1              6.3772467509       -3.8496773724      -67.0372059064  TIP3      11158           0.0000000000
     55726     11350  TIP3      H2              5.5462347678       -4.8420313053      -66.2520183046  TIP3      11158           0.0000000000
     55727     11351  TIP3      OH2             2.4866709823       -5.1526844821      -75.9111408616  TIP3      11159           0.0000000000
     55728     11351  TIP3      H1              2.2780228641       -4.8080141432      -76.7994831962  TIP3      11159           0.0000000000
     55729     11351  TIP3      H2              2.5714861704       -4.3254568371      -75.3906554855  TIP3      11159           0.0000000000
     55730     11352  TIP3      OH2            16.1104269068       -3.4915930055      -69.1958403341  TIP3      11160           0.0000000000
     55731     11352  TIP3      H1             15.1525485561       -3.3627520488      -69.0094996157  TIP3      11160           0.0000000000
     55732     11352  TIP3      H2             16.3833731894       -2.5612505069      -69.3309858619  TIP3      11160           0.0000000000
     55733     11353  TIP3      OH2            16.4389770985      -15.1977499349      -67.7547136204  TIP3      11161           0.0000000000
     55734     11353  TIP3      H1             15.7145182499      -14.5641508760      -67.8472459747  TIP3      11161           0.0000000000
     55735     11353  TIP3      H2             17.1525273997      -14.7795124642      -68.2769068126  TIP3      11161           0.0000000000
     55736     11354  TIP3      OH2             9.4040658957      -17.0753781861      -70.2881916899  TIP3      11162           0.0000000000
     55737     11354  TIP3      H1              9.2605033460      -18.0388137229      -70.3646372533  TIP3      11162           0.0000000000
     55738     11354  TIP3      H2              8.5257948083      -16.7697609488      -69.9822383232  TIP3      11162           0.0000000000
     55739     11355  TIP3      OH2            14.3972735804       -1.7080085483      -72.5414846519  TIP3      11163           0.0000000000
     55740     11355  TIP3      H1             14.7999645576       -2.4079523029      -73.0854914018  TIP3      11163           0.0000000000
     55741     11355  TIP3      H2             14.8138781563       -0.9114662474      -72.9309604606  TIP3      11163           0.0000000000
     55742     11356  TIP3      OH2            15.6520841599       -3.8033639586      -74.0453094020  TIP3      11164           0.0000000000
     55743     11356  TIP3      H1             15.2768688208       -4.4465646515      -74.6780350628  TIP3      11164           0.0000000000
     55744     11356  TIP3      H2             15.5646638442       -4.2558804225      -73.1985458116  TIP3      11164           0.0000000000
     55745     11357  TIP3      OH2            17.1990824581       -5.1690144321      -65.5368396254  TIP3      11165           0.0000000000
     55746     11357  TIP3      H1             17.3531768645       -5.8314036920      -66.2415185404  TIP3      11165           0.0000000000
     55747     11357  TIP3      H2             17.4126912083       -4.3330160587      -65.9893598445  TIP3      11165           0.0000000000
     55748     11358  TIP3      OH2            11.6983808234       -8.2796283669      -75.8002990022  TIP3      11166           0.0000000000
     55749     11358  TIP3      H1             11.0080198102       -7.6946278238      -76.1774858027  TIP3      11166           0.0000000000
     55750     11358  TIP3      H2             12.4033201681       -8.2027345541      -76.4663958639  TIP3      11166           0.0000000000
     55751     11359  TIP3      OH2            11.7076184924       -9.7899647331      -78.6646969116  TIP3      11167           0.0000000000
     55752     11359  TIP3      H1             12.4878677162       -9.7280223041      -78.0977390121  TIP3      11167           0.0000000000
     55753     11359  TIP3      H2             12.0544597132      -10.3809533635      -79.3336576650  TIP3      11167           0.0000000000
     55754     11360  TIP3      OH2            19.0869526209       -8.8662176226      -67.5085090397  TIP3      11168           0.0000000000
     55755     11360  TIP3      H1             18.4350768382       -8.1389854849      -67.4469120431  TIP3      11168           0.0000000000
     55756     11360  TIP3      H2             19.5972884550       -8.6261465831      -68.3002160470  TIP3      11168           0.0000000000
     55757     11361  TIP3      OH2            15.1954780438       -8.0226481059      -74.7982146135  TIP3      11169           0.0000000000
     55758     11361  TIP3      H1             14.3801943513       -7.8475030583      -74.2608539730  TIP3      11169           0.0000000000
     55759     11361  TIP3      H2             15.6020426517       -8.7807589380      -74.3440488938  TIP3      11169           0.0000000000
     55760     11362  TIP3      OH2            15.0790418065       -9.9087856256      -65.7316064805  TIP3      11170           0.0000000000
     55761     11362  TIP3      H1             15.0875285725       -9.0880566296      -65.2123658512  TIP3      11170           0.0000000000
     55762     11362  TIP3      H2             14.4500841222       -9.6183916524      -66.4248275229  TIP3      11170           0.0000000000
     55763     11363  TIP3      OH2             6.7592989325       -7.4183171674      -72.9401303817  TIP3      11171           0.0000000000
     55764     11363  TIP3      H1              6.4410554585       -7.8064328115      -73.7907915486  TIP3      11171           0.0000000000
     55765     11363  TIP3      H2              7.3765490322       -8.1072362710      -72.6075115301  TIP3      11171           0.0000000000
     55766     11364  TIP3      OH2             8.0804130043       -4.0323362471      -70.2613246465  TIP3      11172           0.0000000000
     55767     11364  TIP3      H1              8.0749811673       -4.5557317836      -71.0714269757  TIP3      11172           0.0000000000
     55768     11364  TIP3      H2              8.8639049072       -4.3880124401      -69.8029552184  TIP3      11172           0.0000000000
     55769     11365  TIP3      OH2             7.0898276662       -8.6682343320      -69.2787115900  TIP3      11173           0.0000000000
     55770     11365  TIP3      H1              7.6386504311       -8.5701762952      -70.0815429253  TIP3      11173           0.0000000000
     55771     11365  TIP3      H2              7.4822070338       -8.0029620030      -68.6705489676  TIP3      11173           0.0000000000
     55772     11366  TIP3      OH2            13.5073331210       -3.0900899195      -68.5698616923  TIP3      11174           0.0000000000
     55773     11366  TIP3      H1             13.2126499224       -2.4532311564      -67.9135421215  TIP3      11174           0.0000000000
     55774     11366  TIP3      H2             13.2654931952       -3.9496675592      -68.1510550162  TIP3      11174           0.0000000000
     55775     11367  TIP3      OH2             8.0437395517       -4.2397589905      -64.5814287370  TIP3      11175           0.0000000000
     55776     11367  TIP3      H1              7.6295630488       -3.4980465001      -64.0947518405  TIP3      11175           0.0000000000
     55777     11367  TIP3      H2              7.3729281928       -4.4373753914      -65.2813601935  TIP3      11175           0.0000000000
     55778     11368  TIP3      OH2            14.0302605673       -8.8925182116      -77.1778212476  TIP3      11176           0.0000000000
     55779     11368  TIP3      H1             14.5729803585       -8.6977058167      -76.3836118164  TIP3      11176           0.0000000000
     55780     11368  TIP3      H2             14.4427349186       -8.3374609018      -77.8696154026  TIP3      11176           0.0000000000
     55781     11369  TIP3      OH2             4.9860532754       -8.0785048831      -65.4318030920  TIP3      11177           0.0000000000
     55782     11369  TIP3      H1              5.0382187991       -7.4101853993      -64.7227776526  TIP3      11177           0.0000000000
     55783     11369  TIP3      H2              4.0434999558       -7.9904153026      -65.6436150040  TIP3      11177           0.0000000000
     55784     11370  TIP3      OH2            11.7341877218       -2.1565538752      -73.7101224964  TIP3      11178           0.0000000000
     55785     11370  TIP3      H1             12.1680000940       -1.8410024254      -72.9107700211  TIP3      11178           0.0000000000
     55786     11370  TIP3      H2             11.1847843375       -1.4065794912      -73.9717345587  TIP3      11178           0.0000000000
     55787     11371  TIP3      OH2             6.2914920668       -2.2044614635      -63.8365786345  TIP3      11179           0.0000000000
     55788     11371  TIP3      H1              6.2297587793       -2.3018182221      -64.8024033940  TIP3      11179           0.0000000000
     55789     11371  TIP3      H2              5.3612715880       -2.3368956729      -63.5695830450  TIP3      11179           0.0000000000
     55790     11372  TIP3      OH2            17.7579394577      -17.1261108957      -77.2787715741  TIP3      11180           0.0000000000
     55791     11372  TIP3      H1             16.7979250137      -17.0356862655      -77.0814376449  TIP3      11180           0.0000000000
     55792     11372  TIP3      H2             17.9476741854      -16.2842995324      -77.7275942365  TIP3      11180           0.0000000000
     55793     11373  TIP3      OH2             5.7210392643       -8.3931463971      -75.3109803777  TIP3      11181           0.0000000000
     55794     11373  TIP3      H1              5.4514281283       -7.6181890525      -75.8510331905  TIP3      11181           0.0000000000
     55795     11373  TIP3      H2              5.0754633483       -9.0579368773      -75.5624248232  TIP3      11181           0.0000000000
     55796     11374  TIP3      OH2            18.8253394547       -2.7989002189      -78.9084838761  TIP3      11182           0.0000000000
     55797     11374  TIP3      H1             18.9702135275       -1.8423406433      -78.8069261520  TIP3      11182           0.0000000000
     55798     11374  TIP3      H2             19.7518898427       -3.0897349085      -78.9903831082  TIP3      11182           0.0000000000
     55799     11375  TIP3      OH2             1.8164470886       -5.9632875474      -66.4239446473  TIP3      11183           0.0000000000
     55800     11375  TIP3      H1              1.3773094010       -6.0438174208      -67.2906915213  TIP3      11183           0.0000000000
     55801     11375  TIP3      H2              1.9018170503       -6.9115141547      -66.2112300453  TIP3      11183           0.0000000000
     55802     11376  TIP3      OH2             1.5808285637       -3.2263008435      -69.6533564523  TIP3      11184           0.0000000000
     55803     11376  TIP3      H1              2.5390434192       -3.3431108744      -69.6716666667  TIP3      11184           0.0000000000
     55804     11376  TIP3      H2              1.4988389230       -2.4091176772      -69.1471073410  TIP3      11184           0.0000000000
     55805     11377  TIP3      OH2            19.8224280010       -2.5207494580      -63.9589129009  TIP3      11185           0.0000000000
     55806     11377  TIP3      H1             19.7032248689       -3.4810333019      -63.9831893599  TIP3      11185           0.0000000000
     55807     11377  TIP3      H2             18.9473467087       -2.2742197167      -63.5758673799  TIP3      11185           0.0000000000
     55808     11378  TIP3      OH2            10.7772148483       -2.9847226763      -65.1005951675  TIP3      11186           0.0000000000
     55809     11378  TIP3      H1             10.8370978282       -2.1420078931      -64.5917619631  TIP3      11186           0.0000000000
     55810     11378  TIP3      H2              9.9047452141       -3.3425548406      -64.8483543326  TIP3      11186           0.0000000000
     55811     11379  TIP3      OH2            11.2035897675        0.7532605731      -75.3208441900  TIP3      11187           0.0000000000
     55812     11379  TIP3      H1             11.1275726583        0.7092679805      -76.2927783249  TIP3      11187           0.0000000000
     55813     11379  TIP3      H2             11.2507109990        1.7144590995      -75.1426120060  TIP3      11187           0.0000000000
     55814     11380  TIP3      OH2             4.8585103822       -0.3614441147      -73.4885977938  TIP3      11188           0.0000000000
     55815     11380  TIP3      H1              5.0039811689       -0.7731150673      -72.6082145978  TIP3      11188           0.0000000000
     55816     11380  TIP3      H2              4.0084025527       -0.7686169309      -73.7212165864  TIP3      11188           0.0000000000
     55817     11381  TIP3      OH2            14.2183544957       -0.0444173233      -78.3351559440  TIP3      11189           0.0000000000
     55818     11381  TIP3      H1             14.7200935444       -0.7741902014      -78.7695324246  TIP3      11189           0.0000000000
     55819     11381  TIP3      H2             14.3196659801       -0.2786489876      -77.3931543422  TIP3      11189           0.0000000000
     55820     11382  TIP3      OH2            13.9599013535       -0.0922877605      -75.5387145439  TIP3      11190           0.0000000000
     55821     11382  TIP3      H1             13.0029808712       -0.0237617702      -75.3578688173  TIP3      11190           0.0000000000
     55822     11382  TIP3      H2             14.2096446277       -0.8312511601      -74.9640850282  TIP3      11190           0.0000000000
     55823     11383  TIP3      OH2            16.9536405161      -11.0530437477      -63.4852807250  TIP3      11191           0.0000000000
     55824     11383  TIP3      H1             16.4919536427      -10.6046029065      -64.2123867070  TIP3      11191           0.0000000000
     55825     11383  TIP3      H2             16.9520451198      -11.9724176673      -63.7931533683  TIP3      11191           0.0000000000
     55826     11384  TIP3      OH2             4.1099299693       -4.6494536840      -65.4850247551  TIP3      11192           0.0000000000
     55827     11384  TIP3      H1              4.3293417681       -5.0135234267      -64.6024273227  TIP3      11192           0.0000000000
     55828     11384  TIP3      H2              3.2394439829       -5.0447129344      -65.6988677614  TIP3      11192           0.0000000000
     55829     11385  TIP3      OH2             6.7882498032      -16.1728041161      -69.5383153275  TIP3      11193           0.0000000000
     55830     11385  TIP3      H1              5.8855510972      -16.2994509301      -69.9050381560  TIP3      11193           0.0000000000
     55831     11385  TIP3      H2              6.6538144543      -15.3424230801      -69.0524411785  TIP3      11193           0.0000000000
     55832     11386  TIP3      OH2            11.4317934937      -16.5070128045      -66.1773887486  TIP3      11194           0.0000000000
     55833     11386  TIP3      H1             11.8238473140      -16.9301839774      -65.3907995947  TIP3      11194           0.0000000000
     55834     11386  TIP3      H2             10.4596136000      -16.6228192840      -66.0309761779  TIP3      11194           0.0000000000
     55835     11387  TIP3      OH2            14.7157271797      -12.6597892233      -65.2683014401  TIP3      11195           0.0000000000
     55836     11387  TIP3      H1             14.1498090697      -12.8622535142      -64.4829572242  TIP3      11195           0.0000000000
     55837     11387  TIP3      H2             14.5368354252      -11.7342999412      -65.5078834558  TIP3      11195           0.0000000000
     55838     11388  TIP3      OH2            15.5637460543       -7.7533208186      -79.3133125331  TIP3      11196           0.0000000000
     55839     11388  TIP3      H1             15.5516582390       -7.9681037053      -80.2654422976  TIP3      11196           0.0000000000
     55840     11388  TIP3      H2             16.4569014331       -7.3630090660      -79.2431738050  TIP3      11196           0.0000000000
     55841     11389  TIP3      OH2            11.0572624894      -13.9208768026      -78.8358278611  TIP3      11197           0.0000000000
     55842     11389  TIP3      H1             10.7609840225      -13.9798383622      -77.9077831431  TIP3      11197           0.0000000000
     55843     11389  TIP3      H2             10.8310448433      -14.8099494178      -79.1306210579  TIP3      11197           0.0000000000
     55844     11390  TIP3      OH2             6.8914791658      -11.1958616895      -68.2750567269  TIP3      11198           0.0000000000
     55845     11390  TIP3      H1              6.1498863830      -11.2079912490      -67.6449281356  TIP3      11198           0.0000000000
     55846     11390  TIP3      H2              6.8419538572      -10.2902894593      -68.6564065079  TIP3      11198           0.0000000000
     55847     11391  TIP3      OH2             6.8487116698      -11.0893854123      -73.4173606571  TIP3      11199           0.0000000000
     55848     11391  TIP3      H1              5.9098163297      -11.3339946021      -73.5539862087  TIP3      11199           0.0000000000
     55849     11391  TIP3      H2              7.2248158525      -11.3710372350      -74.2772188131  TIP3      11199           0.0000000000
     55850     11392  TIP3      OH2            12.3782990273      -10.5863954122      -74.6867444750  TIP3      11200           0.0000000000
     55851     11392  TIP3      H1             11.9678832522       -9.7543429442      -75.0091194620  TIP3      11200           0.0000000000
     55852     11392  TIP3      H2             13.0689601992      -10.7386718107      -75.3580587395  TIP3      11200           0.0000000000
     55853     11393  TIP3      OH2            11.4115700687      -10.3313414305      -63.1477953851  TIP3      11201           0.0000000000
     55854     11393  TIP3      H1             10.9018935392      -11.1516533747      -62.9241182025  TIP3      11201           0.0000000000
     55855     11393  TIP3      H2             12.2803095441      -10.5278113763      -62.7629331538  TIP3      11201           0.0000000000
     55856     11394  TIP3      OH2            13.4073297138      -11.0930962668      -71.8001322967  TIP3      11202           0.0000000000
     55857     11394  TIP3      H1             13.1218683999      -10.5308211012      -72.5397656296  TIP3      11202           0.0000000000
     55858     11394  TIP3      H2             13.5007676365      -11.9410250785      -72.2730100967  TIP3      11202           0.0000000000
     55859     11395  TIP3      OH2             4.5129098260      -10.9498262852      -66.6049863869  TIP3      11203           0.0000000000
     55860     11395  TIP3      H1              4.5943396355      -10.5413940156      -65.7255255016  TIP3      11203           0.0000000000
     55861     11395  TIP3      H2              4.0713889396      -11.7878804063      -66.3947971747  TIP3      11203           0.0000000000
     55862     11396  TIP3      OH2             8.1053632508      -13.2614985383      -79.3665134630  TIP3      11204           0.0000000000
     55863     11396  TIP3      H1              7.5441902858      -13.9141279345      -78.9052563383  TIP3      11204           0.0000000000
     55864     11396  TIP3      H2              7.5435228788      -12.9248479501      -80.0774299668  TIP3      11204           0.0000000000
     55865     11397  TIP3      OH2             1.1698525046      -13.8404996184      -72.6137873568  TIP3      11205           0.0000000000
     55866     11397  TIP3      H1              1.8539560993      -13.8796357408      -71.9151966821  TIP3      11205           0.0000000000
     55867     11397  TIP3      H2              1.6170500530      -14.2143432759      -73.3963091758  TIP3      11205           0.0000000000
     55868     11398  TIP3      OH2             2.4516096978      -13.1004545161      -77.2533591613  TIP3      11206           0.0000000000
     55869     11398  TIP3      H1              2.9650415991      -12.5149844928      -77.8445271004  TIP3      11206           0.0000000000
     55870     11398  TIP3      H2              1.7570494119      -12.4786422965      -76.9630303995  TIP3      11206           0.0000000000
     55871     11399  TIP3      OH2            12.6052355922       -9.5045259615      -67.2384934140  TIP3      11207           0.0000000000
     55872     11399  TIP3      H1             12.9782539781      -10.1886110821      -67.8326496305  TIP3      11207           0.0000000000
     55873     11399  TIP3      H2             12.1304592124      -10.0361799794      -66.5760740556  TIP3      11207           0.0000000000
     55874     11400  TIP3      OH2             9.4072122560      -13.5239383186      -72.4184387367  TIP3      11208           0.0000000000
     55875     11400  TIP3      H1              8.4739108024      -13.5249834542      -72.1270186717  TIP3      11208           0.0000000000
     55876     11400  TIP3      H2              9.8868143381      -13.6973473207      -71.5946586849  TIP3      11208           0.0000000000
     55877     11401  TIP3      OH2             4.2119922618      -11.9794170366      -73.5450027314  TIP3      11209           0.0000000000
     55878     11401  TIP3      H1              3.3292519824      -11.8214529760      -73.9378591764  TIP3      11209           0.0000000000
     55879     11401  TIP3      H2              4.4972014053      -12.8120527400      -73.9561520035  TIP3      11209           0.0000000000
     55880     11402  TIP3      OH2             7.8472176644      -11.9020303283      -75.9013774065  TIP3      11210           0.0000000000
     55881     11402  TIP3      H1              8.8091070235      -11.8191262890      -75.7457276524  TIP3      11210           0.0000000000
     55882     11402  TIP3      H2              7.6250351025      -11.2654096804      -76.6045076081  TIP3      11210           0.0000000000
     55883     11403  TIP3      OH2            13.8092960262      -14.2909155062      -69.1757821784  TIP3      11211           0.0000000000
     55884     11403  TIP3      H1             13.1267895172      -14.2434420315      -68.4702252750  TIP3      11211           0.0000000000
     55885     11403  TIP3      H2             13.2996193254      -14.5484250512      -69.9581486544  TIP3      11211           0.0000000000
     55886     11404  TIP3      OH2             6.5624768823      -10.7527132182      -78.3292303028  TIP3      11212           0.0000000000
     55887     11404  TIP3      H1              5.9928733784      -11.1052055184      -79.0302018832  TIP3      11212           0.0000000000
     55888     11404  TIP3      H2              7.3799228640      -10.5510023906      -78.8126035726  TIP3      11212           0.0000000000
     55889     11405  TIP3      OH2            17.0093804053        1.3478497779      -62.8493308368  TIP3      11213           0.0000000000
     55890     11405  TIP3      H1             17.2757890735        1.7319014259      -63.7035092125  TIP3      11213           0.0000000000
     55891     11405  TIP3      H2             17.7333532538        1.6681303985      -62.2904126720  TIP3      11213           0.0000000000
     55892     11406  TIP3      OH2             4.6872836434       -6.1855838447      -63.2757771089  TIP3      11214           0.0000000000
     55893     11406  TIP3      H1              5.4065433945       -5.9354616193      -62.6740011155  TIP3      11214           0.0000000000
     55894     11406  TIP3      H2              3.9135490862       -6.1027858310      -62.6763329475  TIP3      11214           0.0000000000
     55895     11407  TIP3      OH2            10.6848822733      -10.7714991473      -70.5201956138  TIP3      11215           0.0000000000
     55896     11407  TIP3      H1             11.2796808184      -11.3108668631      -71.0533854221  TIP3      11215           0.0000000000
     55897     11407  TIP3      H2             10.5378192909      -11.3208303437      -69.7389256483  TIP3      11215           0.0000000000
     55898     11408  TIP3      OH2             5.6943827605      -14.6328029339      -74.0672555500  TIP3      11216           0.0000000000
     55899     11408  TIP3      H1              5.3828110539      -15.5542225415      -74.0912254098  TIP3      11216           0.0000000000
     55900     11408  TIP3      H2              6.4801201236      -14.6990763551      -74.6270797331  TIP3      11216           0.0000000000
     55901     11409  TIP3      OH2             9.3248700751      -12.4462144646      -68.1077417321  TIP3      11217           0.0000000000
     55902     11409  TIP3      H1              8.5007301395      -11.9264534295      -68.0201142602  TIP3      11217           0.0000000000
     55903     11409  TIP3      H2              9.8798162891      -12.0924762502      -67.3863314476  TIP3      11217           0.0000000000
     55904     11410  TIP3      OH2             9.9202439750       -6.2429770643      -76.3811815142  TIP3      11218           0.0000000000
     55905     11410  TIP3      H1              9.1170979831       -6.6901393697      -76.7254850797  TIP3      11218           0.0000000000
     55906     11410  TIP3      H2              9.6922464723       -6.1063074763      -75.4419443199  TIP3      11218           0.0000000000
     55907     11411  TIP3      OH2            17.1105141303       -7.0383524079      -67.6271514493  TIP3      11219           0.0000000000
     55908     11411  TIP3      H1             17.6653812701       -6.5258017020      -68.2341688108  TIP3      11219           0.0000000000
     55909     11411  TIP3      H2             16.2311327931       -6.9659440273      -68.0489391906  TIP3      11219           0.0000000000
     55910     11412  TIP3      OH2            13.7718519655      -13.3807211540      -78.2242694058  TIP3      11220           0.0000000000
     55911     11412  TIP3      H1             12.8266762593      -13.2544071999      -78.4070848847  TIP3      11220           0.0000000000
     55912     11412  TIP3      H2             14.0781001652      -12.5317602410      -77.8647733330  TIP3      11220           0.0000000000
     55913     11413  TIP3      OH2            11.4231766782       -5.9540529016      -65.1436208080  TIP3      11221           0.0000000000
     55914     11413  TIP3      H1             11.0369704254       -6.3818882924      -64.3801106881  TIP3      11221           0.0000000000
     55915     11413  TIP3      H2             11.1493211862       -5.0340147343      -65.0560815082  TIP3      11221           0.0000000000
     55916     11414  TIP3      OH2            14.4761610029      -11.4713003163      -76.5595089365  TIP3      11222           0.0000000000
     55917     11414  TIP3      H1             15.3813888274      -11.6290818961      -76.2252746559  TIP3      11222           0.0000000000
     55918     11414  TIP3      H2             14.5663913091      -10.6676884267      -77.0948792047  TIP3      11222           0.0000000000
     55919     11415  TIP3      OH2             5.0273124504       -6.8237813702      -70.6100490184  TIP3      11223           0.0000000000
     55920     11415  TIP3      H1              5.7022037359       -6.9095010509      -71.3123358870  TIP3      11223           0.0000000000
     55921     11415  TIP3      H2              5.0833410474       -7.6839448109      -70.1554437135  TIP3      11223           0.0000000000
     55922     11416  TIP3      OH2            12.0098678032       -4.7641307422      -77.3513074479  TIP3      11224           0.0000000000
     55923     11416  TIP3      H1             11.6458079857       -3.9178761968      -77.0160436605  TIP3      11224           0.0000000000
     55924     11416  TIP3      H2             11.2725972526       -5.3891335808      -77.1700778940  TIP3      11224           0.0000000000
     55925     11417  TIP3      OH2             2.0136432571       -8.4252029228      -65.3494839995  TIP3      11225           0.0000000000
     55926     11417  TIP3      H1              2.1832376410       -8.8690991925      -64.4957594480  TIP3      11225           0.0000000000
     55927     11417  TIP3      H2              1.3927220425       -9.0340220443      -65.7879457536  TIP3      11225           0.0000000000
     55928     11418  TIP3      OH2             9.0404983453       -8.8537651463      -63.1685068694  TIP3      11226           0.0000000000
     55929     11418  TIP3      H1              8.6902618266       -9.1669715296      -64.0205083633  TIP3      11226           0.0000000000
     55930     11418  TIP3      H2              9.9493457510       -9.2094504218      -63.2021048467  TIP3      11226           0.0000000000
     55931     11419  TIP3      OH2            13.7130932423       -3.5308706766      -65.2179154616  TIP3      11227           0.0000000000
     55932     11419  TIP3      H1             12.7878387246       -3.3495026311      -65.4510070287  TIP3      11227           0.0000000000
     55933     11419  TIP3      H2             13.6788396581       -3.2368954562      -64.2856371095  TIP3      11227           0.0000000000
     55934     11420  TIP3      OH2            19.3788776848      -11.3539333248      -76.7977974004  TIP3      11228           0.0000000000
     55935     11420  TIP3      H1             18.8000259107      -11.6623975542      -77.5104578821  TIP3      11228           0.0000000000
     55936     11420  TIP3      H2             19.4686076173      -10.4192234274      -77.0871747396  TIP3      11228           0.0000000000
     55937     11421  TIP3      OH2            19.3673087584       -5.4866160937      -64.0237605469  TIP3      11229           0.0000000000
     55938     11421  TIP3      H1             18.4742094632       -5.2654478756      -64.3858881974  TIP3      11229           0.0000000000
     55939     11421  TIP3      H2             19.9130109208       -5.5377566060      -64.8355923004  TIP3      11229           0.0000000000
     55940     11422  TIP3      OH2            17.6691066038       -2.5289358749      -76.4518180291  TIP3      11230           0.0000000000
     55941     11422  TIP3      H1             17.2844495252       -3.3537481417      -76.1317769143  TIP3      11230           0.0000000000
     55942     11422  TIP3      H2             17.9725444698       -2.7308814095      -77.3558081815  TIP3      11230           0.0000000000
     55943     11423  TIP3      OH2            14.8881805929       -7.6802808316      -69.3870400167  TIP3      11231           0.0000000000
     55944     11423  TIP3      H1             13.9394715924       -7.9106250403      -69.4128675672  TIP3      11231           0.0000000000
     55945     11423  TIP3      H2             15.2915865809       -8.4972594060      -69.7327515089  TIP3      11231           0.0000000000
     55946     11424  TIP3      OH2             7.3933194313       -3.3743198076      -73.2224885057  TIP3      11232           0.0000000000
     55947     11424  TIP3      H1              7.8941274849       -2.5697237173      -73.4295662150  TIP3      11232           0.0000000000
     55948     11424  TIP3      H2              6.5162003385       -3.1413336509      -73.5561611762  TIP3      11232           0.0000000000
     55949     11425  TIP3      OH2             3.1376756979       -8.5002698333      -78.7082366272  TIP3      11233           0.0000000000
     55950     11425  TIP3      H1              3.7509354636       -7.8975498904      -78.2458776524  TIP3      11233           0.0000000000
     55951     11425  TIP3      H2              2.2646877212       -8.2430078042      -78.3605410854  TIP3      11233           0.0000000000
     55952     11426  TIP3      OH2             8.8148196941       -5.7101533918      -73.7005633428  TIP3      11234           0.0000000000
     55953     11426  TIP3      H1              8.4963850515       -4.7906304524      -73.6238821732  TIP3      11234           0.0000000000
     55954     11426  TIP3      H2              8.0925673446       -6.2012358712      -73.2610833353  TIP3      11234           0.0000000000
     55955     11427  TIP3      OH2             9.2605405623       -1.5225256933      -67.2944066251  TIP3      11235           0.0000000000
     55956     11427  TIP3      H1              9.7220255387       -0.7187635765      -67.5828026502  TIP3      11235           0.0000000000
     55957     11427  TIP3      H2              9.8781423993       -1.8649993046      -66.6224497871  TIP3      11235           0.0000000000
     55958     11428  TIP3      OH2             7.4912840371       -0.7116459472      -74.1930432283  TIP3      11236           0.0000000000
     55959     11428  TIP3      H1              6.5280087193       -0.5771458239      -74.0391787870  TIP3      11236           0.0000000000
     55960     11428  TIP3      H2              7.8499355910        0.1194896060      -73.8289451474  TIP3      11236           0.0000000000
     55961     11429  TIP3      OH2            12.7751750985       -5.5271546179      -67.6790793589  TIP3      11237           0.0000000000
     55962     11429  TIP3      H1             12.4558968530       -5.7101288955      -66.7721237368  TIP3      11237           0.0000000000
     55963     11429  TIP3      H2             13.4120249766       -6.2401306717      -67.8322325957  TIP3      11237           0.0000000000
     55964     11430  TIP3      OH2            15.0913162681       -4.4765673912      -78.5379181232  TIP3      11238           0.0000000000
     55965     11430  TIP3      H1             15.3885859441       -4.9535926453      -77.7417444696  TIP3      11238           0.0000000000
     55966     11430  TIP3      H2             14.1343566743       -4.6413975347      -78.4858838753  TIP3      11238           0.0000000000
     55967     11431  TIP3      OH2            15.6057523877       -0.9441980679      -65.1928939002  TIP3      11239           0.0000000000
     55968     11431  TIP3      H1             14.9112750420       -1.4365925957      -65.6700327326  TIP3      11239           0.0000000000
     55969     11431  TIP3      H2             15.7863101383       -0.2426125766      -65.8534696820  TIP3      11239           0.0000000000
     55970     11432  TIP3      OH2            19.5802182220       -0.0679890168      -78.2867898184  TIP3      11240           0.0000000000
     55971     11432  TIP3      H1             20.2727097081        0.5588238319      -78.5687664834  TIP3      11240           0.0000000000
     55972     11432  TIP3      H2             18.8507780348        0.5472732441      -78.0624725107  TIP3      11240           0.0000000000
     55973     11433  TIP3      OH2             3.6633521771      -13.6891187433      -65.8021833042  TIP3      11241           0.0000000000
     55974     11433  TIP3      H1              2.7566055734      -13.3374043940      -65.8207010969  TIP3      11241           0.0000000000
     55975     11433  TIP3      H2              3.5519707173      -14.5342796927      -65.3385299108  TIP3      11241           0.0000000000
     55976     11434  TIP3      OH2            15.9045067401       -5.8163265452      -76.2999346709  TIP3      11242           0.0000000000
     55977     11434  TIP3      H1             15.6600137369       -6.6416907611      -75.8334864381  TIP3      11242           0.0000000000
     55978     11434  TIP3      H2             16.8612345499       -5.7693090991      -76.1624900417  TIP3      11242           0.0000000000
     55979     11435  TIP3      OH2             3.2755135090       -1.9068679723      -67.3730351446  TIP3      11243           0.0000000000
     55980     11435  TIP3      H1              3.5804832057       -2.8269242554      -67.3662579408  TIP3      11243           0.0000000000
     55981     11435  TIP3      H2              3.5387225128       -1.6145759788      -66.4931823228  TIP3      11243           0.0000000000
     55982     11436  TIP3      OH2             8.0217957640       -3.8154310043      -77.6678189815  TIP3      11244           0.0000000000
     55983     11436  TIP3      H1              8.2792122505       -4.3769127183      -76.9221811956  TIP3      11244           0.0000000000
     55984     11436  TIP3      H2              8.1130657503       -2.9017959339      -77.3244254114  TIP3      11244           0.0000000000
     55985     11437  TIP3      OH2             4.5375598963       -6.6042759719      -77.1308113329  TIP3      11245           0.0000000000
     55986     11437  TIP3      H1              3.8541218688       -6.1858739750      -76.5655131971  TIP3      11245           0.0000000000
     55987     11437  TIP3      H2              5.0745055513       -5.8390210377      -77.4067375948  TIP3      11245           0.0000000000
     55988     11438  TIP3      OH2            12.3946744518      -13.9154285632      -66.8342505278  TIP3      11246           0.0000000000
     55989     11438  TIP3      H1             13.1117927790      -13.8565655178      -66.1937697551  TIP3      11246           0.0000000000
     55990     11438  TIP3      H2             12.0126143080      -14.7929055126      -66.6325088373  TIP3      11246           0.0000000000
     55991     11439  TIP3      OH2            13.1248982208      -14.3207193101      -75.7463403220  TIP3      11247           0.0000000000
     55992     11439  TIP3      H1             13.3915391026      -13.8736975396      -76.5722744339  TIP3      11247           0.0000000000
     55993     11439  TIP3      H2             13.7198419553      -13.9094765410      -75.1069664749  TIP3      11247           0.0000000000
     55994     11440  TIP3      OH2            10.8145085364       -2.1706726521      -76.9501013527  TIP3      11248           0.0000000000
     55995     11440  TIP3      H1             10.0008939775       -1.6501354962      -76.8508006401  TIP3      11248           0.0000000000
     55996     11440  TIP3      H2             11.3680961912       -1.6484380397      -77.5555667555  TIP3      11248           0.0000000000
     55997     11441  TIP3      OH2            10.3604351888      -12.6038676481      -74.9404805603  TIP3      11249           0.0000000000
     55998     11441  TIP3      H1             11.1424818751      -12.0164841626      -74.9085687795  TIP3      11249           0.0000000000
     55999     11441  TIP3      H2             10.0944821882      -12.7294505700      -74.0114038498  TIP3      11249           0.0000000000
     56000     11442  TIP3      OH2            10.9264888108      -11.5660884996      -65.7367308949  TIP3      11250           0.0000000000
     56001     11442  TIP3      H1             10.9977619071      -11.0092859394      -64.9396696607  TIP3      11250           0.0000000000
     56002     11442  TIP3      H2             11.5860585357      -12.2642451365      -65.6445175860  TIP3      11250           0.0000000000
     56003     11443  TIP3      OH2            11.2184212838      -15.5393777808      -74.0608608102  TIP3      11251           0.0000000000
     56004     11443  TIP3      H1             10.8947639261      -14.8901452947      -73.4141743909  TIP3      11251           0.0000000000
     56005     11443  TIP3      H2             11.9139658671      -14.9906592618      -74.5016962749  TIP3      11251           0.0000000000
     56006     11444  TIP3      OH2             8.1838067295       -1.1363219519      -76.9009168518  TIP3      11252           0.0000000000
     56007     11444  TIP3      H1              8.3646239933       -0.3114108850      -77.4035239239  TIP3      11252           0.0000000000
     56008     11444  TIP3      H2              7.9471937201       -0.7986047226      -76.0140440617  TIP3      11252           0.0000000000
     56009     11445  TIP3      OH2             6.8714735009      -14.4397581829      -77.2943142433  TIP3      11253           0.0000000000
     56010     11445  TIP3      H1              6.8108943946      -13.5265861166      -76.9488674417  TIP3      11253           0.0000000000
     56011     11445  TIP3      H2              7.7833936232      -14.6638378980      -77.0209564612  TIP3      11253           0.0000000000
     56012     11446  TIP3      OH2            17.0996190770      -13.7049690038      -64.8958817244  TIP3      11254           0.0000000000
     56013     11446  TIP3      H1             16.1730060486      -13.3854534784      -65.0235219686  TIP3      11254           0.0000000000
     56014     11446  TIP3      H2             17.4015243201      -13.7151519507      -65.8191570073  TIP3      11254           0.0000000000
     56015     11447  TIP3      OH2            15.7129348336       -9.9033138168      -70.9000235731  TIP3      11255           0.0000000000
     56016     11447  TIP3      H1             14.8889174670      -10.3617312335      -71.1567056883  TIP3      11255           0.0000000000
     56017     11447  TIP3      H2             16.1881555831      -10.5963733537      -70.3771362033  TIP3      11255           0.0000000000
     56018     11448  TIP3      OH2             5.1193429910       -3.9790171692      -78.3124799153  TIP3      11256           0.0000000000
     56019     11448  TIP3      H1              5.7818450909       -3.3704870759      -77.9646476183  TIP3      11256           0.0000000000
     56020     11448  TIP3      H2              5.6533690282       -4.4435518854      -78.9883094745  TIP3      11256           0.0000000000
     56021     11449  TIP3      OH2             3.5130752908      -11.2966405814      -79.1009207226  TIP3      11257           0.0000000000
     56022     11449  TIP3      H1              3.4784079428      -10.3338995607      -78.9793200024  TIP3      11257           0.0000000000
     56023     11449  TIP3      H2              2.6375889132      -11.5051977987      -79.4426536040  TIP3      11257           0.0000000000
     56024     11450  TIP3      OH2            16.7778508006       -0.6515074795      -69.2132310201  TIP3      11258           0.0000000000
     56025     11450  TIP3      H1             16.6897758549        0.0268138106      -69.9115577915  TIP3      11258           0.0000000000
     56026     11450  TIP3      H2             17.7426086345       -0.5998148026      -69.0434742341  TIP3      11258           0.0000000000
     56027     11451  TIP3      OH2             4.2703306363      -16.5326020298      -70.4064915851  TIP3      11259           0.0000000000
     56028     11451  TIP3      H1              4.0771749270      -16.5147542748      -71.3706547119  TIP3      11259           0.0000000000
     56029     11451  TIP3      H2              3.8564752629      -17.3858006925      -70.1576917481  TIP3      11259           0.0000000000
     56030     11452  TIP3      OH2             3.2296761126       -2.6106880467      -74.2689780281  TIP3      11260           0.0000000000
     56031     11452  TIP3      H1              2.3715644647       -2.1672838253      -74.3074674033  TIP3      11260           0.0000000000
     56032     11452  TIP3      H2              3.6987228316       -2.1460808129      -74.9741670799  TIP3      11260           0.0000000000
     56033     11453  TIP3      OH2             2.4287772894        0.0409225205      -62.9819104174  TIP3      11261           0.0000000000
     56034     11453  TIP3      H1              3.0344445703       -0.1598687948      -62.2421269280  TIP3      11261           0.0000000000
     56035     11453  TIP3      H2              2.0290088608       -0.8277813526      -63.1624714205  TIP3      11261           0.0000000000
     56036     11454  TIP3      OH2             7.1182981226       -1.0444632436      -61.3712491749  TIP3      11262           0.0000000000
     56037     11454  TIP3      H1              7.8741009482       -1.5423775470      -61.0388833253  TIP3      11262           0.0000000000
     56038     11454  TIP3      H2              7.0873353112       -1.3196704937      -62.3073854249  TIP3      11262           0.0000000000
     56039     11455  TIP3      OH2            11.7055154851       -1.4311194963      -79.3778294686  TIP3      11263           0.0000000000
     56040     11455  TIP3      H1             10.8466543950       -1.8955744750      -79.4029629475  TIP3      11263           0.0000000000
     56041     11455  TIP3      H2             12.1583277121       -1.9171238679      -80.0697826263  TIP3      11263           0.0000000000
     56042     11456  TIP3      OH2            13.6184035687       -2.6457517579      -62.6269706873  TIP3      11264           0.0000000000
     56043     11456  TIP3      H1             13.3077083764       -3.5341205502      -62.3606721562  TIP3      11264           0.0000000000
     56044     11456  TIP3      H2             14.3872926509       -2.5358897613      -62.0331617892  TIP3      11264           0.0000000000
     56045     11457  TIP3      OH2            15.8363105079       -1.7404488069      -79.7691898471  TIP3      11265           0.0000000000
     56046     11457  TIP3      H1             16.0721649121       -2.5557953638      -79.2853617875  TIP3      11265           0.0000000000
     56047     11457  TIP3      H2             16.6163969484       -1.5633964212      -80.3113503840  TIP3      11265           0.0000000000
     56048     11458  TIP3      OH2             2.3403989218       -6.1874651730      -61.9843193455  TIP3      11266           0.0000000000
     56049     11458  TIP3      H1              2.5066353143       -7.0990065465      -62.2858206684  TIP3      11266           0.0000000000
     56050     11458  TIP3      H2              1.6005802436       -5.9295359140      -62.5587662740  TIP3      11266           0.0000000000
     56051     11459  TIP3      OH2             6.7953079138       -5.7729694638      -79.8398091109  TIP3      11267           0.0000000000
     56052     11459  TIP3      H1              6.8547175347       -6.6049627961      -79.3616322827  TIP3      11267           0.0000000000
     56053     11459  TIP3      H2              7.3507576242       -6.0045172589      -80.6135615507  TIP3      11267           0.0000000000
     56054     11460  TIP3      OH2             9.0810638650       -6.2076347237      -62.5898074471  TIP3      11268           0.0000000000
     56055     11460  TIP3      H1              8.7234642582       -5.8721905547      -63.4429579419  TIP3      11268           0.0000000000
     56056     11460  TIP3      H2              9.1121807578       -7.1834457910      -62.7359934178  TIP3      11268           0.0000000000
     56057     11461  TIP3      OH2            14.7539671754       -6.3418276737      -65.2099521725  TIP3      11269           0.0000000000
     56058     11461  TIP3      H1             15.5415428052       -5.7560855725      -65.2674558422  TIP3      11269           0.0000000000
     56059     11461  TIP3      H2             14.0547657455       -5.6724324306      -65.1692342426  TIP3      11269           0.0000000000
     56060     11462  TIP3      OH2             3.2636186389       -8.9622816112      -62.6049246184  TIP3      11270           0.0000000000
     56061     11462  TIP3      H1              3.6799826018       -9.8255910873      -62.6953684737  TIP3      11270           0.0000000000
     56062     11462  TIP3      H2              3.0289228935       -8.9567414192      -61.6630114502  TIP3      11270           0.0000000000
     56063     11463  TIP3      OH2             7.9103129567       -7.7946092817      -77.5520820871  TIP3      11271           0.0000000000
     56064     11463  TIP3      H1              7.4096973653       -8.3384755866      -76.9191280779  TIP3      11271           0.0000000000
     56065     11463  TIP3      H2              8.2284723026       -8.4770727674      -78.1879532453  TIP3      11271           0.0000000000
     56066     11464  TIP3      OH2             7.1620936864      -10.0171145587      -65.2495054647  TIP3      11272           0.0000000000
     56067     11464  TIP3      H1              6.5636605798       -9.2966108284      -64.9948559761  TIP3      11272           0.0000000000
     56068     11464  TIP3      H2              7.5581672868       -9.6502402082      -66.0584296352  TIP3      11272           0.0000000000
     56069     11465  TIP3      OH2             8.9955259851       -9.6342833324      -79.3454667729  TIP3      11273           0.0000000000
     56070     11465  TIP3      H1              8.8722796243       -9.7398619656      -80.2997703504  TIP3      11273           0.0000000000
     56071     11465  TIP3      H2              9.9735034451       -9.5505330414      -79.2517555875  TIP3      11273           0.0000000000
     56072     11466  TIP3      OH2            12.2554743831       -7.4205634722      -61.7245575354  TIP3      11274           0.0000000000
     56073     11466  TIP3      H1             13.1625248156       -7.4423055034      -62.0948831463  TIP3      11274           0.0000000000
     56074     11466  TIP3      H2             12.1230742486       -8.3471673207      -61.4999520416  TIP3      11274           0.0000000000
     56075     11467  TIP3      OH2            18.1079107571       -7.1029858727       80.1815828691  TIP3      11275           0.0000000000
     56076     11467  TIP3      H1             18.0552839629       -7.6251474955       79.3623462606  TIP3      11275           0.0000000000
     56077     11467  TIP3      H2             18.3741965820       -6.2232109041       79.8908875892  TIP3      11275           0.0000000000
     56078     11468  TIP3      OH2             7.5680659445      -12.6400002675      -64.1935198963  TIP3      11276           0.0000000000
     56079     11468  TIP3      H1              7.6828831134      -13.3488341639      -64.8530088593  TIP3      11276           0.0000000000
     56080     11468  TIP3      H2              7.5218883919      -11.8289627096      -64.7424208664  TIP3      11276           0.0000000000
     56081     11469  TIP3      OH2             7.9712338408      -14.2576722519      -66.6388015311  TIP3      11277           0.0000000000
     56082     11469  TIP3      H1              8.4791419338      -13.7923376798      -67.3458555617  TIP3      11277           0.0000000000
     56083     11469  TIP3      H2              7.0774943589      -14.3354730040      -67.0445484446  TIP3      11277           0.0000000000
     56084     11470  TIP3      OH2             9.5087092743       -8.7669534272      -66.3982618819  TIP3      11278           0.0000000000
     56085     11470  TIP3      H1             10.2636161612       -8.9320928662      -66.9711972381  TIP3      11278           0.0000000000
     56086     11470  TIP3      H2              9.1436119880       -7.9328234431      -66.7349552416  TIP3      11278           0.0000000000
     56087     11471  TIP3      OH2            13.9012137158      -11.0030611743      -61.4265275853  TIP3      11279           0.0000000000
     56088     11471  TIP3      H1             14.1426289679      -11.9388082223      -61.5374018212  TIP3      11279           0.0000000000
     56089     11471  TIP3      H2             14.7776542536      -10.5802338928      -61.4142519431  TIP3      11279           0.0000000000
     56090     11472  TIP3      OH2            15.2322453646       -8.2086318157      -63.2542170807  TIP3      11280           0.0000000000
     56091     11472  TIP3      H1             15.0033415124       -7.5008311330      -63.8972518865  TIP3      11280           0.0000000000
     56092     11472  TIP3      H2             16.1928296157       -8.2593286716      -63.4436708499  TIP3      11280           0.0000000000
     56093     11473  TIP3      OH2             6.0298772821      -11.3881797825      -62.2724045600  TIP3      11281           0.0000000000
     56094     11473  TIP3      H1              5.2596504400      -11.9653624564      -62.4407543650  TIP3      11281           0.0000000000
     56095     11473  TIP3      H2              6.6828260376      -11.7584692521      -62.8951199837  TIP3      11281           0.0000000000
     56096     11474  TIP3      OH2             8.7605779890      -16.8221039904      -66.2516486727  TIP3      11282           0.0000000000
     56097     11474  TIP3      H1              8.5761008951      -15.8585741624      -66.3474788302  TIP3      11282           0.0000000000
     56098     11474  TIP3      H2              8.0106354735      -17.1877183894      -66.7525323088  TIP3      11282           0.0000000000
     56099     11475  TIP3      OH2            10.0243659563      -12.4638243488      -62.6108895170  TIP3      11283           0.0000000000
     56100     11475  TIP3      H1              9.7104283179      -12.7489949750      -61.7310509871  TIP3      11283           0.0000000000
     56101     11475  TIP3      H2              9.2553627387      -12.6892396491      -63.1638893758  TIP3      11283           0.0000000000
     56102     11476  TIP3      OH2            12.7511702341      -13.3430504818      -63.5268592680  TIP3      11284           0.0000000000
     56103     11476  TIP3      H1             11.7861438802      -13.2969626236      -63.4228217947  TIP3      11284           0.0000000000
     56104     11476  TIP3      H2             13.0159497246      -13.9954963279      -62.8482326939  TIP3      11284           0.0000000000
     56105     11477  TIP3      OH2            14.3320823532      -14.7289547018      -61.6347473536  TIP3      11285           0.0000000000
     56106     11477  TIP3      H1             14.2850560889      -15.7068203955      -61.6026508202  TIP3      11285           0.0000000000
     56107     11477  TIP3      H2             14.0850610435      -14.4363846340      -60.7345787213  TIP3      11285           0.0000000000
     56108     11478  TIP3      OH2             4.1044339051      -13.4515191832      -62.5170396795  TIP3      11286           0.0000000000
     56109     11478  TIP3      H1              4.3547071700      -14.1870890786      -63.1031467694  TIP3      11286           0.0000000000
     56110     11478  TIP3      H2              4.0174335505      -13.9000761526      -61.6531975578  TIP3      11286           0.0000000000
     56111     11479  TIP3      OH2             8.9740374027      -17.4270152008      -63.5503566855  TIP3      11287           0.0000000000
     56112     11479  TIP3      H1              9.6533490761      -18.1308771071      -63.5672134754  TIP3      11287           0.0000000000
     56113     11479  TIP3      H2              8.8591105649      -17.2849279095      -64.5105391058  TIP3      11287           0.0000000000
     56114     11480  TIP3      OH2             9.3366393131      -15.8139361758      -61.4342537714  TIP3      11288           0.0000000000
     56115     11480  TIP3      H1              9.1621939363      -16.3204354989      -62.2662848243  TIP3      11288           0.0000000000
     56116     11480  TIP3      H2              8.7351915810      -15.0509807041      -61.5339378840  TIP3      11288           0.0000000000
     56117     11481  TIP3      OH2             8.7855863518        1.0871585864      -78.3027479536  TIP3      11289           0.0000000000
     56118     11481  TIP3      H1              9.7590713929        1.2007145097      -78.1973692580  TIP3      11289           0.0000000000
     56119     11481  TIP3      H2              8.6164596077        1.7608491337      -78.9610848023  TIP3      11289           0.0000000000
     56120     11482  TIP3      OH2             2.3690571866       -4.3057756571      -78.7963986234  TIP3      11290           0.0000000000
     56121     11482  TIP3      H1              3.3261920609       -4.1930127441      -78.5869595146  TIP3      11290           0.0000000000
     56122     11482  TIP3      H2              2.4247347851       -4.8888302543      -79.5624120067  TIP3      11290           0.0000000000
     56123     11483  TIP3      OH2             1.1416837273        1.0625689775      -73.8258631469  TIP3      11291           0.0000000000
     56124     11483  TIP3      H1              0.4210861426        0.5769148485      -74.2878515672  TIP3      11291           0.0000000000
     56125     11483  TIP3      H2              1.4180877147        0.4062451830      -73.1606549673  TIP3      11291           0.0000000000
     56126     11484  TIP3      OH2             1.9604688756       -0.8048144102      -71.9481336492  TIP3      11292           0.0000000000
     56127     11484  TIP3      H1              1.6072883424       -1.6840408304      -71.7494046143  TIP3      11292           0.0000000000
     56128     11484  TIP3      H2              2.1856341408       -0.4755773715      -71.0634321638  TIP3      11292           0.0000000000
     56129     11485  TIP3      OH2            19.4990022853       -0.0098248304      -69.0200801487  TIP3      11293           0.0000000000
     56130     11485  TIP3      H1             19.5293177629        0.1503563648      -68.0607481292  TIP3      11293           0.0000000000
     56131     11485  TIP3      H2             20.2023434301        0.5733376971      -69.3233554929  TIP3      11293           0.0000000000
     56132     11486  TIP3      OH2            19.0774297703       -0.4259152461      -66.0869701798  TIP3      11294           0.0000000000
     56133     11486  TIP3      H1             18.5976796085       -1.1941374020      -66.4581362869  TIP3      11294           0.0000000000
     56134     11486  TIP3      H2             19.5572052435       -0.8643431008      -65.3645249795  TIP3      11294           0.0000000000
     56135     11487  TIP3      OH2            17.5181493269       -4.6942004656      -61.4012015524  TIP3      11295           0.0000000000
     56136     11487  TIP3      H1             16.6108860453       -4.7220506388      -61.0378083531  TIP3      11295           0.0000000000
     56137     11487  TIP3      H2             17.8864277717       -3.8876968628      -60.9907901058  TIP3      11295           0.0000000000
     56138     11488  TIP3      OH2            18.8217832961       -6.3387113844      -75.9336866648  TIP3      11296           0.0000000000
     56139     11488  TIP3      H1             19.7068557021       -5.9576941700      -75.7943863815  TIP3      11296           0.0000000000
     56140     11488  TIP3      H2             18.8373055956       -7.0958729306      -75.3136185523  TIP3      11296           0.0000000000
     56141     11489  TIP3      OH2            19.1213544238       -8.1886694395      -74.0157300653  TIP3      11297           0.0000000000
     56142     11489  TIP3      H1             18.4635635334       -8.8599571118      -73.7180816840  TIP3      11297           0.0000000000
     56143     11489  TIP3      H2             19.8309342855       -8.2088694715      -73.3395422142  TIP3      11297           0.0000000000
     56144     11490  TIP3      OH2            18.9064917432       -5.6004147898      -69.2209030124  TIP3      11298           0.0000000000
     56145     11490  TIP3      H1             19.7849203529       -5.9643716358      -69.4423230241  TIP3      11298           0.0000000000
     56146     11490  TIP3      H2             19.1093258282       -4.6366977557      -69.2413114818  TIP3      11298           0.0000000000
     56147     11491  TIP3      OH2            17.5094852953       -2.6836722639      -66.8275837653  TIP3      11299           0.0000000000
     56148     11491  TIP3      H1             16.8195098585       -2.3410689695      -66.2362766374  TIP3      11299           0.0000000000
     56149     11491  TIP3      H2             16.9549712171       -3.0774241887      -67.5279343501  TIP3      11299           0.0000000000
     56150     11492  TIP3      OH2            19.5031283077       -8.4488276910      -77.6923581743  TIP3      11300           0.0000000000
     56151     11492  TIP3      H1             18.8994180746       -8.1099284649      -78.3768320682  TIP3      11300           0.0000000000
     56152     11492  TIP3      H2             19.4256315879       -7.7427337497      -77.0333398379  TIP3      11300           0.0000000000
     56153     11493  TIP3      OH2            17.4307615046      -11.2169612113      -79.0539322707  TIP3      11301           0.0000000000
     56154     11493  TIP3      H1             17.8778030768      -10.6113001523      -79.6706245336  TIP3      11301           0.0000000000
     56155     11493  TIP3      H2             17.6598938776      -12.0399315618      -79.5000742601  TIP3      11301           0.0000000000
     56156     11494  TIP3      OH2            17.0229151585       -9.7969345950      -73.4868933675  TIP3      11302           0.0000000000
     56157     11494  TIP3      H1             16.8692430064      -10.7565257424      -73.5830148857  TIP3      11302           0.0000000000
     56158     11494  TIP3      H2             16.6561943184       -9.6520045534      -72.5993154341  TIP3      11302           0.0000000000
     56159     11495  TIP3      OH2             2.0188086449       -7.7272548219      -69.4549006298  TIP3      11303           0.0000000000
     56160     11495  TIP3      H1              2.1963999250       -7.8104919813      -70.4180113726  TIP3      11303           0.0000000000
     56161     11495  TIP3      H2              2.9118913994       -7.9061462800      -69.1017387897  TIP3      11303           0.0000000000
     56162     11496  TIP3      OH2            17.8612304512       -7.8492724234      -63.8137327478  TIP3      11304           0.0000000000
     56163     11496  TIP3      H1             18.4790873430       -8.6042618066      -63.6915900725  TIP3      11304           0.0000000000
     56164     11496  TIP3      H2             18.4690467334       -7.0791097215      -63.8193961710  TIP3      11304           0.0000000000
     56165     11497  TIP3      OH2            19.3750679776       -9.9703493355      -63.1747228494  TIP3      11305           0.0000000000
     56166     11497  TIP3      H1             18.4917020707      -10.3673933725      -63.3290325380  TIP3      11305           0.0000000000
     56167     11497  TIP3      H2             19.9488535104      -10.7526929560      -63.2539491131  TIP3      11305           0.0000000000
     56168     11498  TIP3      OH2            16.6708021600      -12.2265531616      -75.0475913146  TIP3      11306           0.0000000000
     56169     11498  TIP3      H1             16.9717393449      -13.1603216212      -74.9443360027  TIP3      11306           0.0000000000
     56170     11498  TIP3      H2             17.4605767831      -11.8272304665      -75.4318000917  TIP3      11306           0.0000000000
     56171     11499  TIP3      OH2            17.3209956573      -11.6682647458      -69.6183466705  TIP3      11307           0.0000000000
     56172     11499  TIP3      H1             18.2882539595      -11.4731598480      -69.6219531245  TIP3      11307           0.0000000000
     56173     11499  TIP3      H2             17.1329900287      -11.5433915200      -68.6766471308  TIP3      11307           0.0000000000
     56174     11500  TIP3      OH2            17.3857377498      -10.9651688788      -66.8302902415  TIP3      11308           0.0000000000
     56175     11500  TIP3      H1             16.5024265879      -10.6748917495      -66.5169473823  TIP3      11308           0.0000000000
     56176     11500  TIP3      H2             17.8189063624      -10.1056187063      -67.0579695755  TIP3      11308           0.0000000000
     56177     11501  TIP3      OH2             1.6382771782      -12.4251467197      -63.2945658937  TIP3      11309           0.0000000000
     56178     11501  TIP3      H1              2.5750985083      -12.6408425310      -63.1091754228  TIP3      11309           0.0000000000
     56179     11501  TIP3      H2              1.1809690143      -13.2515121544      -63.0266075925  TIP3      11309           0.0000000000
     56180     11502  TIP3      OH2            19.6559701067      -16.9017811406      -61.4934497151  TIP3      11310           0.0000000000
     56181     11502  TIP3      H1             20.0098514864      -17.5627646282      -62.1137027308  TIP3      11310           0.0000000000
     56182     11502  TIP3      H2             19.7594500499      -16.0872593870      -62.0253057323  TIP3      11310           0.0000000000
     56183     11503  TIP3      OH2            17.3495657735      -14.9557361847      -75.0281868183  TIP3      11311           0.0000000000
     56184     11503  TIP3      H1             17.5667956013      -15.3834169271      -74.1731831192  TIP3      11311           0.0000000000
     56185     11503  TIP3      H2             16.7398603782      -15.5908771240      -75.4564942411  TIP3      11311           0.0000000000
     56186     11504  TIP3      OH2             2.8354490271      -14.1377835258      -70.4507822534  TIP3      11312           0.0000000000
     56187     11504  TIP3      H1              3.2957278627      -14.9649219308      -70.1965383827  TIP3      11312           0.0000000000
     56188     11504  TIP3      H2              3.3882622132      -13.4470851297      -70.0621633838  TIP3      11312           0.0000000000
     56189     11505  TIP3      OH2             1.1180369217      -11.1351368029      -69.4162686606  TIP3      11313           0.0000000000
     56190     11505  TIP3      H1              1.6818359025      -11.3868826576      -70.1760198149  TIP3      11313           0.0000000000
     56191     11505  TIP3      H2              1.5865737847      -10.3321670385      -69.1465948444  TIP3      11313           0.0000000000
     56192     11506  TIP3      OH2            19.1780077953      -14.8034582009      -63.1382093993  TIP3      11314           0.0000000000
     56193     11506  TIP3      H1             18.2394515643      -14.5320519726      -63.1899586266  TIP3      11314           0.0000000000
     56194     11506  TIP3      H2             19.2116615365      -15.3550164542      -63.9347131752  TIP3      11314           0.0000000000
     56195     11507  TIP3      OH2            19.1871218085      -14.8875213560      -78.4482328236  TIP3      11315           0.0000000000
     56196     11507  TIP3      H1             19.5768673411      -15.5976057381      -78.9662596737  TIP3      11315           0.0000000000
     56197     11507  TIP3      H2             19.8947761361      -14.2322734518      -78.4591397988  TIP3      11315           0.0000000000
     56198     11508  TIP3      OH2             1.4659633345      -14.8693938242      -75.3470183389  TIP3      11316           0.0000000000
     56199     11508  TIP3      H1              0.5309188653      -14.6796659124      -75.5131980922  TIP3      11316           0.0000000000
     56200     11508  TIP3      H2              1.9023900131      -14.3835041018      -76.0648755135  TIP3      11316           0.0000000000
     56201     11509  TIP3      OH2            16.2056256107        0.0820416549      -73.3901856019  TIP3      11317           0.0000000000
     56202     11509  TIP3      H1             16.8941737338       -0.2285887277      -74.0080662530  TIP3      11317           0.0000000000
     56203     11509  TIP3      H2             16.7302413098        0.5715753886      -72.7397159062  TIP3      11317           0.0000000000
     56204     11510  TIP3      OH2             1.4310356558      -16.2262693495      -67.0497887001  TIP3      11318           0.0000000000
     56205     11510  TIP3      H1              0.7644988009      -16.4166182139      -66.3665369065  TIP3      11318           0.0000000000
     56206     11510  TIP3      H2              0.9746867448      -15.5502294942      -67.5885419375  TIP3      11318           0.0000000000
     56207     11511  TIP3      OH2             3.6730436403       -3.0328089766      -62.8849517320  TIP3      11319           0.0000000000
     56208     11511  TIP3      H1              2.8359604136       -2.8054965067      -63.3239646526  TIP3      11319           0.0000000000
     56209     11511  TIP3      H2              3.4026896676       -3.1000075065      -61.9657711996  TIP3      11319           0.0000000000
     56210     11512  TIP3      OH2             6.5713541112       -2.0158223730      -66.6048607100  TIP3      11320           0.0000000000
     56211     11512  TIP3      H1              6.2425418962       -1.1487582162      -66.8789219152  TIP3      11320           0.0000000000
     56212     11512  TIP3      H2              7.4977959119       -1.9331861674      -66.9111307476  TIP3      11320           0.0000000000
     56213     11513  TIP3      OH2            10.8908305927       -0.5970488880      -63.7044320658  TIP3      11321           0.0000000000
     56214     11513  TIP3      H1             11.0301783689       -0.9475396635      -62.7947201729  TIP3      11321           0.0000000000
     56215     11513  TIP3      H2             11.7938290493       -0.2915700473      -63.9452120575  TIP3      11321           0.0000000000
     56216     11514  TIP3      OH2            13.1768360512        0.6740526990      -64.3906273593  TIP3      11322           0.0000000000
     56217     11514  TIP3      H1             13.9104566885        0.0883380963      -64.6296400722  TIP3      11322           0.0000000000
     56218     11514  TIP3      H2             13.5543146990        1.1115815931      -63.5976741603  TIP3      11322           0.0000000000
     56219     11515  TIP3      OH2            18.1991489186      -16.7135599742      -65.2848100238  TIP3      11323           0.0000000000
     56220     11515  TIP3      H1             17.3706040064      -16.4145393164      -65.6972270616  TIP3      11323           0.0000000000
     56221     11515  TIP3      H2             18.3666055663      -17.5364856881      -65.8022444920  TIP3      11323           0.0000000000
     56222     11516  TIP3      OH2             3.9954746115        1.2163077193      -66.6140298606  TIP3      11324           0.0000000000
     56223     11516  TIP3      H1              3.2643825229        1.7187863329      -67.0085913110  TIP3      11324           0.0000000000
     56224     11516  TIP3      H2              3.6853870253        1.0276006687      -65.7166131751  TIP3      11324           0.0000000000
     56225     11517  TIP3      OH2             6.4636043789        0.7947095629      -67.5384664098  TIP3      11325           0.0000000000
     56226     11517  TIP3      H1              5.5717141336        0.9474751465      -67.1457759783  TIP3      11325           0.0000000000
     56227     11517  TIP3      H2              6.4089190194        1.3850288123      -68.3119047373  TIP3      11325           0.0000000000
     56228     11518  TIP3      OH2            11.1727276574        0.7096004760      -68.3726878400  TIP3      11326           0.0000000000
     56229     11518  TIP3      H1             10.7076089858        1.2659742212      -69.0160758162  TIP3      11326           0.0000000000
     56230     11518  TIP3      H2             11.3019327524        1.3403203068      -67.6325797155  TIP3      11326           0.0000000000
     56231     11519  TIP3      OH2            13.4576224036       -0.4842666787      -67.3378849303  TIP3      11327           0.0000000000
     56232     11519  TIP3      H1             12.6050231712       -0.2055507590      -67.7099616997  TIP3      11327           0.0000000000
     56233     11519  TIP3      H2             13.9439099787        0.3531885641      -67.4300570728  TIP3      11327           0.0000000000
     56234     11520  TIP3      OH2            16.0402822946        1.0860374540      -67.1197123540  TIP3      11328           0.0000000000
     56235     11520  TIP3      H1             15.9884978749        2.0471269986      -67.3470933007  TIP3      11328           0.0000000000
     56236     11520  TIP3      H2             16.2570945125        0.7140624505      -67.9973393811  TIP3      11328           0.0000000000
     56237     11521  TIP3      OH2             3.4569240048       -0.1328320855      -69.6689870658  TIP3      11329           0.0000000000
     56238     11521  TIP3      H1              3.3737598353       -0.5930532417      -68.8070464958  TIP3      11329           0.0000000000
     56239     11521  TIP3      H2              4.2709301928       -0.5127245935      -70.0571974671  TIP3      11329           0.0000000000
     56240     11522  TIP3      OH2             5.5320662655       -1.4214822865      -71.0163825224  TIP3      11330           0.0000000000
     56241     11522  TIP3      H1              5.3670633382       -2.3548034977      -70.7822662904  TIP3      11330           0.0000000000
     56242     11522  TIP3      H2              6.3870446549       -1.2661712927      -70.5624961374  TIP3      11330           0.0000000000
     56243     11523  TIP3      OH2             8.1361517767       -0.9343632421      -70.1374384020  TIP3      11331           0.0000000000
     56244     11523  TIP3      H1              8.2895439862       -1.8580848736      -70.3997967628  TIP3      11331           0.0000000000
     56245     11523  TIP3      H2              8.1799345865       -0.9924924623      -69.1713344535  TIP3      11331           0.0000000000
     56246     11524  TIP3      OH2            11.5869553277      -15.2838326042      -71.0042495149  TIP3      11332           0.0000000000
     56247     11524  TIP3      H1             10.9131527197      -15.9244182684      -70.7200852451  TIP3      11332           0.0000000000
     56248     11524  TIP3      H2             12.1410491185      -15.8199927509      -71.5836329816  TIP3      11332           0.0000000000
     56249     11525  TIP3      OH2            16.7244585679      -17.2392943266      -70.9385529585  TIP3      11333           0.0000000000
     56250     11525  TIP3      H1             17.3364122299      -16.6468871222      -71.4443175072  TIP3      11333           0.0000000000
     56251     11525  TIP3      H2             15.8424059804      -16.8783727294      -71.1672282105  TIP3      11333           0.0000000000
     56252     11526  TIP3      OH2            18.3926554155      -15.9918835719      -72.6584603229  TIP3      11334           0.0000000000
     56253     11526  TIP3      H1             19.0800344541      -16.5679059730      -73.0698822520  TIP3      11334           0.0000000000
     56254     11526  TIP3      H2             18.9002489868      -15.1553137046      -72.5525008714  TIP3      11334           0.0000000000
     56255     11527  TIP3      OH2             3.9547954944      -16.6660983621      -73.1362271833  TIP3      11335           0.0000000000
     56256     11527  TIP3      H1              3.1649974847      -16.8547211152      -73.6799744865  TIP3      11335           0.0000000000
     56257     11527  TIP3      H2              4.4159388869      -17.5232696828      -73.2066250901  TIP3      11335           0.0000000000
     56258     11528  TIP3      OH2             2.7117337666      -16.9059165566      -77.4208913657  TIP3      11336           0.0000000000
     56259     11528  TIP3      H1              3.2145611281      -16.2643076769      -77.9644427310  TIP3      11336           0.0000000000
     56260     11528  TIP3      H2              2.1630009430      -16.3363880905      -76.8540459970  TIP3      11336           0.0000000000
     56261     11529  TIP3      OH2             8.4276969848      -16.7359640411      -73.3647985103  TIP3      11337           0.0000000000
     56262     11529  TIP3      H1              9.3271848425      -16.3764464619      -73.4392148116  TIP3      11337           0.0000000000
     56263     11529  TIP3      H2              8.3958201243      -16.9546916281      -72.4349704376  TIP3      11337           0.0000000000
     56264     11530  TIP3      OH2            14.1454219116      -16.7179245000      -71.7418404511  TIP3      11338           0.0000000000
     56265     11530  TIP3      H1             14.0948673189      -16.6012591068      -72.6982389951  TIP3      11338           0.0000000000
     56266     11530  TIP3      H2             13.7655673219      -17.6221699102      -71.6172343120  TIP3      11338           0.0000000000
     56267     11531  TIP3      OH2            15.4089847789      -16.6921393633      -76.0865755716  TIP3      11339           0.0000000000
     56268     11531  TIP3      H1             14.6681663149      -16.0865170321      -76.2376071739  TIP3      11339           0.0000000000
     56269     11531  TIP3      H2             14.9687533926      -17.5432035053      -75.8612402072  TIP3      11339           0.0000000000
     56270     11532  TIP3      OH2             2.6554473677       -0.9503943915      -76.4285538954  TIP3      11340           0.0000000000
     56271     11532  TIP3      H1              1.9713048547       -0.9556574811      -77.1288500337  TIP3      11340           0.0000000000
     56272     11532  TIP3      H2              2.6641679816       -0.0018258415      -76.2500142591  TIP3      11340           0.0000000000
     56273     11533  TIP3      OH2             4.5591027357      -15.0615642381      -78.8831743468  TIP3      11341           0.0000000000
     56274     11533  TIP3      H1              5.1124176554      -15.5852950551      -79.4636537211  TIP3      11341           0.0000000000
     56275     11533  TIP3      H2              5.2090950577      -14.6299350340      -78.2973625783  TIP3      11341           0.0000000000
     56276     11534  TIP3      OH2             9.5830422407      -14.7339585037      -76.5155622531  TIP3      11342           0.0000000000
     56277     11534  TIP3      H1              9.8474264110      -15.2943988705      -75.7667853316  TIP3      11342           0.0000000000
     56278     11534  TIP3      H2              9.6509265258      -13.8609525860      -76.0582686584  TIP3      11342           0.0000000000
     56279     11535  TIP3      OH2            11.4870285097        0.6734494211      -78.0405118923  TIP3      11343           0.0000000000
     56280     11535  TIP3      H1             12.4529664315        0.6407967069      -78.2015578948  TIP3      11343           0.0000000000
     56281     11535  TIP3      H2             11.3111922749       -0.0633186480      -78.6733606147  TIP3      11343           0.0000000000
     56282     11536  TIP3      OH2            18.2084198820       -0.1374935640      -75.3576722732  TIP3      11344           0.0000000000
     56283     11536  TIP3      H1             18.0144876974       -0.9213711929      -75.9291191526  TIP3      11344           0.0000000000
     56284     11536  TIP3      H2             18.1234584466        0.5973796957      -75.9998773735  TIP3      11344           0.0000000000
     56285     11537  TIP3      OH2             3.8452974423      -16.1175475890      -63.7031997083  TIP3      11345           0.0000000000
     56286     11537  TIP3      H1              3.4552457501      -16.9142509055      -63.2967186371  TIP3      11345           0.0000000000
     56287     11537  TIP3      H2              4.7532740354      -16.1607376206      -63.3206773933  TIP3      11345           0.0000000000
     56288     11538  TIP3      OH2             5.8501815694      -16.7326411865      -62.0578230143  TIP3      11346           0.0000000000
     56289     11538  TIP3      H1              6.7422520528      -17.0731533347      -62.2762683054  TIP3      11346           0.0000000000
     56290     11538  TIP3      H2              5.4728914132      -17.5390364021      -61.6569068505  TIP3      11346           0.0000000000
     56291     11539  TIP3      OH2             4.5054352416        0.0227511425      -79.4699784934  TIP3      11347           0.0000000000
     56292     11539  TIP3      H1              4.1754636151        0.2914301022      -78.6016192162  TIP3      11347           0.0000000000
     56293     11539  TIP3      H2              5.2419012072       -0.5466549878      -79.2631503455  TIP3      11347           0.0000000000
     56294     11540  TIP3      OH2            14.2463044117      -17.4480049147      -61.9087234029  TIP3      11348           0.0000000000
     56295     11540  TIP3      H1             14.3407449161      -17.9168795226      -61.0577292930  TIP3      11348           0.0000000000
     56296     11540  TIP3      H2             15.1638247932      -17.4839402669      -62.2517921447  TIP3      11348           0.0000000000
     56297     11541  TIP3      OH2            17.4576625981       -1.3985933757      -63.2766040745  TIP3      11349           0.0000000000
     56298     11541  TIP3      H1             16.6533505481       -1.5350373869      -63.8230787807  TIP3      11349           0.0000000000
     56299     11541  TIP3      H2             17.3412633578       -0.4516642113      -63.0594864248  TIP3      11349           0.0000000000
     56300     11542  TIP3      OH2            31.8820780129       -7.5425924291      -73.2717974396  TIP3      11350           0.0000000000
     56301     11542  TIP3      H1             31.9177537126       -6.5632881872      -73.3380285383  TIP3      11350           0.0000000000
     56302     11542  TIP3      H2             31.1818520210       -7.7617597654      -73.9071945159  TIP3      11350           0.0000000000
     56303     11543  TIP3      OH2            30.7638379713       -8.2693293713      -69.8038871548  TIP3      11351           0.0000000000
     56304     11543  TIP3      H1             30.7411182503       -8.9152735363      -69.0793517256  TIP3      11351           0.0000000000
     56305     11543  TIP3      H2             30.4231885233       -8.7754068359      -70.5587988171  TIP3      11351           0.0000000000
     56306     11544  TIP3      OH2            23.1048716164       -8.5876475074      -68.2417904713  TIP3      11352           0.0000000000
     56307     11544  TIP3      H1             23.1936324385       -9.2773489702      -67.5506311074  TIP3      11352           0.0000000000
     56308     11544  TIP3      H2             23.8581412840       -8.0199644246      -68.0211767453  TIP3      11352           0.0000000000
     56309     11545  TIP3      OH2            34.4594989697       -5.3411350263      -71.5008802255  TIP3      11353           0.0000000000
     56310     11545  TIP3      H1             34.0411658743       -6.0543590303      -71.0099500518  TIP3      11353           0.0000000000
     56311     11545  TIP3      H2             34.4686984279       -4.6212116304      -70.8468674699  TIP3      11353           0.0000000000
     56312     11546  TIP3      OH2            24.0351160465       -4.1423443934      -69.7415201444  TIP3      11354           0.0000000000
     56313     11546  TIP3      H1             23.7247310369       -5.0116648677      -70.0613613561  TIP3      11354           0.0000000000
     56314     11546  TIP3      H2             24.9909995797       -4.3245107347      -69.6969403206  TIP3      11354           0.0000000000
     56315     11547  TIP3      OH2            20.6576502850      -10.5758404264      -74.2292346584  TIP3      11355           0.0000000000
     56316     11547  TIP3      H1             20.2459187992       -9.7091589310      -74.3277891706  TIP3      11355           0.0000000000
     56317     11547  TIP3      H2             20.1189737104      -11.1269306510      -74.8175311189  TIP3      11355           0.0000000000
     56318     11548  TIP3      OH2            21.3734581625       -8.3524122933      -72.1097557083  TIP3      11356           0.0000000000
     56319     11548  TIP3      H1             21.6653391973       -9.1719760552      -71.6540500384  TIP3      11356           0.0000000000
     56320     11548  TIP3      H2             22.0853018501       -8.2496672912      -72.7638550757  TIP3      11356           0.0000000000
     56321     11549  TIP3      OH2            31.5632983728       -0.1616082459      -71.2761456450  TIP3      11357           0.0000000000
     56322     11549  TIP3      H1             32.2095708521       -0.8574103106      -71.5553522086  TIP3      11357           0.0000000000
     56323     11549  TIP3      H2             31.3326965098       -0.4971425751      -70.4074470594  TIP3      11357           0.0000000000
     56324     11550  TIP3      OH2            29.1390074305       -5.8695734727      -69.3179960836  TIP3      11358           0.0000000000
     56325     11550  TIP3      H1             29.4708106738       -6.4953078795      -69.9822118729  TIP3      11358           0.0000000000
     56326     11550  TIP3      H2             29.9520143246       -5.7106251986      -68.8069461533  TIP3      11358           0.0000000000
     56327     11551  TIP3      OH2            32.2988083422      -11.3973346258      -69.0035700515  TIP3      11359           0.0000000000
     56328     11551  TIP3      H1             32.4698505563      -12.3560880297      -69.0266393750  TIP3      11359           0.0000000000
     56329     11551  TIP3      H2             32.2186280492      -11.2465801073      -69.9715162828  TIP3      11359           0.0000000000
     56330     11552  TIP3      OH2            25.4083589909      -13.3062356639      -71.7943842487  TIP3      11360           0.0000000000
     56331     11552  TIP3      H1             25.5212710318      -12.4735885656      -72.2897174072  TIP3      11360           0.0000000000
     56332     11552  TIP3      H2             25.0149340781      -13.8824760116      -72.4854438256  TIP3      11360           0.0000000000
     56333     11553  TIP3      OH2            33.0441095565      -13.5223494787      -73.2948683543  TIP3      11361           0.0000000000
     56334     11553  TIP3      H1             33.7803218768      -13.6356950993      -72.6436640725  TIP3      11361           0.0000000000
     56335     11553  TIP3      H2             33.4957194830      -12.8304368428      -73.8327285030  TIP3      11361           0.0000000000
     56336     11554  TIP3      OH2            22.0404345447      -10.8970746352      -71.0600296179  TIP3      11362           0.0000000000
     56337     11554  TIP3      H1             22.7083098041      -11.4428394668      -70.6054408299  TIP3      11362           0.0000000000
     56338     11554  TIP3      H2             22.1426480874      -11.2130636671      -71.9709273603  TIP3      11362           0.0000000000
     56339     11555  TIP3      OH2            27.2022401446       -9.3420693696      -71.7467078745  TIP3      11363           0.0000000000
     56340     11555  TIP3      H1             27.8694554964       -9.9254309447      -71.3467110345  TIP3      11363           0.0000000000
     56341     11555  TIP3      H2             26.6847311483       -9.9989855738      -72.2521033492  TIP3      11363           0.0000000000
     56342     11556  TIP3      OH2            24.3236967238      -14.4090445660      -67.7547162266  TIP3      11364           0.0000000000
     56343     11556  TIP3      H1             24.0408026906      -13.8380387263      -68.5002872574  TIP3      11364           0.0000000000
     56344     11556  TIP3      H2             23.6459100022      -14.1815411775      -67.0724070783  TIP3      11364           0.0000000000
     56345     11557  TIP3      OH2            31.5904701408       -4.9409465971      -74.2177808944  TIP3      11365           0.0000000000
     56346     11557  TIP3      H1             31.3361816464       -5.2013786117      -75.1162735179  TIP3      11365           0.0000000000
     56347     11557  TIP3      H2             31.3036466934       -3.9996913981      -74.1676323988  TIP3      11365           0.0000000000
     56348     11558  TIP3      OH2            26.8361385842       -6.7678744903      -67.5164120580  TIP3      11366           0.0000000000
     56349     11558  TIP3      H1             26.1323026147       -6.1233801145      -67.2965390421  TIP3      11366           0.0000000000
     56350     11558  TIP3      H2             27.5426758901       -6.1686286922      -67.8061627147  TIP3      11366           0.0000000000
     56351     11559  TIP3      OH2            34.6556091391      -13.8968334358      -71.2881322928  TIP3      11367           0.0000000000
     56352     11559  TIP3      H1             34.7001032061      -14.7273642872      -70.8152965335  TIP3      11367           0.0000000000
     56353     11559  TIP3      H2             35.4400016470      -13.4350535787      -70.9290804218  TIP3      11367           0.0000000000
     56354     11560  TIP3      OH2            23.8927364083      -12.5527080294      -69.7178741458  TIP3      11368           0.0000000000
     56355     11560  TIP3      H1             24.5235967619      -11.8668506422      -69.4049910267  TIP3      11368           0.0000000000
     56356     11560  TIP3      H2             24.4092320758      -12.9626429050      -70.4570121266  TIP3      11368           0.0000000000
     56357     11561  TIP3      OH2            25.2836008699       -4.7610666717      -66.6963260051  TIP3      11369           0.0000000000
     56358     11561  TIP3      H1             25.2342385962       -3.8479731327      -67.0343626666  TIP3      11369           0.0000000000
     56359     11561  TIP3      H2             24.4016148753       -4.8417438936      -66.2521944326  TIP3      11369           0.0000000000
     56360     11562  TIP3      OH2            21.3070617058       -5.1560262148      -75.8926077280  TIP3      11370           0.0000000000
     56361     11562  TIP3      H1             21.1341566359       -4.8147407087      -76.7916777467  TIP3      11370           0.0000000000
     56362     11562  TIP3      H2             21.4356348699       -4.3181516953      -75.3972339110  TIP3      11370           0.0000000000
     56363     11563  TIP3      OH2            34.7733261062       -3.5549417207      -69.0489957216  TIP3      11371           0.0000000000
     56364     11563  TIP3      H1             33.8155039750       -3.3409850004      -69.0066892562  TIP3      11371           0.0000000000
     56365     11563  TIP3      H2             35.1566410180       -2.7102915317      -69.3526757269  TIP3      11371           0.0000000000
     56366     11564  TIP3      OH2            35.1009611431      -15.0687153304      -67.9792935045  TIP3      11372           0.0000000000
     56367     11564  TIP3      H1             34.4015857323      -14.3933836121      -67.8937651753  TIP3      11372           0.0000000000
     56368     11564  TIP3      H2             35.8541526366      -14.5756824021      -68.3297247112  TIP3      11372           0.0000000000
     56369     11565  TIP3      OH2            28.2602664769      -17.0764959287      -70.2898778973  TIP3      11373           0.0000000000
     56370     11565  TIP3      H1             28.1242971384      -18.0410920099      -70.3606089360  TIP3      11373           0.0000000000
     56371     11565  TIP3      H2             27.3818692842      -16.7707373001      -69.9824740934  TIP3      11373           0.0000000000
     56372     11566  TIP3      OH2            33.1583457981       -1.7757198894      -72.5048167426  TIP3      11374           0.0000000000
     56373     11566  TIP3      H1             33.6363551217       -2.4456419350      -73.0363842387  TIP3      11374           0.0000000000
     56374     11566  TIP3      H2             33.5893940611       -0.9698537810      -72.8795979925  TIP3      11374           0.0000000000
     56375     11567  TIP3      OH2            34.4126041704       -3.7672851928      -74.0281726522  TIP3      11375           0.0000000000
     56376     11567  TIP3      H1             34.1837228336       -4.4807977497      -74.6481550553  TIP3      11375           0.0000000000
     56377     11567  TIP3      H2             34.4902274231       -4.2839935546      -73.2015525735  TIP3      11375           0.0000000000
     56378     11568  TIP3      OH2            35.8022027951       -5.0376077914      -65.4210912278  TIP3      11376           0.0000000000
     56379     11568  TIP3      H1             36.0790708026       -5.7339859136      -66.0474294722  TIP3      11376           0.0000000000
     56380     11568  TIP3      H2             36.2093550607       -4.2767792074      -65.8769692423  TIP3      11376           0.0000000000
     56381     11569  TIP3      OH2            30.5462586311       -8.2470941245      -75.7997282385  TIP3      11377           0.0000000000
     56382     11569  TIP3      H1             29.8635177477       -7.6866727379      -76.2054357599  TIP3      11377           0.0000000000
     56383     11569  TIP3      H2             31.2693781959       -8.2173182607      -76.4571514711  TIP3      11377           0.0000000000
     56384     11570  TIP3      OH2            30.5688059493       -9.7805813506      -78.6770309343  TIP3      11378           0.0000000000
     56385     11570  TIP3      H1             31.3361703842       -9.7303692363      -78.0893811385  TIP3      11378           0.0000000000
     56386     11570  TIP3      H2             30.9277602959      -10.3906151722      -79.3194585446  TIP3      11378           0.0000000000
     56387     11571  TIP3      OH2            34.0199494186       -7.9820893780      -74.8614643442  TIP3      11379           0.0000000000
     56388     11571  TIP3      H1             33.2581918589       -7.8574789243      -74.2589040010  TIP3      11379           0.0000000000
     56389     11571  TIP3      H2             34.4401805690       -8.7254693371      -74.3687402094  TIP3      11379           0.0000000000
     56390     11572  TIP3      OH2            33.9519666369       -9.8940305756      -65.7628047290  TIP3      11380           0.0000000000
     56391     11572  TIP3      H1             33.9029013813       -9.0954623210      -65.2127920861  TIP3      11380           0.0000000000
     56392     11572  TIP3      H2             33.3108196923       -9.6267736839      -66.4477581214  TIP3      11380           0.0000000000
     56393     11573  TIP3      OH2            25.6148363217       -7.4189867886      -72.9401060684  TIP3      11381           0.0000000000
     56394     11573  TIP3      H1             25.2970442575       -7.8065630453      -73.7911672042  TIP3      11381           0.0000000000
     56395     11573  TIP3      H2             26.2332263528       -8.1075126598      -72.6086824383  TIP3      11381           0.0000000000
     56396     11574  TIP3      OH2            26.9355191706       -4.0334393073      -70.2613319670  TIP3      11382           0.0000000000
     56397     11574  TIP3      H1             26.9328454750       -4.5552852169      -71.0729673525  TIP3      11382           0.0000000000
     56398     11574  TIP3      H2             27.7194371788       -4.3873312860      -69.8026561142  TIP3      11382           0.0000000000
     56399     11575  TIP3      OH2            25.9447280419       -8.6688352899      -69.2798054253  TIP3      11383           0.0000000000
     56400     11575  TIP3      H1             26.4957157208       -8.5704288536      -70.0808848675  TIP3      11383           0.0000000000
     56401     11575  TIP3      H2             26.3356744819       -8.0037748004      -68.6705137877  TIP3      11383           0.0000000000
     56402     11576  TIP3      OH2            32.2863336211       -3.0788868993      -68.5878745474  TIP3      11384           0.0000000000
     56403     11576  TIP3      H1             32.0907102328       -2.4566601883      -67.8842292476  TIP3      11384           0.0000000000
     56404     11576  TIP3      H2             32.1079637088       -3.9488277858      -68.1562075891  TIP3      11384           0.0000000000
     56405     11577  TIP3      OH2            26.9001812358       -4.2373651659      -64.5844992420  TIP3      11385           0.0000000000
     56406     11577  TIP3      H1             26.4853935691       -3.4986243343      -64.0938521954  TIP3      11385           0.0000000000
     56407     11577  TIP3      H2             26.2276900822       -4.4373647595      -65.2814611872  TIP3      11385           0.0000000000
     56408     11578  TIP3      OH2            32.8615074256       -8.8805779257      -77.1492171441  TIP3      11386           0.0000000000
     56409     11578  TIP3      H1             33.4229614544       -8.7062249464      -76.3530976575  TIP3      11386           0.0000000000
     56410     11578  TIP3      H2             33.2854844434       -8.3414728122      -77.8395339351  TIP3      11386           0.0000000000
     56411     11579  TIP3      OH2            23.8419586524       -8.0791477628      -65.4303486826  TIP3      11387           0.0000000000
     56412     11579  TIP3      H1             23.8955636835       -7.4101669473      -64.7223516323  TIP3      11387           0.0000000000
     56413     11579  TIP3      H2             22.9003706331       -7.9894280166      -65.6423816678  TIP3      11387           0.0000000000
     56414     11580  TIP3      OH2            30.5951371132       -2.1493777944      -73.7421288942  TIP3      11388           0.0000000000
     56415     11580  TIP3      H1             31.0311183733       -1.8460044963      -72.9358071065  TIP3      11388           0.0000000000
     56416     11580  TIP3      H2             30.0248768949       -1.4058520382      -73.9682196865  TIP3      11388           0.0000000000
     56417     11581  TIP3      OH2            25.1469163572       -2.2035412651      -63.8372817385  TIP3      11389           0.0000000000
     56418     11581  TIP3      H1             25.0856106783       -2.3025224196      -64.8027602564  TIP3      11389           0.0000000000
     56419     11581  TIP3      H2             24.2169296998       -2.3368695404      -63.5699113486  TIP3      11389           0.0000000000
     56420     11582  TIP3      OH2            24.5764159602       -8.3931161369      -75.3107158404  TIP3      11390           0.0000000000
     56421     11582  TIP3      H1             24.3078596553       -7.6183315720      -75.8512486909  TIP3      11390           0.0000000000
     56422     11582  TIP3      H2             23.9332535812       -9.0587828340      -75.5647582111  TIP3      11390           0.0000000000
     56423     11583  TIP3      OH2            20.6751554661       -5.9617084241      -66.4165766508  TIP3      11391           0.0000000000
     56424     11583  TIP3      H1             20.2381524830       -6.0419733239      -67.2783857496  TIP3      11391           0.0000000000
     56425     11583  TIP3      H2             20.7597299973       -6.9127083076      -66.2062405397  TIP3      11391           0.0000000000
     56426     11584  TIP3      OH2            20.4304789954       -3.2382201766      -69.6569785491  TIP3      11392           0.0000000000
     56427     11584  TIP3      H1             21.3939781549       -3.3378424632      -69.6709351476  TIP3      11392           0.0000000000
     56428     11584  TIP3      H2             20.3549300554       -2.4138333939      -69.1527727453  TIP3      11392           0.0000000000
     56429     11585  TIP3      OH2            29.6337378525       -2.9840441083      -65.1002120887  TIP3      11393           0.0000000000
     56430     11585  TIP3      H1             29.6919559819       -2.1414787010      -64.5917620710  TIP3      11393           0.0000000000
     56431     11585  TIP3      H2             28.7612715242       -3.3438289272      -64.8490191043  TIP3      11393           0.0000000000
     56432     11586  TIP3      OH2            30.0543114699        0.7641872544      -75.3087845111  TIP3      11394           0.0000000000
     56433     11586  TIP3      H1             30.0159711194        0.6996674599      -76.2875699152  TIP3      11394           0.0000000000
     56434     11586  TIP3      H2             30.1269889578        1.7260791506      -75.1555564178  TIP3      11394           0.0000000000
     56435     11587  TIP3      OH2            23.7146446579       -0.3616463710      -73.4886436422  TIP3      11395           0.0000000000
     56436     11587  TIP3      H1             23.8603539473       -0.7721088744      -72.6075066474  TIP3      11395           0.0000000000
     56437     11587  TIP3      H2             22.8632298638       -0.7682881952      -73.7206672568  TIP3      11395           0.0000000000
     56438     11588  TIP3      OH2            33.7713090765        0.0462616519      -77.7069056795  TIP3      11396           0.0000000000
     56439     11588  TIP3      H1             33.6447933512       -0.5016639859      -78.5157330957  TIP3      11396           0.0000000000
     56440     11588  TIP3      H2             33.1000892619       -0.3403627437      -77.1430757331  TIP3      11396           0.0000000000
     56441     11589  TIP3      OH2            32.7587721459       -0.0279962944      -75.3287648018  TIP3      11397           0.0000000000
     56442     11589  TIP3      H1             31.7899079224       -0.0522957653      -75.3333280134  TIP3      11397           0.0000000000
     56443     11589  TIP3      H2             33.0224485186       -0.8772928920      -74.9501944711  TIP3      11397           0.0000000000
     56444     11590  TIP3      OH2            35.3270338878      -10.8819792476      -63.4612699023  TIP3      11398           0.0000000000
     56445     11590  TIP3      H1             35.2883278926      -10.5321971020      -64.3546120649  TIP3      11398           0.0000000000
     56446     11590  TIP3      H2             35.8620141383      -11.7083588040      -63.6143473459  TIP3      11398           0.0000000000
     56447     11591  TIP3      OH2            22.9656187095       -4.6486887219      -65.4850121605  TIP3      11399           0.0000000000
     56448     11591  TIP3      H1             23.1877450229       -5.0112944441      -64.6012685701  TIP3      11399           0.0000000000
     56449     11591  TIP3      H2             22.0953572299       -5.0449649869      -65.6977813382  TIP3      11399           0.0000000000
     56450     11592  TIP3      OH2            25.6443401151      -16.1726183134      -69.5383854438  TIP3      11400           0.0000000000
     56451     11592  TIP3      H1             24.7411589493      -16.2995004854      -69.9051920996  TIP3      11400           0.0000000000
     56452     11592  TIP3      H2             25.5097012224      -15.3424023311      -69.0523850861  TIP3      11400           0.0000000000
     56453     11593  TIP3      OH2            30.2885268436      -16.5108767273      -66.1785073776  TIP3      11401           0.0000000000
     56454     11593  TIP3      H1             30.6846149903      -16.9265698310      -65.3902085776  TIP3      11401           0.0000000000
     56455     11593  TIP3      H2             29.3158037358      -16.6236307721      -66.0310595896  TIP3      11401           0.0000000000
     56456     11594  TIP3      OH2            33.5003834570      -12.6979337512      -65.3631985683  TIP3      11402           0.0000000000
     56457     11594  TIP3      H1             33.0294766099      -12.8743425571      -64.5112127592  TIP3      11402           0.0000000000
     56458     11594  TIP3      H2             33.4253155328      -11.7407252381      -65.4773130550  TIP3      11402           0.0000000000
     56459     11595  TIP3      OH2            34.4989398354       -7.8777775002      -79.3328325871  TIP3      11403           0.0000000000
     56460     11595  TIP3      H1             34.4128224501       -7.9758347339      -80.2980819207  TIP3      11403           0.0000000000
     56461     11595  TIP3      H2             35.2522373877       -7.2849112456      -79.2739730894  TIP3      11403           0.0000000000
     56462     11596  TIP3      OH2            29.9015845783      -13.9150333235      -78.8351385912  TIP3      11404           0.0000000000
     56463     11596  TIP3      H1             29.6132610562      -13.9826190229      -77.9062100974  TIP3      11404           0.0000000000
     56464     11596  TIP3      H2             29.6954149286      -14.8080374029      -79.1285042722  TIP3      11404           0.0000000000
     56465     11597  TIP3      OH2            25.7538690683      -11.1926141957      -68.2747448679  TIP3      11405           0.0000000000
     56466     11597  TIP3      H1             25.0080150997      -11.2081262259      -67.6463702608  TIP3      11405           0.0000000000
     56467     11597  TIP3      H2             25.6985869141      -10.2894211093      -68.6571258811  TIP3      11405           0.0000000000
     56468     11598  TIP3      OH2            25.7060331392      -11.0918673792      -73.4210656498  TIP3      11406           0.0000000000
     56469     11598  TIP3      H1             24.7677365571      -11.3366077959      -73.5582209941  TIP3      11406           0.0000000000
     56470     11598  TIP3      H2             26.0901818112      -11.3796434375      -74.2778059096  TIP3      11406           0.0000000000
     56471     11599  TIP3      OH2            30.9644293107      -10.6277960090      -74.7961835835  TIP3      11407           0.0000000000
     56472     11599  TIP3      H1             30.8145803931       -9.6965511124      -75.0315325720  TIP3      11407           0.0000000000
     56473     11599  TIP3      H2             31.8821314569      -10.7398588641      -75.1526206414  TIP3      11407           0.0000000000
     56474     11600  TIP3      OH2            30.2912643915      -10.3676410635      -63.2074566613  TIP3      11408           0.0000000000
     56475     11600  TIP3      H1             29.7742278819      -11.1501684449      -62.9043463268  TIP3      11408           0.0000000000
     56476     11600  TIP3      H2             31.1351917155      -10.4912408220      -62.7386971330  TIP3      11408           0.0000000000
     56477     11601  TIP3      OH2            32.1661651921      -11.0939197358      -71.7464192256  TIP3      11409           0.0000000000
     56478     11601  TIP3      H1             32.0662779754      -10.5407678664      -72.5473365197  TIP3      11409           0.0000000000
     56479     11601  TIP3      H2             32.3815024023      -11.9098352744      -72.2420999554  TIP3      11409           0.0000000000
     56480     11602  TIP3      OH2            23.3652717081      -10.9489724804      -66.6066715768  TIP3      11410           0.0000000000
     56481     11602  TIP3      H1             23.4508041654      -10.5422009571      -65.7266646883  TIP3      11410           0.0000000000
     56482     11602  TIP3      H2             22.9267348674      -11.7884521309      -66.3958546356  TIP3      11410           0.0000000000
     56483     11603  TIP3      OH2            26.9604932509      -13.2608484107      -79.3659824257  TIP3      11411           0.0000000000
     56484     11603  TIP3      H1             26.4003733166      -13.9145472334      -78.9052697750  TIP3      11411           0.0000000000
     56485     11603  TIP3      H2             26.3991947468      -12.9248228873      -80.0774238572  TIP3      11411           0.0000000000
     56486     11604  TIP3      OH2            20.0260955890      -13.8405980654      -72.6140999810  TIP3      11412           0.0000000000
     56487     11604  TIP3      H1             20.7100117144      -13.8795584967      -71.9154143928  TIP3      11412           0.0000000000
     56488     11604  TIP3      H2             20.4729300004      -14.2144858979      -73.3966476547  TIP3      11412           0.0000000000
     56489     11605  TIP3      OH2            21.3078550236      -13.1005800025      -77.2531662031  TIP3      11413           0.0000000000
     56490     11605  TIP3      H1             21.8208461362      -12.5148875302      -77.8446433025  TIP3      11413           0.0000000000
     56491     11605  TIP3      H2             20.6126627512      -12.4799284434      -76.9625023996  TIP3      11413           0.0000000000
     56492     11606  TIP3      OH2            31.4410098368       -9.5145792173      -67.2551267830  TIP3      11414           0.0000000000
     56493     11606  TIP3      H1             31.8363851237      -10.2075955185      -67.8279568583  TIP3      11414           0.0000000000
     56494     11606  TIP3      H2             30.9777417054      -10.0378801040      -66.5777618805  TIP3      11414           0.0000000000
     56495     11607  TIP3      OH2            28.2621815913      -13.5223933399      -72.4125746116  TIP3      11415           0.0000000000
     56496     11607  TIP3      H1             27.3278297165      -13.5219153966      -72.1149631992  TIP3      11415           0.0000000000
     56497     11607  TIP3      H2             28.7563456106      -13.6982888873      -71.5969485332  TIP3      11415           0.0000000000
     56498     11608  TIP3      OH2            23.0672477592      -11.9781365220      -73.5463226013  TIP3      11416           0.0000000000
     56499     11608  TIP3      H1             22.1841010844      -11.8236062839      -73.9369633801  TIP3      11416           0.0000000000
     56500     11608  TIP3      H2             23.3534723209      -12.8115493206      -73.9556005356  TIP3      11416           0.0000000000
     56501     11609  TIP3      OH2            26.6997666536      -11.9022232735      -75.9023561486  TIP3      11417           0.0000000000
     56502     11609  TIP3      H1             27.6616806999      -11.8212152224      -75.7447739181  TIP3      11417           0.0000000000
     56503     11609  TIP3      H2             26.4817833501      -11.2642897137      -76.6048093743  TIP3      11417           0.0000000000
     56504     11610  TIP3      OH2            32.5958666125      -14.3226331570      -69.1619070570  TIP3      11418           0.0000000000
     56505     11610  TIP3      H1             31.9243202510      -14.2541672015      -68.4570220311  TIP3      11418           0.0000000000
     56506     11610  TIP3      H2             32.1078561051      -14.5152366498      -69.9793761751  TIP3      11418           0.0000000000
     56507     11611  TIP3      OH2            25.4183851452      -10.7523120705      -78.3293881097  TIP3      11419           0.0000000000
     56508     11611  TIP3      H1             24.8490600757      -11.1053182027      -79.0302442836  TIP3      11419           0.0000000000
     56509     11611  TIP3      H2             26.2360773218      -10.5511035433      -78.8124817653  TIP3      11419           0.0000000000
     56510     11612  TIP3      OH2            35.7660375008        1.3953065057      -62.8179494891  TIP3      11420           0.0000000000
     56511     11612  TIP3      H1             36.1091582400        1.7226603319      -63.6635525995  TIP3      11420           0.0000000000
     56512     11612  TIP3      H2             36.5153396860        1.6496590606      -62.2511999154  TIP3      11420           0.0000000000
     56513     11613  TIP3      OH2            23.5424801740       -6.1826809749      -63.2769918814  TIP3      11421           0.0000000000
     56514     11613  TIP3      H1             24.2627774700       -5.9369655386      -62.6734644193  TIP3      11421           0.0000000000
     56515     11613  TIP3      H2             22.7699503290       -6.1025897889      -62.6757024696  TIP3      11421           0.0000000000
     56516     11614  TIP3      OH2            29.5168993491      -10.7772694338      -70.5120687032  TIP3      11422           0.0000000000
     56517     11614  TIP3      H1             30.1409888412      -11.2887189316      -71.0537531693  TIP3      11422           0.0000000000
     56518     11614  TIP3      H2             29.3943332875      -11.3305785672      -69.7309537092  TIP3      11422           0.0000000000
     56519     11615  TIP3      OH2            24.5502983422      -14.6327593302      -74.0676970643  TIP3      11423           0.0000000000
     56520     11615  TIP3      H1             24.2390266100      -15.5542493628      -74.0913506428  TIP3      11423           0.0000000000
     56521     11615  TIP3      H2             25.3363750836      -14.6990570879      -74.6273250218  TIP3      11423           0.0000000000
     56522     11616  TIP3      OH2            28.1770300927      -12.4483157937      -68.1084394648  TIP3      11424           0.0000000000
     56523     11616  TIP3      H1             27.3563297768      -11.9257339027      -68.0199007101  TIP3      11424           0.0000000000
     56524     11616  TIP3      H2             28.7369036070      -12.0933896528      -67.3877387109  TIP3      11424           0.0000000000
     56525     11617  TIP3      OH2            28.7740779817       -6.2340010100      -76.3888138546  TIP3      11425           0.0000000000
     56526     11617  TIP3      H1             27.9726504448       -6.6915177978      -76.7252318096  TIP3      11425           0.0000000000
     56527     11617  TIP3      H2             28.5530308761       -6.1086020512      -75.4457126447  TIP3      11425           0.0000000000
     56528     11618  TIP3      OH2            35.6398856500       -6.9964758857      -67.6170325038  TIP3      11426           0.0000000000
     56529     11618  TIP3      H1             36.3623663310       -6.8806283387      -68.2745964677  TIP3      11426           0.0000000000
     56530     11618  TIP3      H2             34.8774804272       -7.0008045296      -68.2260144862  TIP3      11426           0.0000000000
     56531     11619  TIP3      OH2            32.6011374848      -13.5078619902      -78.3004997808  TIP3      11427           0.0000000000
     56532     11619  TIP3      H1             31.6599635248      -13.3139307321      -78.4155316719  TIP3      11427           0.0000000000
     56533     11619  TIP3      H2             32.9200663845      -12.6352095000      -77.9718916729  TIP3      11427           0.0000000000
     56534     11620  TIP3      OH2            30.2734916201       -5.9533397798      -65.1673127439  TIP3      11428           0.0000000000
     56535     11620  TIP3      H1             29.9102633796       -6.3788237884      -64.3845511941  TIP3      11428           0.0000000000
     56536     11620  TIP3      H2             30.0326496755       -5.0278897656      -65.0600333016  TIP3      11428           0.0000000000
     56537     11621  TIP3      OH2            33.4730034219      -11.4640764996      -77.1608456468  TIP3      11429           0.0000000000
     56538     11621  TIP3      H1             33.9534938573      -11.5953429739      -76.3053946810  TIP3      11429           0.0000000000
     56539     11621  TIP3      H2             33.3502207023      -10.5033278527      -77.1073988817  TIP3      11429           0.0000000000
     56540     11622  TIP3      OH2            23.8832936327       -6.8244098234      -70.6100087811  TIP3      11430           0.0000000000
     56541     11622  TIP3      H1             24.5583074512       -6.9091411224      -71.3122869800  TIP3      11430           0.0000000000
     56542     11622  TIP3      H2             23.9400374766       -7.6840917236      -70.1553002128  TIP3      11430           0.0000000000
     56543     11623  TIP3      OH2            30.8623285781       -4.7688317542      -77.3430583913  TIP3      11431           0.0000000000
     56544     11623  TIP3      H1             30.5172842442       -3.9026646904      -77.0310646178  TIP3      11431           0.0000000000
     56545     11623  TIP3      H2             30.1169000993       -5.3752657092      -77.1636296432  TIP3      11431           0.0000000000
     56546     11624  TIP3      OH2            20.8545246152       -8.4199251394      -65.3448695887  TIP3      11432           0.0000000000
     56547     11624  TIP3      H1             21.0455317858       -8.8692901861      -64.4982241170  TIP3      11432           0.0000000000
     56548     11624  TIP3      H2             20.2460342827       -9.0396401553      -65.7860056035  TIP3      11432           0.0000000000
     56549     11625  TIP3      OH2            27.8820086274       -8.8643931671      -63.1730188531  TIP3      11433           0.0000000000
     56550     11625  TIP3      H1             27.5624018272       -9.1735585230      -64.0327744596  TIP3      11433           0.0000000000
     56551     11625  TIP3      H2             28.8046619091       -9.1887801773      -63.1740487864  TIP3      11433           0.0000000000
     56552     11626  TIP3      OH2            32.5665255753       -3.5422477760      -65.2194576685  TIP3      11434           0.0000000000
     56553     11626  TIP3      H1             31.6470298838       -3.3602116304      -65.4584213199  TIP3      11434           0.0000000000
     56554     11626  TIP3      H2             32.5393764236       -3.2396926538      -64.2915633880  TIP3      11434           0.0000000000
     56555     11627  TIP3      OH2            33.6770250730       -7.7361465485      -69.3228531589  TIP3      11435           0.0000000000
     56556     11627  TIP3      H1             32.7419797564       -7.9538930917      -69.4772679169  TIP3      11435           0.0000000000
     56557     11627  TIP3      H2             34.1508343671       -8.4708921499      -69.7666950346  TIP3      11435           0.0000000000
     56558     11628  TIP3      OH2            26.2465136786       -3.3761885596      -73.2216203814  TIP3      11436           0.0000000000
     56559     11628  TIP3      H1             26.7462043901       -2.5704584296      -73.4276046179  TIP3      11436           0.0000000000
     56560     11628  TIP3      H2             25.3708122872       -3.1419040436      -73.5560310111  TIP3      11436           0.0000000000
     56561     11629  TIP3      OH2            21.9964562570       -8.5010009939      -78.7076247715  TIP3      11437           0.0000000000
     56562     11629  TIP3      H1             22.6075599786       -7.8971327087      -78.2461544271  TIP3      11437           0.0000000000
     56563     11629  TIP3      H2             21.1209789295       -8.2431071069      -78.3621777297  TIP3      11437           0.0000000000
     56564     11630  TIP3      OH2            27.6657550455       -5.7102267784      -73.7017846282  TIP3      11438           0.0000000000
     56565     11630  TIP3      H1             27.3514405222       -4.7887056820      -73.6234423793  TIP3      11438           0.0000000000
     56566     11630  TIP3      H2             26.9467044817       -6.2013544373      -73.2598190396  TIP3      11438           0.0000000000
     56567     11631  TIP3      OH2            28.1162475557       -1.5219885823      -67.2954474448  TIP3      11439           0.0000000000
     56568     11631  TIP3      H1             28.5796562994       -0.7182210286      -67.5835932766  TIP3      11439           0.0000000000
     56569     11631  TIP3      H2             28.7300011449       -1.8634607465      -66.6196021700  TIP3      11439           0.0000000000
     56570     11632  TIP3      OH2            26.3481354827       -0.7105457963      -74.1900049214  TIP3      11440           0.0000000000
     56571     11632  TIP3      H1             25.3829169045       -0.5757973082      -74.0383733681  TIP3      11440           0.0000000000
     56572     11632  TIP3      H2             26.7053675371        0.1210974034      -73.8280255877  TIP3      11440           0.0000000000
     56573     11633  TIP3      OH2            31.6605082024       -5.5261865079      -67.6759979591  TIP3      11441           0.0000000000
     56574     11633  TIP3      H1             31.3175084179       -5.7205960466      -66.7779624581  TIP3      11441           0.0000000000
     56575     11633  TIP3      H2             32.2864525005       -6.2469406467      -67.8471598083  TIP3      11441           0.0000000000
     56576     11634  TIP3      OH2            33.9581430643       -4.5736316655      -78.5904136469  TIP3      11442           0.0000000000
     56577     11634  TIP3      H1             34.2662757535       -4.9194249678      -77.7360287391  TIP3      11442           0.0000000000
     56578     11634  TIP3      H2             32.9909293337       -4.6217085128      -78.4945991878  TIP3      11442           0.0000000000
     56579     11635  TIP3      OH2            34.4659786147       -0.9691686280      -65.2065845344  TIP3      11443           0.0000000000
     56580     11635  TIP3      H1             33.7402957744       -1.4336826610      -65.6743825387  TIP3      11443           0.0000000000
     56581     11635  TIP3      H2             34.6689198480       -0.2483272815      -65.8418723652  TIP3      11443           0.0000000000
     56582     11636  TIP3      OH2            22.5194615747      -13.6917572740      -65.8016819227  TIP3      11444           0.0000000000
     56583     11636  TIP3      H1             21.6131483590      -13.3388583662      -65.8198261522  TIP3      11444           0.0000000000
     56584     11636  TIP3      H2             22.4103885149      -14.5366353184      -65.3348400768  TIP3      11444           0.0000000000
     56585     11637  TIP3      OH2            34.7700988397       -5.8475843876      -76.3530842534  TIP3      11445           0.0000000000
     56586     11637  TIP3      H1             34.5209319938       -6.6312035848      -75.8018645052  TIP3      11445           0.0000000000
     56587     11637  TIP3      H2             35.7006452917       -5.7487574329      -76.0937941003  TIP3      11445           0.0000000000
     56588     11638  TIP3      OH2            22.1305244120       -1.9084264538      -67.3735755740  TIP3      11446           0.0000000000
     56589     11638  TIP3      H1             22.4386487077       -2.8272524946      -67.3665261531  TIP3      11446           0.0000000000
     56590     11638  TIP3      H2             22.3944025913       -1.6143761115      -66.4944359094  TIP3      11446           0.0000000000
     56591     11639  TIP3      OH2            26.8804115763       -3.8176086623      -77.6680591432  TIP3      11447           0.0000000000
     56592     11639  TIP3      H1             27.1328968398       -4.3788871276      -76.9201712587  TIP3      11447           0.0000000000
     56593     11639  TIP3      H2             26.9677584352       -2.9025729632      -77.3229972067  TIP3      11447           0.0000000000
     56594     11640  TIP3      OH2            23.3911771950       -6.6031909005      -77.1303471979  TIP3      11448           0.0000000000
     56595     11640  TIP3      H1             22.7104806730       -6.1858342603      -76.5632126497  TIP3      11448           0.0000000000
     56596     11640  TIP3      H2             23.9313018479       -5.8397166876      -77.4061199135  TIP3      11448           0.0000000000
     56597     11641  TIP3      OH2            31.2195237514      -13.9242565668      -66.8244645886  TIP3      11449           0.0000000000
     56598     11641  TIP3      H1             31.9731045563      -13.8558554124      -66.2228819434  TIP3      11449           0.0000000000
     56599     11641  TIP3      H2             30.8575004692      -14.8061539809      -66.6220778447  TIP3      11449           0.0000000000
     56600     11642  TIP3      OH2            32.0567567127      -14.3621021456      -75.7683265585  TIP3      11450           0.0000000000
     56601     11642  TIP3      H1             32.2595510516      -13.8537531328      -76.5719484842  TIP3      11450           0.0000000000
     56602     11642  TIP3      H2             32.5925453533      -13.9116115470      -75.0980105932  TIP3      11450           0.0000000000
     56603     11643  TIP3      OH2            29.6863975232       -2.1588800402      -76.8277758839  TIP3      11451           0.0000000000
     56604     11643  TIP3      H1             28.8585221921       -1.6542148313      -76.8618771683  TIP3      11451           0.0000000000
     56605     11643  TIP3      H2             30.1839332810       -1.7042882044      -77.5494588120  TIP3      11451           0.0000000000
     56606     11644  TIP3      OH2            29.1923343492      -12.6163003185      -74.9427058719  TIP3      11452           0.0000000000
     56607     11644  TIP3      H1             29.9763818966      -12.0132533659      -74.9275314653  TIP3      11452           0.0000000000
     56608     11644  TIP3      H2             28.9714758644      -12.7109482880      -74.0016805842  TIP3      11452           0.0000000000
     56609     11645  TIP3      OH2            29.8079978005      -11.5643954067      -65.7400537564  TIP3      11453           0.0000000000
     56610     11645  TIP3      H1             29.8899027857      -11.0073160821      -64.9406335793  TIP3      11453           0.0000000000
     56611     11645  TIP3      H2             30.4578285063      -12.2756987605      -65.6494499439  TIP3      11453           0.0000000000
     56612     11646  TIP3      OH2            30.0473338241      -15.5301090343      -74.0848816623  TIP3      11454           0.0000000000
     56613     11646  TIP3      H1             29.7699289523      -14.9006392232      -73.3957876113  TIP3      11454           0.0000000000
     56614     11646  TIP3      H2             30.7669069323      -14.9893426783      -74.4970070403  TIP3      11454           0.0000000000
     56615     11647  TIP3      OH2            27.0428501477       -1.1422368178      -76.9044861769  TIP3      11455           0.0000000000
     56616     11647  TIP3      H1             27.2283213118       -0.3200070829      -77.4048394132  TIP3      11455           0.0000000000
     56617     11647  TIP3      H2             26.8036654198       -0.7971830415      -76.0158179817  TIP3      11455           0.0000000000
     56618     11648  TIP3      OH2            25.7281141375      -14.4413349163      -77.2925875517  TIP3      11456           0.0000000000
     56619     11648  TIP3      H1             25.6691306549      -13.5281669088      -76.9475964640  TIP3      11456           0.0000000000
     56620     11648  TIP3      H2             26.6404860829      -14.6639760785      -77.0207351358  TIP3      11456           0.0000000000
     56621     11649  TIP3      OH2            35.8354172127      -13.9299966990      -65.0904924375  TIP3      11457           0.0000000000
     56622     11649  TIP3      H1             35.0026801400      -13.4019908264      -65.0633763810  TIP3      11457           0.0000000000
     56623     11649  TIP3      H2             36.2327469239      -13.6454614956      -65.9145973217  TIP3      11457           0.0000000000
     56624     11650  TIP3      OH2            34.5427896672       -9.9000919818      -70.8003312000  TIP3      11458           0.0000000000
     56625     11650  TIP3      H1             33.7620511263      -10.3506829903      -71.1760444413  TIP3      11458           0.0000000000
     56626     11650  TIP3      H2             34.9988683822      -10.6415870727      -70.3937431856  TIP3      11458           0.0000000000
     56627     11651  TIP3      OH2            23.9894232049       -3.9720557714      -78.3123039760  TIP3      11459           0.0000000000
     56628     11651  TIP3      H1             24.6588434709       -3.3649416908      -77.9747191345  TIP3      11459           0.0000000000
     56629     11651  TIP3      H2             24.5104813907       -4.4442674619      -78.9918417957  TIP3      11459           0.0000000000
     56630     11652  TIP3      OH2            22.3691491891      -11.2979083967      -79.1016638999  TIP3      11460           0.0000000000
     56631     11652  TIP3      H1             22.3368823125      -10.3345552476      -78.9822703010  TIP3      11460           0.0000000000
     56632     11652  TIP3      H2             21.4927350575      -11.5046625590      -79.4424964090  TIP3      11460           0.0000000000
     56633     11653  TIP3      OH2            35.6973364883       -0.6246025181      -69.2271313262  TIP3      11461           0.0000000000
     56634     11653  TIP3      H1             35.5425910553        0.0440226787      -69.9212000415  TIP3      11461           0.0000000000
     56635     11653  TIP3      H2             36.6428202007       -0.5385067098      -69.0665522058  TIP3      11461           0.0000000000
     56636     11654  TIP3      OH2            23.1263305065      -16.5325378661      -70.4064976840  TIP3      11462           0.0000000000
     56637     11654  TIP3      H1             22.9333514383      -16.5148550810      -71.3706685472  TIP3      11462           0.0000000000
     56638     11654  TIP3      H2             22.7125155517      -17.3857304409      -70.1576561690  TIP3      11462           0.0000000000
     56639     11655  TIP3      OH2            22.0864625825       -2.6108688089      -74.2697282579  TIP3      11463           0.0000000000
     56640     11655  TIP3      H1             21.2280212638       -2.1690862911      -74.3074134287  TIP3      11463           0.0000000000
     56641     11655  TIP3      H2             22.5550239962       -2.1445918733      -74.9748747475  TIP3      11463           0.0000000000
     56642     11656  TIP3      OH2            21.2835983232        0.0413856512      -62.9826336934  TIP3      11464           0.0000000000
     56643     11656  TIP3      H1             21.8900088675       -0.1588295510      -62.2432225101  TIP3      11464           0.0000000000
     56644     11656  TIP3      H2             20.8858095759       -0.8282384468      -63.1629206726  TIP3      11464           0.0000000000
     56645     11657  TIP3      OH2            25.9684766218       -1.0404504805      -61.3729246398  TIP3      11465           0.0000000000
     56646     11657  TIP3      H1             26.7243102094       -1.5401428858      -61.0399501580  TIP3      11465           0.0000000000
     56647     11657  TIP3      H2             25.9414146888       -1.3197973672      -62.3092974578  TIP3      11465           0.0000000000
     56648     11658  TIP3      OH2            29.8013740930       -1.4398664949      -79.2273319988  TIP3      11466           0.0000000000
     56649     11658  TIP3      H1             29.3559275903       -2.2509574913      -79.4138398810  TIP3      11466           0.0000000000
     56650     11658  TIP3      H2             30.6585400418       -1.6055401884      -79.7559000656  TIP3      11466           0.0000000000
     56651     11659  TIP3      OH2            32.5283616231       -2.6707976074      -62.6259706249  TIP3      11467           0.0000000000
     56652     11659  TIP3      H1             32.1782625302       -3.5408204421      -62.3415276170  TIP3      11467           0.0000000000
     56653     11659  TIP3      H2             33.2812460580       -2.5633923989      -62.0150745983  TIP3      11467           0.0000000000
     56654     11660  TIP3      OH2            34.9780083599       -1.7855400959      -79.6437873152  TIP3      11468           0.0000000000
     56655     11660  TIP3      H1             35.0855469828       -2.6763099599      -79.2938254699  TIP3      11468           0.0000000000
     56656     11660  TIP3      H2             35.5802914016       -1.6003734977      -80.3464605093  TIP3      11468           0.0000000000
     56657     11661  TIP3      OH2            21.1963740176       -6.1871264171      -61.9837603475  TIP3      11469           0.0000000000
     56658     11661  TIP3      H1             21.3631917743       -7.0987249001      -62.2846128186  TIP3      11469           0.0000000000
     56659     11661  TIP3      H2             20.4568275191       -5.9297268066      -62.5589080711  TIP3      11469           0.0000000000
     56660     11662  TIP3      OH2            25.6548783726       -5.7736364765      -79.8378628234  TIP3      11470           0.0000000000
     56661     11662  TIP3      H1             25.7053219746       -6.6097515573      -79.3636880007  TIP3      11470           0.0000000000
     56662     11662  TIP3      H2             26.2106164243       -6.0022294636      -80.6122819370  TIP3      11470           0.0000000000
     56663     11663  TIP3      OH2            27.9137427468       -6.1977159004      -62.5998123283  TIP3      11471           0.0000000000
     56664     11663  TIP3      H1             27.5789483256       -5.8864008433      -63.4632401257  TIP3      11471           0.0000000000
     56665     11663  TIP3      H2             27.9885667723       -7.1761328510      -62.7074940736  TIP3      11471           0.0000000000
     56666     11664  TIP3      OH2            33.5797744286       -6.3787557363      -65.2080149197  TIP3      11472           0.0000000000
     56667     11664  TIP3      H1             34.3722739028       -5.7833280594      -65.2609803240  TIP3      11472           0.0000000000
     56668     11664  TIP3      H2             32.9082987901       -5.6880903965      -65.1634379651  TIP3      11472           0.0000000000
     56669     11665  TIP3      OH2            22.1194769163       -8.9623974391      -62.6054195244  TIP3      11473           0.0000000000
     56670     11665  TIP3      H1             22.5363322151       -9.8256844055      -62.6947385789  TIP3      11473           0.0000000000
     56671     11665  TIP3      H2             21.8819204085       -8.9561885046      -61.6640804833  TIP3      11473           0.0000000000
     56672     11666  TIP3      OH2            26.7591847686       -7.7944232692      -77.5567329216  TIP3      11474           0.0000000000
     56673     11666  TIP3      H1             26.2661692170       -8.3381382093      -76.9194064920  TIP3      11474           0.0000000000
     56674     11666  TIP3      H2             27.0826874018       -8.4753287606      -78.1902970125  TIP3      11474           0.0000000000
     56675     11667  TIP3      OH2            26.0162993970      -10.0181738152      -65.2515583039  TIP3      11475           0.0000000000
     56676     11667  TIP3      H1             25.4203964316       -9.2966137417      -64.9941079939  TIP3      11475           0.0000000000
     56677     11667  TIP3      H2             26.4144789752       -9.6499566147      -66.0586353468  TIP3      11475           0.0000000000
     56678     11668  TIP3      OH2            27.8527727521       -9.6374307945      -79.3421825325  TIP3      11476           0.0000000000
     56679     11668  TIP3      H1             27.7253243528       -9.7372947840      -80.2974412217  TIP3      11476           0.0000000000
     56680     11668  TIP3      H2             28.8323224580       -9.5461091143      -79.2546841784  TIP3      11476           0.0000000000
     56681     11669  TIP3      OH2            31.0888945153       -7.4398667757      -61.9098718799  TIP3      11477           0.0000000000
     56682     11669  TIP3      H1             32.0437608057       -7.4598518305      -62.0294250479  TIP3      11477           0.0000000000
     56683     11669  TIP3      H2             30.9353544430       -8.2195100381      -61.3524527979  TIP3      11477           0.0000000000
     56684     11670  TIP3      OH2            26.4238394989      -12.6399151253      -64.1942836692  TIP3      11478           0.0000000000
     56685     11670  TIP3      H1             26.5399032810      -13.3488182155      -64.8526348660  TIP3      11478           0.0000000000
     56686     11670  TIP3      H2             26.3785265514      -11.8286765311      -64.7426055404  TIP3      11478           0.0000000000
     56687     11671  TIP3      OH2            26.8270640258      -14.2576799330      -66.6387721308  TIP3      11479           0.0000000000
     56688     11671  TIP3      H1             27.3354507174      -13.7924402233      -67.3457028919  TIP3      11479           0.0000000000
     56689     11671  TIP3      H2             25.9334296203      -14.3353785510      -67.0447444468  TIP3      11479           0.0000000000
     56690     11672  TIP3      OH2            28.3652626897       -8.7662930785      -66.3955238449  TIP3      11480           0.0000000000
     56691     11672  TIP3      H1             29.1206586600       -8.9339290470      -66.9683634476  TIP3      11480           0.0000000000
     56692     11672  TIP3      H2             28.0052691112       -7.9309835179      -66.7323329036  TIP3      11480           0.0000000000
     56693     11673  TIP3      OH2            32.8119362126      -10.9859296057      -61.4357042093  TIP3      11481           0.0000000000
     56694     11673  TIP3      H1             33.0291615683      -11.9288567806      -61.5218306196  TIP3      11481           0.0000000000
     56695     11673  TIP3      H2             33.6881266941      -10.5790138916      -61.4437707990  TIP3      11481           0.0000000000
     56696     11674  TIP3      OH2            34.1230357388       -8.1774790661      -63.2638585574  TIP3      11482           0.0000000000
     56697     11674  TIP3      H1             33.8285232989       -7.4941163838      -63.9064839342  TIP3      11482           0.0000000000
     56698     11674  TIP3      H2             35.0521843269       -8.2920769413      -63.4767720598  TIP3      11482           0.0000000000
     56699     11675  TIP3      OH2            24.8864223522      -11.3884671154      -62.2735348166  TIP3      11483           0.0000000000
     56700     11675  TIP3      H1             24.1155001473      -11.9665959402      -62.4411455792  TIP3      11483           0.0000000000
     56701     11675  TIP3      H2             25.5412698913      -11.7599834676      -62.8909302964  TIP3      11483           0.0000000000
     56702     11676  TIP3      OH2            27.6174080571      -16.8216700286      -66.2523947110  TIP3      11484           0.0000000000
     56703     11676  TIP3      H1             27.4333238781      -15.8582722456      -66.3454372680  TIP3      11484           0.0000000000
     56704     11676  TIP3      H2             26.8668799782      -17.1874782799      -66.7527216305  TIP3      11484           0.0000000000
     56705     11677  TIP3      OH2            28.8850632171      -12.4888495124      -62.6226362938  TIP3      11485           0.0000000000
     56706     11677  TIP3      H1             28.5874183118      -12.7275007159      -61.7195161277  TIP3      11485           0.0000000000
     56707     11677  TIP3      H2             28.1013341265      -12.6957277486      -63.1588848526  TIP3      11485           0.0000000000
     56708     11678  TIP3      OH2            31.5657429623      -13.3301216839      -63.5227138094  TIP3      11486           0.0000000000
     56709     11678  TIP3      H1             30.6036691009      -13.3037079855      -63.4034914167  TIP3      11486           0.0000000000
     56710     11678  TIP3      H2             31.8821292401      -13.9664108704      -62.8549618745  TIP3      11486           0.0000000000
     56711     11679  TIP3      OH2            33.2767937708      -14.7628817451      -61.6287084342  TIP3      11487           0.0000000000
     56712     11679  TIP3      H1             33.1296754609      -15.7297745576      -61.5892577169  TIP3      11487           0.0000000000
     56713     11679  TIP3      H2             32.9312211504      -14.4285270806      -60.7691752756  TIP3      11487           0.0000000000
     56714     11680  TIP3      OH2            22.9612997283      -13.4516334144      -62.5173024167  TIP3      11488           0.0000000000
     56715     11680  TIP3      H1             23.2110724561      -14.1876056974      -63.1031692586  TIP3      11488           0.0000000000
     56716     11680  TIP3      H2             22.8737569856      -13.9000825378      -61.6533392146  TIP3      11488           0.0000000000
     56717     11681  TIP3      OH2            27.8278417354      -17.4289977338      -63.5498074273  TIP3      11489           0.0000000000
     56718     11681  TIP3      H1             28.5093049674      -18.1300026743      -63.5667324985  TIP3      11489           0.0000000000
     56719     11681  TIP3      H2             27.7190930138      -17.2782133514      -64.5073412656  TIP3      11489           0.0000000000
     56720     11682  TIP3      OH2            28.1773284461      -15.8287591268      -61.4416586184  TIP3      11490           0.0000000000
     56721     11682  TIP3      H1             28.0068251961      -16.3221146760      -62.2806063630  TIP3      11490           0.0000000000
     56722     11682  TIP3      H2             27.5970715794      -15.0474375452      -61.5311839309  TIP3      11490           0.0000000000
     56723     11683  TIP3      OH2            27.6454008335        1.0914130157      -78.2887398591  TIP3      11491           0.0000000000
     56724     11683  TIP3      H1             28.6206708100        1.1839539045      -78.1968828016  TIP3      11491           0.0000000000
     56725     11683  TIP3      H2             27.4832240360        1.7342758721      -78.9805834764  TIP3      11491           0.0000000000
     56726     11684  TIP3      OH2            21.2264512074       -4.3075011154      -78.7947491149  TIP3      11492           0.0000000000
     56727     11684  TIP3      H1             22.1845947383       -4.1903635162      -78.5885015684  TIP3      11492           0.0000000000
     56728     11684  TIP3      H2             21.2805958903       -4.8900222433      -79.5609688250  TIP3      11492           0.0000000000
     56729     11685  TIP3      OH2            19.9924772688        1.0559488256      -73.8235486785  TIP3      11493           0.0000000000
     56730     11685  TIP3      H1             19.2740090182        0.5719698153      -74.2873462950  TIP3      11493           0.0000000000
     56731     11685  TIP3      H2             20.2733001425        0.4017187259      -73.1586434250  TIP3      11493           0.0000000000
     56732     11686  TIP3      OH2            20.8266287811       -0.7938975490      -71.9448322871  TIP3      11494           0.0000000000
     56733     11686  TIP3      H1             20.4729757698       -1.6687401100      -71.7436552352  TIP3      11494           0.0000000000
     56734     11686  TIP3      H2             21.0614765688       -0.4723264056      -71.0572602822  TIP3      11494           0.0000000000
     56735     11687  TIP3      OH2            36.2813001361       -2.7508354206      -66.7706648879  TIP3      11495           0.0000000000
     56736     11687  TIP3      H1             35.6202568538       -2.3166363787      -66.2131697678  TIP3      11495           0.0000000000
     56737     11687  TIP3      H2             35.7542829269       -3.1156053879      -67.5052710417  TIP3      11495           0.0000000000
     56738     11688  TIP3      OH2            35.7996254741       -9.5143423837      -73.2253673118  TIP3      11496           0.0000000000
     56739     11688  TIP3      H1             35.5359246716      -10.4423384627      -73.4551533884  TIP3      11496           0.0000000000
     56740     11688  TIP3      H2             35.4391272386       -9.4841745789      -72.3342520281  TIP3      11496           0.0000000000
     56741     11689  TIP3      OH2            20.8719836159       -7.7057000833      -69.4679238134  TIP3      11497           0.0000000000
     56742     11689  TIP3      H1             21.0835459475       -7.8211185224      -70.4177709794  TIP3      11497           0.0000000000
     56743     11689  TIP3      H2             21.7566204499       -7.9054714718      -69.0898191862  TIP3      11497           0.0000000000
     56744     11690  TIP3      OH2            36.0113581882      -12.4623124866      -75.0742552675  TIP3      11498           0.0000000000
     56745     11690  TIP3      H1             35.9415628885      -13.4026704377      -75.1074222813  TIP3      11498           0.0000000000
     56746     11690  TIP3      H2             36.5094804672      -12.0466483697      -75.7681283058  TIP3      11498           0.0000000000
     56747     11691  TIP3      OH2           -37.0344294870      -12.5549859496      -69.5584970359  TIP3      11499           0.0000000000
     56748     11691  TIP3      H1            -36.1741291123      -12.1696778332      -69.7676556985  TIP3      11499           0.0000000000
     56749     11691  TIP3      H2            -37.2752593591      -11.8723104937      -68.9091756772  TIP3      11499           0.0000000000
     56750     11692  TIP3      OH2            36.2530865558      -10.9088413732      -66.5991732471  TIP3      11500           0.0000000000
     56751     11692  TIP3      H1             35.3192174888      -10.6429089593      -66.4854530246  TIP3      11500           0.0000000000
     56752     11692  TIP3      H2             36.6065692288      -10.2046327766      -67.1715737917  TIP3      11500           0.0000000000
     56753     11693  TIP3      OH2            20.4923384540      -12.4255630931      -63.2943541531  TIP3      11501           0.0000000000
     56754     11693  TIP3      H1             21.4311629279      -12.6416224244      -63.1089598977  TIP3      11501           0.0000000000
     56755     11693  TIP3      H2             20.0356281574      -13.2517897137      -63.0277259885  TIP3      11501           0.0000000000
     56756     11694  TIP3      OH2            35.3211819687      -15.2927773896      -74.3679190321  TIP3      11502           0.0000000000
     56757     11694  TIP3      H1             36.2551971123      -15.4144209410      -74.1493231429  TIP3      11502           0.0000000000
     56758     11694  TIP3      H2             35.3074835601      -15.6766438449      -75.2613225688  TIP3      11502           0.0000000000
     56759     11695  TIP3      OH2            21.6904887326      -14.1372919511      -70.4516057162  TIP3      11503           0.0000000000
     56760     11695  TIP3      H1             22.1524352379      -14.9636575028      -70.1965626306  TIP3      11503           0.0000000000
     56761     11695  TIP3      H2             22.2431099323      -13.4432312848      -70.0676304210  TIP3      11503           0.0000000000
     56762     11696  TIP3      OH2            19.9551580234      -11.1067612646      -69.4390098954  TIP3      11504           0.0000000000
     56763     11696  TIP3      H1             20.5342632854      -11.3809312039      -70.1795859143  TIP3      11504           0.0000000000
     56764     11696  TIP3      H2             20.4569205808      -10.3378496041      -69.1368124428  TIP3      11504           0.0000000000
     56765     11697  TIP3      OH2            20.3232336340      -14.8698655910      -75.3468964137  TIP3      11505           0.0000000000
     56766     11697  TIP3      H1             19.3869440249      -14.6803347545      -75.5099609180  TIP3      11505           0.0000000000
     56767     11697  TIP3      H2             20.7578888796      -14.3835492443      -76.0650649928  TIP3      11505           0.0000000000
     56768     11698  TIP3      OH2            34.8894445652       -0.1202142021      -73.2941556356  TIP3      11506           0.0000000000
     56769     11698  TIP3      H1             35.5525633184       -0.4390265860      -73.9280273498  TIP3      11506           0.0000000000
     56770     11698  TIP3      H2             35.4096090920        0.4822472456      -72.7394646844  TIP3      11506           0.0000000000
     56771     11699  TIP3      OH2            20.2821240528      -16.2176847583      -67.0555243608  TIP3      11507           0.0000000000
     56772     11699  TIP3      H1             19.6200756125      -16.4143213331      -66.3691881617  TIP3      11507           0.0000000000
     56773     11699  TIP3      H2             19.8241703384      -15.5441291808      -67.5927107727  TIP3      11507           0.0000000000
     56774     11700  TIP3      OH2            22.5288008737       -3.0322063863      -62.8850187427  TIP3      11508           0.0000000000
     56775     11700  TIP3      H1             21.6915261566       -2.8053731031      -63.3237373188  TIP3      11508           0.0000000000
     56776     11700  TIP3      H2             22.2590721952       -3.1003862689      -61.9657008719  TIP3      11508           0.0000000000
     56777     11701  TIP3      OH2            25.4286872040       -2.0172921180      -66.6055560767  TIP3      11509           0.0000000000
     56778     11701  TIP3      H1             25.0986603678       -1.1489546944      -66.8790984672  TIP3      11509           0.0000000000
     56779     11701  TIP3      H2             26.3536747268       -1.9331885586      -66.9115229193  TIP3      11509           0.0000000000
     56780     11702  TIP3      OH2            29.7491778350       -0.5938950477      -63.7051622371  TIP3      11510           0.0000000000
     56781     11702  TIP3      H1             29.8862540437       -0.9471452157      -62.7956069624  TIP3      11510           0.0000000000
     56782     11702  TIP3      H2             30.6514555221       -0.2868260396      -63.9485068129  TIP3      11510           0.0000000000
     56783     11703  TIP3      OH2            32.0570152462        0.6709464699      -64.3842374562  TIP3      11511           0.0000000000
     56784     11703  TIP3      H1             32.7984150572        0.0978152381      -64.6253977653  TIP3      11511           0.0000000000
     56785     11703  TIP3      H2             32.4378978588        1.1236767237      -63.6016598310  TIP3      11511           0.0000000000
     56786     11704  TIP3      OH2            22.8512863918        1.2158589487      -66.6138232237  TIP3      11512           0.0000000000
     56787     11704  TIP3      H1             22.1204823595        1.7188352293      -67.0084823402  TIP3      11512           0.0000000000
     56788     11704  TIP3      H2             22.5419895344        1.0293049165      -65.7154559647  TIP3      11512           0.0000000000
     56789     11705  TIP3      OH2            25.3196558501        0.7950124327      -67.5385491959  TIP3      11513           0.0000000000
     56790     11705  TIP3      H1             24.4276693582        0.9475367525      -67.1461670379  TIP3      11513           0.0000000000
     56791     11705  TIP3      H2             25.2663806482        1.3848704977      -68.3135390906  TIP3      11513           0.0000000000
     56792     11706  TIP3      OH2            29.9877645764        0.6902534778      -68.3603465635  TIP3      11514           0.0000000000
     56793     11706  TIP3      H1             29.5592551863        1.2627414233      -69.0178896570  TIP3      11514           0.0000000000
     56794     11706  TIP3      H2             30.1557311430        1.3317701300      -67.6364044945  TIP3      11514           0.0000000000
     56795     11707  TIP3      OH2            32.3102340128       -0.4896647358      -67.3429648214  TIP3      11515           0.0000000000
     56796     11707  TIP3      H1             31.4546127911       -0.2140529996      -67.7085234718  TIP3      11515           0.0000000000
     56797     11707  TIP3      H2             32.7721583056        0.3668467910      -67.4098667406  TIP3      11515           0.0000000000
     56798     11708  TIP3      OH2            34.7611519904        1.0862435138      -67.1303378898  TIP3      11516           0.0000000000
     56799     11708  TIP3      H1             34.7566341431        2.0364686477      -67.3447333666  TIP3      11516           0.0000000000
     56800     11708  TIP3      H2             35.1037047865        0.7149105076      -67.9639266068  TIP3      11516           0.0000000000
     56801     11709  TIP3      OH2            22.3133095161       -0.1320369094      -69.6700900135  TIP3      11517           0.0000000000
     56802     11709  TIP3      H1             22.2356411244       -0.5799753589      -68.8013415747  TIP3      11517           0.0000000000
     56803     11709  TIP3      H2             23.1278126702       -0.5125171252      -70.0574827246  TIP3      11517           0.0000000000
     56804     11710  TIP3      OH2            24.3854011499       -1.4218098365      -71.0167701887  TIP3      11518           0.0000000000
     56805     11710  TIP3      H1             24.2230933506       -2.3553377779      -70.7823069369  TIP3      11518           0.0000000000
     56806     11710  TIP3      H2             25.2420465230       -1.2654629365      -70.5636321590  TIP3      11518           0.0000000000
     56807     11711  TIP3      OH2            26.9620988269       -0.9344132060      -70.1385921907  TIP3      11519           0.0000000000
     56808     11711  TIP3      H1             27.1448728532       -1.8549744779      -70.4036338924  TIP3      11519           0.0000000000
     56809     11711  TIP3      H2             27.0338093143       -0.9890244454      -69.1746439251  TIP3      11519           0.0000000000
     56810     11712  TIP3      OH2            30.4180905769      -15.2842792813      -71.0001615059  TIP3      11520           0.0000000000
     56811     11712  TIP3      H1             29.7590038554      -15.9380217575      -70.7156131858  TIP3      11520           0.0000000000
     56812     11712  TIP3      H2             30.9900230101      -15.8069259946      -71.5781528334  TIP3      11520           0.0000000000
     56813     11713  TIP3      OH2            35.5925018830      -17.2492158785      -70.9256036863  TIP3      11521           0.0000000000
     56814     11713  TIP3      H1             36.1677280225      -16.6209374118      -71.3707149732  TIP3      11521           0.0000000000
     56815     11713  TIP3      H2             34.6989206228      -16.8910440470      -71.1385053211  TIP3      11521           0.0000000000
     56816     11714  TIP3      OH2            22.8102643834      -16.6653518854      -73.1369755669  TIP3      11522           0.0000000000
     56817     11714  TIP3      H1             22.0210282749      -16.8546584408      -73.6801062725  TIP3      11522           0.0000000000
     56818     11714  TIP3      H2             23.2719726216      -17.5231016600      -73.2065634328  TIP3      11522           0.0000000000
     56819     11715  TIP3      OH2            21.5671724134      -16.9045848561      -77.4208449003  TIP3      11523           0.0000000000
     56820     11715  TIP3      H1             22.0704768807      -16.2640210700      -77.9643573556  TIP3      11523           0.0000000000
     56821     11715  TIP3      H2             21.0187418016      -16.3362367045      -76.8537856413  TIP3      11523           0.0000000000
     56822     11716  TIP3      OH2            27.2836836585      -16.7364911791      -73.3655565456  TIP3      11524           0.0000000000
     56823     11716  TIP3      H1             28.1829970415      -16.3749448274      -73.4389758075  TIP3      11524           0.0000000000
     56824     11716  TIP3      H2             27.2483331461      -16.9561285612      -72.4361481424  TIP3      11524           0.0000000000
     56825     11717  TIP3      OH2            33.0289746901      -16.7592872852      -71.7393914238  TIP3      11525           0.0000000000
     56826     11717  TIP3      H1             32.9658644032      -16.5474111733      -72.6807583411  TIP3      11525           0.0000000000
     56827     11717  TIP3      H2             32.5891301582      -17.6383687026      -71.6368548143  TIP3      11525           0.0000000000
     56828     11718  TIP3      OH2            34.2292122313      -16.7819163717      -76.2181746507  TIP3      11526           0.0000000000
     56829     11718  TIP3      H1             33.5481091913      -16.0894239710      -76.2221214486  TIP3      11526           0.0000000000
     56830     11718  TIP3      H2             33.7547967813      -17.5676163399      -75.8708734710  TIP3      11526           0.0000000000
     56831     11719  TIP3      OH2            21.5121511912       -0.9504819594      -76.4288873212  TIP3      11527           0.0000000000
     56832     11719  TIP3      H1             20.8271361529       -0.9555188710      -77.1282457154  TIP3      11527           0.0000000000
     56833     11719  TIP3      H2             21.5226947839       -0.0016982731      -76.2514789162  TIP3      11527           0.0000000000
     56834     11720  TIP3      OH2            23.4150023257      -15.0611453649      -78.8832503551  TIP3      11528           0.0000000000
     56835     11720  TIP3      H1             23.9676970639      -15.5854862209      -79.4628757471  TIP3      11528           0.0000000000
     56836     11720  TIP3      H2             24.0650726289      -14.6299604364      -78.2973445568  TIP3      11528           0.0000000000
     56837     11721  TIP3      OH2            28.4487254022      -14.7309372756      -76.5183097731  TIP3      11529           0.0000000000
     56838     11721  TIP3      H1             28.7069077174      -15.2889446610      -75.7645825309  TIP3      11529           0.0000000000
     56839     11721  TIP3      H2             28.4997519961      -13.8601446171      -76.0567434089  TIP3      11529           0.0000000000
     56840     11722  TIP3      OH2            30.3623710068        0.6916180787      -78.0113952091  TIP3      11530           0.0000000000
     56841     11722  TIP3      H1             31.3128724790        0.6382282141      -78.2243516714  TIP3      11530           0.0000000000
     56842     11722  TIP3      H2             30.1517637336       -0.0450986820      -78.6464951504  TIP3      11530           0.0000000000
     56843     11723  TIP3      OH2            22.7009120156      -16.1173111180      -63.7037251306  TIP3      11531           0.0000000000
     56844     11723  TIP3      H1             22.3114332404      -16.9141562657      -63.2967054207  TIP3      11531           0.0000000000
     56845     11723  TIP3      H2             23.6088616665      -16.1609312718      -63.3206445863  TIP3      11531           0.0000000000
     56846     11724  TIP3      OH2            24.7012249129      -16.7363966799      -62.0583319183  TIP3      11532           0.0000000000
     56847     11724  TIP3      H1             25.5976703885      -17.0699804033      -62.2712644165  TIP3      11532           0.0000000000
     56848     11724  TIP3      H2             24.3274664279      -17.5437534175      -61.6553634461  TIP3      11532           0.0000000000
     56849     11725  TIP3      OH2            23.3664906011        0.0202529639      -79.4678051104  TIP3      11533           0.0000000000
     56850     11725  TIP3      H1             23.0367852656        0.2930938464      -78.6003945036  TIP3      11533           0.0000000000
     56851     11725  TIP3      H2             24.1108667884       -0.5451032538      -79.2604612134  TIP3      11533           0.0000000000
     56852     11726  TIP3      OH2            33.1075888701      -17.4196702175      -61.9061518529  TIP3      11534           0.0000000000
     56853     11726  TIP3      H1             33.1991048253      -17.8999679632      -61.0565018033  TIP3      11534           0.0000000000
     56854     11726  TIP3      H2             34.0251798869      -17.4489404866      -62.2640660360  TIP3      11534           0.0000000000
     56855     11727  TIP3      OH2            36.0977837569       -1.5196031431      -63.1372308687  TIP3      11535           0.0000000000
     56856     11727  TIP3      H1             35.4541691562       -1.5785385273      -63.8742752820  TIP3      11535           0.0000000000
     56857     11727  TIP3      H2             36.1241886009       -0.5365557335      -63.0548958057  TIP3      11535           0.0000000000
     56858     11728  TIP3      OH2           -24.6639472848       11.3409817200      -73.2951113312  TIP3      11536           0.0000000000
     56859     11728  TIP3      H1            -24.6776358833       12.3197007621      -73.3375620092  TIP3      11536           0.0000000000
     56860     11728  TIP3      H2            -25.3922563773       11.1028626076      -73.8942265585  TIP3      11536           0.0000000000
     56861     11729  TIP3      OH2           -25.8203955761       10.5863628391      -69.7986709010  TIP3      11537           0.0000000000
     56862     11729  TIP3      H1            -25.8258578494        9.9407012808      -69.0781543023  TIP3      11537           0.0000000000
     56863     11729  TIP3      H2            -26.1617056529       10.0769273153      -70.5513048788  TIP3      11537           0.0000000000
     56864     11730  TIP3      OH2           -33.4039476724       10.2520476721      -68.2796476796  TIP3      11538           0.0000000000
     56865     11730  TIP3      H1            -33.3472400674        9.5799706041      -67.5665022019  TIP3      11538           0.0000000000
     56866     11730  TIP3      H2            -32.7042789950       10.8593682066      -68.0014604850  TIP3      11538           0.0000000000
     56867     11731  TIP3      OH2           -22.1029422761       13.5356470371      -71.5036216921  TIP3      11539           0.0000000000
     56868     11731  TIP3      H1            -22.5412051826       12.8248799771      -71.0264131331  TIP3      11539           0.0000000000
     56869     11731  TIP3      H2            -22.1202849238       14.2517718628      -70.8438421508  TIP3      11539           0.0000000000
     56870     11732  TIP3      OH2           -32.5360935190       14.6960432145      -69.7258107607  TIP3      11540           0.0000000000
     56871     11732  TIP3      H1            -32.8499339528       13.8396299222      -70.0713357268  TIP3      11540           0.0000000000
     56872     11732  TIP3      H2            -31.5766567468       14.5296449362      -69.7026269573  TIP3      11540           0.0000000000
     56873     11733  TIP3      OH2           -35.6227438814        8.2701087258      -74.6725620830  TIP3      11541           0.0000000000
     56874     11733  TIP3      H1            -36.0760648544        9.0688544082      -74.3130932023  TIP3      11541           0.0000000000
     56875     11733  TIP3      H2            -36.4075203173        7.7227080093      -74.6590724987  TIP3      11541           0.0000000000
     56876     11734  TIP3      OH2           -35.2189681619       10.4247824224      -72.1528408085  TIP3      11542           0.0000000000
     56877     11734  TIP3      H1            -34.9168756968        9.6673850611      -71.6277980630  TIP3      11542           0.0000000000
     56878     11734  TIP3      H2            -34.4809603052       10.6002725979      -72.7526774612  TIP3      11542           0.0000000000
     56879     11735  TIP3      OH2           -25.0079091581       18.6970971912      -71.2741529652  TIP3      11543           0.0000000000
     56880     11735  TIP3      H1            -24.3574629446       18.0082957282      -71.5602683872  TIP3      11543           0.0000000000
     56881     11735  TIP3      H2            -25.2220025811       18.3599681808      -70.4038143070  TIP3      11543           0.0000000000
     56882     11736  TIP3      OH2           -27.4371849249       12.9889411064      -69.3205568451  TIP3      11544           0.0000000000
     56883     11736  TIP3      H1            -27.0985590816       12.3621889710      -69.9806825086  TIP3      11544           0.0000000000
     56884     11736  TIP3      H2            -26.6252862969       13.1468473766      -68.8074238462  TIP3      11544           0.0000000000
     56885     11737  TIP3      OH2           -18.8427306386        4.6531428879      -68.6005975686  TIP3      11545           0.0000000000
     56886     11737  TIP3      H1            -18.6623538703        5.2373768277      -67.8327072627  TIP3      11545           0.0000000000
     56887     11737  TIP3      H2            -18.2704288719        5.0687562838      -69.2614341324  TIP3      11545           0.0000000000
     56888     11738  TIP3      OH2           -24.2683256531        7.4581766497      -69.0086509378  TIP3      11546           0.0000000000
     56889     11738  TIP3      H1            -24.1004692163        6.4993166402      -69.0037848416  TIP3      11546           0.0000000000
     56890     11738  TIP3      H2            -24.3709090058        7.5978203745      -69.9699563826  TIP3      11546           0.0000000000
     56891     11739  TIP3      OH2           -31.1520094572        5.5487376256      -71.7861488150  TIP3      11547           0.0000000000
     56892     11739  TIP3      H1            -31.0370806322        6.3766358345      -72.2877711681  TIP3      11547           0.0000000000
     56893     11739  TIP3      H2            -31.5350490216        4.9714158538      -72.4819249971  TIP3      11547           0.0000000000
     56894     11740  TIP3      OH2           -23.4138943425        5.6252939913      -73.4287845855  TIP3      11548           0.0000000000
     56895     11740  TIP3      H1            -22.7644944821        5.3145033038      -72.7557641326  TIP3      11548           0.0000000000
     56896     11740  TIP3      H2            -22.8496070056        6.1999208820      -73.9722904625  TIP3      11548           0.0000000000
     56897     11741  TIP3      OH2           -34.5632904497        7.8717882026      -71.1190459723  TIP3      11549           0.0000000000
     56898     11741  TIP3      H1            -33.8356453337        7.4060038397      -70.6550166246  TIP3      11549           0.0000000000
     56899     11741  TIP3      H2            -34.3806096937        7.5951498558      -72.0283934557  TIP3      11549           0.0000000000
     56900     11742  TIP3      OH2           -29.3775249694        9.5130241218      -71.7407051116  TIP3      11550           0.0000000000
     56901     11742  TIP3      H1            -28.7021710348        8.9331555779      -71.3470013841  TIP3      11550           0.0000000000
     56902     11742  TIP3      H2            -29.8871419873        8.8571426195      -72.2543819188  TIP3      11550           0.0000000000
     56903     11743  TIP3      OH2           -18.3986513379        6.0549103395      -66.3218526762  TIP3      11551           0.0000000000
     56904     11743  TIP3      H1            -19.0038705520        6.8198622364      -66.4324917286  TIP3      11551           0.0000000000
     56905     11743  TIP3      H2            -18.3645604407        5.9740203326      -65.3622406146  TIP3      11551           0.0000000000
     56906     11744  TIP3      OH2           -32.2038624505        4.4480182154      -67.7594544992  TIP3      11552           0.0000000000
     56907     11744  TIP3      H1            -32.5141217543        5.0160171446      -68.4957451463  TIP3      11552           0.0000000000
     56908     11744  TIP3      H2            -32.8883508041        4.6690415667      -67.0786189310  TIP3      11552           0.0000000000
     56909     11745  TIP3      OH2           -24.9629941048       13.9198172575      -74.2097789822  TIP3      11553           0.0000000000
     56910     11745  TIP3      H1            -25.2359973605       13.6532756649      -75.1028204639  TIP3      11553           0.0000000000
     56911     11745  TIP3      H2            -25.2634293326       14.8547030832      -74.1594613222  TIP3      11553           0.0000000000
     56912     11746  TIP3      OH2           -29.7084387189       12.0895121250      -67.5153791614  TIP3      11554           0.0000000000
     56913     11746  TIP3      H1            -30.4262587455       12.7241304589      -67.2968119158  TIP3      11554           0.0000000000
     56914     11746  TIP3      H2            -29.0138115492       12.6959897892      -67.8108162918  TIP3      11554           0.0000000000
     56915     11747  TIP3      OH2           -21.6044674114        4.9740606119      -71.4310664700  TIP3      11555           0.0000000000
     56916     11747  TIP3      H1            -21.8256585423        4.2050506787      -70.8984049751  TIP3      11555           0.0000000000
     56917     11747  TIP3      H2            -20.9342062356        5.4095219399      -70.8770693770  TIP3      11555           0.0000000000
     56918     11748  TIP3      OH2           -32.6999768995        6.2836729337      -69.7199776953  TIP3      11556           0.0000000000
     56919     11748  TIP3      H1            -32.0817591918        6.9809755150      -69.3953155142  TIP3      11556           0.0000000000
     56920     11748  TIP3      H2            -32.1523008316        5.8969341978      -70.4545624547  TIP3      11556           0.0000000000
     56921     11749  TIP3      OH2           -31.2960819190       14.0790476622      -66.7106533445  TIP3      11557           0.0000000000
     56922     11749  TIP3      H1            -31.3376362103       15.0007602276      -67.0310628003  TIP3      11557           0.0000000000
     56923     11749  TIP3      H2            -32.1744678972       14.0013914298      -66.2656683710  TIP3      11557           0.0000000000
     56924     11750  TIP3      OH2           -35.2490635735       13.7469376096      -75.9343873894  TIP3      11558           0.0000000000
     56925     11750  TIP3      H1            -35.4188387764       14.0729579811      -76.8372478221  TIP3      11558           0.0000000000
     56926     11750  TIP3      H2            -35.1256298881       14.5559168325      -75.3984753611  TIP3      11558           0.0000000000
     56927     11751  TIP3      OH2           -21.5822739294       15.3816010696      -69.1280244660  TIP3      11559           0.0000000000
     56928     11751  TIP3      H1            -22.5581174340       15.4816287211      -69.0278849904  TIP3      11559           0.0000000000
     56929     11751  TIP3      H2            -21.3428499758       16.3022826236      -69.3504361940  TIP3      11559           0.0000000000
     56930     11752  TIP3      OH2           -21.2732575640        3.6582605587      -67.7547890507  TIP3      11560           0.0000000000
     56931     11752  TIP3      H1            -21.9968175072        4.2918946571      -67.8474446171  TIP3      11560           0.0000000000
     56932     11752  TIP3      H2            -20.5587879864        4.0772470398      -68.2774590054  TIP3      11560           0.0000000000
     56933     11753  TIP3      OH2           -28.3047259409        1.7860924726      -70.2952886874  TIP3      11561           0.0000000000
     56934     11753  TIP3      H1            -28.4369438271        0.8215190462      -70.3648109098  TIP3      11561           0.0000000000
     56935     11753  TIP3      H2            -29.1842265702        2.0850503456      -69.9830437624  TIP3      11561           0.0000000000
     56936     11754  TIP3      OH2           -23.3340832163       17.1605940187      -72.5558085228  TIP3      11562           0.0000000000
     56937     11754  TIP3      H1            -22.9133465175       16.4416603844      -73.0699387543  TIP3      11562           0.0000000000
     56938     11754  TIP3      H2            -22.8961326747       17.9493303666      -72.9393269631  TIP3      11562           0.0000000000
     56939     11755  TIP3      OH2           -22.1236300026       15.0854366386      -74.0433162088  TIP3      11563           0.0000000000
     56940     11755  TIP3      H1            -22.4181841337       14.3939125937      -74.6617309168  TIP3      11563           0.0000000000
     56941     11755  TIP3      H2            -22.0908018292       14.5912021165      -73.2035496063  TIP3      11563           0.0000000000
     56942     11756  TIP3      OH2           -20.4778053520       13.6774095253      -65.5436355588  TIP3      11564           0.0000000000
     56943     11756  TIP3      H1            -20.3868407594       13.0214464244      -66.2671841586  TIP3      11564           0.0000000000
     56944     11756  TIP3      H2            -20.3257462911       14.5292380305      -65.9859776173  TIP3      11564           0.0000000000
     56945     11757  TIP3      OH2           -26.0117139502       10.5750291130      -75.7997399151  TIP3      11565           0.0000000000
     56946     11757  TIP3      H1            -26.7061386830       11.1586880074      -76.1768260688  TIP3      11565           0.0000000000
     56947     11757  TIP3      H2            -25.3075538781       10.6533153096      -76.4675426609  TIP3      11565           0.0000000000
     56948     11758  TIP3      OH2           -26.0034385452        9.0666768341      -78.6670875123  TIP3      11566           0.0000000000
     56949     11758  TIP3      H1            -25.2238301149        9.1275031843      -78.0977466329  TIP3      11566           0.0000000000
     56950     11758  TIP3      H2            -25.6565240533        8.4733077701      -79.3333223645  TIP3      11566           0.0000000000
     56951     11759  TIP3      OH2           -18.5970654557       10.0207867697      -67.4858720001  TIP3      11567           0.0000000000
     56952     11759  TIP3      H1            -19.3049274945       10.6959362708      -67.4615473334  TIP3      11567           0.0000000000
     56953     11759  TIP3      H2            -18.1489958111       10.1978559166      -68.3260005420  TIP3      11567           0.0000000000
     56954     11760  TIP3      OH2           -22.5647648339       10.7855707008      -74.8380160830  TIP3      11568           0.0000000000
     56955     11760  TIP3      H1            -23.3117303445       11.0270339601      -74.2364775743  TIP3      11568           0.0000000000
     56956     11760  TIP3      H2            -22.0897571765       10.1091629598      -74.3209680195  TIP3      11568           0.0000000000
     56957     11761  TIP3      OH2           -22.6320319948        8.9473046956      -65.7339727242  TIP3      11569           0.0000000000
     56958     11761  TIP3      H1            -22.6254439978        9.7665184894      -65.2113078808  TIP3      11569           0.0000000000
     56959     11761  TIP3      H2            -23.2629038091        9.2383296310      -66.4250712656  TIP3      11569           0.0000000000
     56960     11762  TIP3      OH2           -30.9309196885       11.4500474867      -72.9389548128  TIP3      11570           0.0000000000
     56961     11762  TIP3      H1            -31.2853398319       11.0487615331      -73.7694707927  TIP3      11570           0.0000000000
     56962     11762  TIP3      H2            -30.3280671479       10.7482550950      -72.6080509398  TIP3      11570           0.0000000000
     56963     11763  TIP3      OH2           -29.6304545229       14.8221418668      -70.2648870147  TIP3      11571           0.0000000000
     56964     11763  TIP3      H1            -29.6333984692       14.2984413667      -71.0743941618  TIP3      11571           0.0000000000
     56965     11763  TIP3      H2            -28.8473802082       14.4682037658      -69.8046010592  TIP3      11571           0.0000000000
     56966     11764  TIP3      OH2           -30.5903598038       10.1812536526      -69.2804659749  TIP3      11572           0.0000000000
     56967     11764  TIP3      H1            -30.0576803823       10.2941305170      -70.0890643933  TIP3      11572           0.0000000000
     56968     11764  TIP3      H2            -30.2313190085       10.8639195250      -68.6700907371  TIP3      11572           0.0000000000
     56969     11765  TIP3      OH2           -24.2228576009       15.7683988906      -68.5781797299  TIP3      11573           0.0000000000
     56970     11765  TIP3      H1            -24.4964340344       16.3987826218      -67.9070136129  TIP3      11573           0.0000000000
     56971     11765  TIP3      H2            -24.4450236412       14.9067681764      -68.1522792600  TIP3      11573           0.0000000000
     56972     11766  TIP3      OH2           -29.6682432295       14.6159568640      -64.5843552695  TIP3      11574           0.0000000000
     56973     11766  TIP3      H1            -30.0829782787       15.3577415003      -64.0964494776  TIP3      11574           0.0000000000
     56974     11766  TIP3      H2            -30.3378708564       14.4205406800      -65.2833000353  TIP3      11574           0.0000000000
     56975     11767  TIP3      OH2           -23.6772836211        9.9623288368      -77.1757667796  TIP3      11575           0.0000000000
     56976     11767  TIP3      H1            -23.1375332896       10.1664686207      -76.3735982917  TIP3      11575           0.0000000000
     56977     11767  TIP3      H2            -23.2670699427       10.5193213479      -77.8672624851  TIP3      11575           0.0000000000
     56978     11768  TIP3      OH2           -32.7307642223       10.7890964799      -65.4042065290  TIP3      11576           0.0000000000
     56979     11768  TIP3      H1            -32.6842582707       11.4715019069      -64.7121716874  TIP3      11576           0.0000000000
     56980     11768  TIP3      H2            -33.6699005868       10.8765641301      -65.6387499966  TIP3      11576           0.0000000000
     56981     11769  TIP3      OH2           -25.9799517428       16.7004535484      -73.7098833787  TIP3      11577           0.0000000000
     56982     11769  TIP3      H1            -25.5428598194       17.0173206605      -72.9121547975  TIP3      11577           0.0000000000
     56983     11769  TIP3      H2            -26.5278323592       17.4505983409      -73.9719997853  TIP3      11577           0.0000000000
     56984     11770  TIP3      OH2           -31.4204928371       16.6395906399      -63.8390907246  TIP3      11578           0.0000000000
     56985     11770  TIP3      H1            -31.4961009314       16.5596360306      -64.8072731512  TIP3      11578           0.0000000000
     56986     11770  TIP3      H2            -32.3538724791       16.5151949763      -63.5745200656  TIP3      11578           0.0000000000
     56987     11771  TIP3      OH2           -19.9540197770        1.7295976165      -77.2790832212  TIP3      11579           0.0000000000
     56988     11771  TIP3      H1            -20.9140008225        1.8200269760      -77.0812511726  TIP3      11579           0.0000000000
     56989     11771  TIP3      H2            -19.7651739206        2.5722134425      -77.7275003753  TIP3      11579           0.0000000000
     56990     11772  TIP3      OH2           -31.9555863771       10.4623478605      -75.3258775786  TIP3      11580           0.0000000000
     56991     11772  TIP3      H1            -32.2485569238       11.2345086074      -75.8560942126  TIP3      11580           0.0000000000
     56992     11772  TIP3      H2            -32.6167613653        9.8020817102      -75.5530124245  TIP3      11580           0.0000000000
     56993     11773  TIP3      OH2           -18.8883963455       16.0428748261      -78.9151388170  TIP3      11581           0.0000000000
     56994     11773  TIP3      H1            -18.7555140545       16.9985470066      -78.8216245399  TIP3      11581           0.0000000000
     56995     11773  TIP3      H2            -17.9558083805       15.7691784709      -78.9851314954  TIP3      11581           0.0000000000
     56996     11774  TIP3      OH2           -35.2945193574       12.7624844320      -66.6839024055  TIP3      11582           0.0000000000
     56997     11774  TIP3      H1            -36.0673349080       12.8876598493      -67.2753570211  TIP3      11582           0.0000000000
     56998     11774  TIP3      H2            -35.6665341621       11.9763620312      -66.2212701580  TIP3      11582           0.0000000000
     56999     11775  TIP3      OH2           -35.8264043591       15.8694396064      -69.9330826826  TIP3      11583           0.0000000000
     57000     11775  TIP3      H1            -35.0066986686       15.4603082428      -69.6431908151  TIP3      11583           0.0000000000
     57001     11775  TIP3      H2            -36.1157344141       16.3288435026      -69.1324164477  TIP3      11583           0.0000000000
     57002     11776  TIP3      OH2           -17.9033778371       16.3251636409      -63.9993852725  TIP3      11584           0.0000000000
     57003     11776  TIP3      H1            -18.0172582067       15.3665406331      -63.9669624919  TIP3      11584           0.0000000000
     57004     11776  TIP3      H2            -18.7552870768       16.5878651811      -63.5702647776  TIP3      11584           0.0000000000
     57005     11777  TIP3      OH2           -26.9346853524       15.8713062293      -65.0996185407  TIP3      11585           0.0000000000
     57006     11777  TIP3      H1            -26.8761430966       16.7142298387      -64.5916179485  TIP3      11585           0.0000000000
     57007     11777  TIP3      H2            -27.8079487457       15.5130620261      -64.8489778180  TIP3      11585           0.0000000000
     57008     11778  TIP3      OH2           -26.5165534979       19.6102046384      -75.3217854104  TIP3      11586           0.0000000000
     57009     11778  TIP3      H1            -26.5844282658       19.5653654944      -76.2931293098  TIP3      11586           0.0000000000
     57010     11778  TIP3      H2            -26.4619693439       20.5688291201      -75.1413618621  TIP3      11586           0.0000000000
     57011     11779  TIP3      OH2           -32.8646730049       18.4974949063      -73.4933005331  TIP3      11587           0.0000000000
     57012     11779  TIP3      H1            -32.7215184585       18.0889179850      -72.6106088315  TIP3      11587           0.0000000000
     57013     11779  TIP3      H2            -33.6950639672       18.0618369508      -73.7353441300  TIP3      11587           0.0000000000
     57014     11780  TIP3      OH2           -23.4922448603       18.8121674095      -78.3353935176  TIP3      11588           0.0000000000
     57015     11780  TIP3      H1            -22.9921756979       18.0809671970      -78.7693770801  TIP3      11588           0.0000000000
     57016     11780  TIP3      H2            -23.3935074449       18.5764007918      -77.3937667134  TIP3      11588           0.0000000000
     57017     11781  TIP3      OH2           -23.7506152024       18.7651000878      -75.5380385524  TIP3      11589           0.0000000000
     57018     11781  TIP3      H1            -24.7079603368       18.8322592908      -75.3580469603  TIP3      11589           0.0000000000
     57019     11781  TIP3      H2            -23.5036106273       18.0240456539      -74.9639662993  TIP3      11589           0.0000000000
     57020     11782  TIP3      OH2           -20.7445921778        7.7993442240      -63.4928282656  TIP3      11590           0.0000000000
     57021     11782  TIP3      H1            -21.2202376395        8.2506398397      -64.2091259383  TIP3      11590           0.0000000000
     57022     11782  TIP3      H2            -20.7596955126        6.8800470770      -63.7979850956  TIP3      11590           0.0000000000
     57023     11783  TIP3      OH2           -33.5891109937       14.2929417162      -65.4202246111  TIP3      11591           0.0000000000
     57024     11783  TIP3      H1            -33.4057523605       13.8439917300      -64.5723902265  TIP3      11591           0.0000000000
     57025     11783  TIP3      H2            -34.4162656727       13.8439100788      -65.7064208198  TIP3      11591           0.0000000000
     57026     11784  TIP3      OH2           -30.9155156734        2.6936517240      -69.5383977855  TIP3      11592           0.0000000000
     57027     11784  TIP3      H1            -31.8174665082        2.5690700737      -69.9089836405  TIP3      11592           0.0000000000
     57028     11784  TIP3      H2            -31.0569601880        3.5190598600      -69.0468916902  TIP3      11592           0.0000000000
     57029     11785  TIP3      OH2           -26.2793674331        2.3486083368      -66.1777429058  TIP3      11593           0.0000000000
     57030     11785  TIP3      H1            -25.8871348040        1.9271569572      -65.3902951442  TIP3      11593           0.0000000000
     57031     11785  TIP3      H2            -27.2516942491        2.2334225265      -66.0313272816  TIP3      11593           0.0000000000
     57032     11786  TIP3      OH2           -22.9925783782        6.1971725864      -65.2745539328  TIP3      11594           0.0000000000
     57033     11786  TIP3      H1            -23.5580878363        5.9820429788      -64.4938219322  TIP3      11594           0.0000000000
     57034     11786  TIP3      H2            -23.1780639116        7.1240227780      -65.5036750291  TIP3      11594           0.0000000000
     57035     11787  TIP3      OH2           -22.1515538154       11.1013506932      -79.3073069942  TIP3      11595           0.0000000000
     57036     11787  TIP3      H1            -22.1737162100       10.8926854050      -80.2595888154  TIP3      11595           0.0000000000
     57037     11787  TIP3      H2            -21.2661456556       11.5002634734      -79.2317958835  TIP3      11595           0.0000000000
     57038     11788  TIP3      OH2           -26.6543794564        4.9351377349      -78.8355906393  TIP3      11596           0.0000000000
     57039     11788  TIP3      H1            -26.9511856816        4.8762271060      -77.9077479324  TIP3      11596           0.0000000000
     57040     11788  TIP3      H2            -26.8811465693        4.0462694397      -79.1305891711  TIP3      11596           0.0000000000
     57041     11789  TIP3      OH2           -30.8374014420        7.6574636641      -68.2884932376  TIP3      11597           0.0000000000
     57042     11789  TIP3      H1            -31.5639421421        7.6564894218      -67.6351638990  TIP3      11597           0.0000000000
     57043     11789  TIP3      H2            -30.8567612576        8.5692587258      -68.6542403111  TIP3      11597           0.0000000000
     57044     11790  TIP3      OH2           -30.8433868675        7.7774290037      -73.4191495028  TIP3      11598           0.0000000000
     57045     11790  TIP3      H1            -31.7815198135        7.5313062774      -73.5622833025  TIP3      11598           0.0000000000
     57046     11790  TIP3      H2            -30.4685604834        7.4833326687      -74.2737009558  TIP3      11598           0.0000000000
     57047     11791  TIP3      OH2           -25.3352208402        8.2682804190      -74.6878423027  TIP3      11599           0.0000000000
     57048     11791  TIP3      H1            -25.7434263699        9.1025961784      -75.0087000097  TIP3      11599           0.0000000000
     57049     11791  TIP3      H2            -24.6423923543        8.1186840790      -75.3576546844  TIP3      11599           0.0000000000
     57050     11792  TIP3      OH2           -26.2881187342        8.4859505070      -63.2139251485  TIP3      11600           0.0000000000
     57051     11792  TIP3      H1            -26.8133656472        7.7101303782      -62.9030589050  TIP3      11600           0.0000000000
     57052     11792  TIP3      H2            -25.4501700287        8.3649768530      -62.7371096541  TIP3      11600           0.0000000000
     57053     11793  TIP3      OH2           -24.3050164507        7.7655403155      -71.8015974699  TIP3      11601           0.0000000000
     57054     11793  TIP3      H1            -24.5897822086        8.3287006020      -72.5418130147  TIP3      11601           0.0000000000
     57055     11793  TIP3      H2            -24.2116021819        6.9167439571      -72.2737441456  TIP3      11601           0.0000000000
     57056     11794  TIP3      OH2           -33.1843925067        7.8912803632      -66.6028055808  TIP3      11602           0.0000000000
     57057     11794  TIP3      H1            -33.1672768153        8.3141420275      -65.7290309129  TIP3      11602           0.0000000000
     57058     11794  TIP3      H2            -33.6731331576        7.0781646947      -66.4087507742  TIP3      11602           0.0000000000
     57059     11795  TIP3      OH2           -29.6065559895        5.5972499642      -79.3729794996  TIP3      11603           0.0000000000
     57060     11795  TIP3      H1            -30.1591338465        4.9450439438      -78.9033837904  TIP3      11603           0.0000000000
     57061     11795  TIP3      H2            -30.1710641112        5.9313179596      -80.0789147785  TIP3      11603           0.0000000000
     57062     11796  TIP3      OH2           -36.1610326613        5.3436213950      -72.8063032799  TIP3      11604           0.0000000000
     57063     11796  TIP3      H1            -35.8324199154        4.9886068365      -71.9531750149  TIP3      11604           0.0000000000
     57064     11796  TIP3      H2            -36.0346556526        4.5871467230      -73.3811216818  TIP3      11604           0.0000000000
     57065     11797  TIP3      OH2           -35.2712706396        5.8946620510      -77.2724665717  TIP3      11605           0.0000000000
     57066     11797  TIP3      H1            -34.7291306602        6.4167842251      -77.8920668963  TIP3      11605           0.0000000000
     57067     11797  TIP3      H2            -35.9997279671        6.4501966966      -77.0375145159  TIP3      11605           0.0000000000
     57068     11798  TIP3      OH2           -25.1115795703        9.3495886578      -67.2520473797  TIP3      11606           0.0000000000
     57069     11798  TIP3      H1            -24.7302534219        8.6629869230      -67.8360428223  TIP3      11606           0.0000000000
     57070     11798  TIP3      H2            -25.5784142799        8.8222928934      -66.5790649749  TIP3      11606           0.0000000000
     57071     11799  TIP3      OH2           -28.3055090816        5.3315534415      -72.4162502074  TIP3      11607           0.0000000000
     57072     11799  TIP3      H1            -29.2387340906        5.3310877017      -72.1258075517  TIP3      11607           0.0000000000
     57073     11799  TIP3      H2            -27.8253972422        5.1586130847      -71.5948980365  TIP3      11607           0.0000000000
     57074     11800  TIP3      OH2           -33.4866164307        6.8701812168      -73.5519316632  TIP3      11608           0.0000000000
     57075     11800  TIP3      H1            -34.3570521648        7.0415369281      -73.9540950632  TIP3      11608           0.0000000000
     57076     11800  TIP3      H2            -33.2469715813        6.0208478576      -73.9626958960  TIP3      11608           0.0000000000
     57077     11801  TIP3      OH2           -29.8691149919        6.9517696662      -75.8972433791  TIP3      11609           0.0000000000
     57078     11801  TIP3      H1            -28.9049156383        7.0393680067      -75.7487150420  TIP3      11609           0.0000000000
     57079     11801  TIP3      H2            -30.1041343846        7.5922893263      -76.5955931467  TIP3      11609           0.0000000000
     57080     11802  TIP3      OH2           -23.9036859541        4.5631680268      -69.1767990596  TIP3      11610           0.0000000000
     57081     11802  TIP3      H1            -24.5855752571        4.6125869283      -68.4700041494  TIP3      11610           0.0000000000
     57082     11802  TIP3      H2            -24.4127348904        4.3075475332      -69.9584821864  TIP3      11610           0.0000000000
     57083     11803  TIP3      OH2           -31.1328884868        8.0941836367      -78.3362750553  TIP3      11611           0.0000000000
     57084     11803  TIP3      H1            -31.7097816899        7.7536697761      -79.0332147459  TIP3      11611           0.0000000000
     57085     11803  TIP3      H2            -30.3223559402        8.3064866737      -78.8220232103  TIP3      11611           0.0000000000
     57086     11804  TIP3      OH2           -20.7027211797       20.2038122053      -62.8495578536  TIP3      11612           0.0000000000
     57087     11804  TIP3      H1            -20.4367211851       20.5875010717      -63.7037915380  TIP3      11612           0.0000000000
     57088     11804  TIP3      H2            -19.9792281014       20.5224626087      -62.2891611781  TIP3      11612           0.0000000000
     57089     11805  TIP3      OH2           -33.0467938021       12.6643423177      -63.2668187567  TIP3      11613           0.0000000000
     57090     11805  TIP3      H1            -32.3058248561       12.9078484823      -62.6808501245  TIP3      11613           0.0000000000
     57091     11805  TIP3      H2            -33.7956361200       12.7744421115      -62.6570514307  TIP3      11613           0.0000000000
     57092     11806  TIP3      OH2           -27.0329251280        8.0814438512      -70.5234727713  TIP3      11614           0.0000000000
     57093     11806  TIP3      H1            -26.4270964472        7.5519446659      -71.0552200219  TIP3      11614           0.0000000000
     57094     11806  TIP3      H2            -27.1713832953        7.5341423336      -69.7385528939  TIP3      11614           0.0000000000
     57095     11807  TIP3      OH2           -32.0270825643        4.2332490453      -74.0717582112  TIP3      11615           0.0000000000
     57096     11807  TIP3      H1            -32.3401071782        3.3128039470      -74.0913738737  TIP3      11615           0.0000000000
     57097     11807  TIP3      H2            -31.2346689413        4.1552126018      -74.6205505358  TIP3      11615           0.0000000000
     57098     11808  TIP3      OH2           -28.3877575379        6.4109859934      -68.1085141147  TIP3      11616           0.0000000000
     57099     11808  TIP3      H1            -29.2125560383        6.9297392392      -68.0194225223  TIP3      11616           0.0000000000
     57100     11808  TIP3      H2            -27.8325200712        6.7634596663      -67.3859117331  TIP3      11616           0.0000000000
     57101     11809  TIP3      OH2           -27.7919529847       12.6141464277      -76.3820539174  TIP3      11617           0.0000000000
     57102     11809  TIP3      H1            -28.5949896927       12.1658022244      -76.7249932843  TIP3      11617           0.0000000000
     57103     11809  TIP3      H2            -28.0180453484       12.7494810196      -75.4420576184  TIP3      11617           0.0000000000
     57104     11810  TIP3      OH2           -20.6032748324       11.8472907296      -67.6042634724  TIP3      11618           0.0000000000
     57105     11810  TIP3      H1            -20.0803273960       12.3149092532      -68.2730399507  TIP3      11618           0.0000000000
     57106     11810  TIP3      H2            -21.4804120469       11.8632614246      -68.0475862133  TIP3      11618           0.0000000000
     57107     11811  TIP3      OH2           -23.9391516118        5.4749048111      -78.2263440160  TIP3      11619           0.0000000000
     57108     11811  TIP3      H1            -24.8844520074        5.6014582829      -78.4068620737  TIP3      11619           0.0000000000
     57109     11811  TIP3      H2            -23.6340392892        6.3250827673      -77.8632989194  TIP3      11619           0.0000000000
     57110     11812  TIP3      OH2           -26.3050923384       12.9055547126      -65.1647466780  TIP3      11620           0.0000000000
     57111     11812  TIP3      H1            -26.6534491935       12.4749741722      -64.3770613471  TIP3      11620           0.0000000000
     57112     11812  TIP3      H2            -26.5630919129       13.8264853215      -65.0582560731  TIP3      11620           0.0000000000
     57113     11813  TIP3      OH2           -23.2360701894        7.3840040012      -76.5623944002  TIP3      11621           0.0000000000
     57114     11813  TIP3      H1            -22.3387096081        7.2274576425      -76.2124519020  TIP3      11621           0.0000000000
     57115     11813  TIP3      H2            -23.1451850491        8.1903798650      -77.0921159952  TIP3      11621           0.0000000000
     57116     11814  TIP3      OH2           -32.6939440840       12.0310014498      -70.6237407112  TIP3      11622           0.0000000000
     57117     11814  TIP3      H1            -32.0191849940       11.9476822249      -71.3180523457  TIP3      11622           0.0000000000
     57118     11814  TIP3      H2            -32.5982112573       11.1905912313      -70.1432475175  TIP3      11622           0.0000000000
     57119     11815  TIP3      OH2           -25.7016480142       14.0928907650      -77.3510110893  TIP3      11623           0.0000000000
     57120     11815  TIP3      H1            -26.0668130573       14.9386499709      -77.0156405355  TIP3      11623           0.0000000000
     57121     11815  TIP3      H2            -26.4380761651       13.4671005286      -77.1682964136  TIP3      11623           0.0000000000
     57122     11816  TIP3      OH2           -35.7299587621       10.4114788266      -65.3466231893  TIP3      11624           0.0000000000
     57123     11816  TIP3      H1            -35.4706983190        9.9712312247      -64.5140409346  TIP3      11624           0.0000000000
     57124     11816  TIP3      H2            -36.3177702734        9.7708392461      -65.7711062614  TIP3      11624           0.0000000000
     57125     11817  TIP3      OH2           -28.6855169164        9.9948368862      -63.1738131804  TIP3      11625           0.0000000000
     57126     11817  TIP3      H1            -29.0057791542        9.6828327412      -64.0325811449  TIP3      11625           0.0000000000
     57127     11817  TIP3      H2            -27.7635592435        9.6677633722      -63.1745257695  TIP3      11625           0.0000000000
     57128     11818  TIP3      OH2           -23.9988767137       15.3279209348      -65.2169229003  TIP3      11626           0.0000000000
     57129     11818  TIP3      H1            -24.9243284437       15.5058800602      -65.4512274297  TIP3      11626           0.0000000000
     57130     11818  TIP3      H2            -24.0332911640       15.6208511886      -64.2859430489  TIP3      11626           0.0000000000
     57131     11819  TIP3      OH2           -18.3229346512        7.5082149858      -76.8148814054  TIP3      11627           0.0000000000
     57132     11819  TIP3      H1            -18.9175289510        7.1951557915      -77.5138790859  TIP3      11627           0.0000000000
     57133     11819  TIP3      H2            -18.2465382636        8.4449001912      -77.0926271913  TIP3      11627           0.0000000000
     57134     11820  TIP3      OH2           -18.3384457888       13.3740536608      -64.0252537945  TIP3      11628           0.0000000000
     57135     11820  TIP3      H1            -19.2470737600       13.5849090616      -64.3639553294  TIP3      11628           0.0000000000
     57136     11820  TIP3      H2            -17.7982976481       13.3198679519      -64.8285159137  TIP3      11628           0.0000000000
     57137     11821  TIP3      OH2           -20.0341077823       16.3607099114      -76.4595826033  TIP3      11629           0.0000000000
     57138     11821  TIP3      H1            -20.4002180493       15.5349826031      -76.1077443940  TIP3      11629           0.0000000000
     57139     11821  TIP3      H2            -19.7342590170       16.1329008988      -77.3597296542  TIP3      11629           0.0000000000
     57140     11822  TIP3      OH2           -22.8316662297       11.1483239618      -69.3247294894  TIP3      11630           0.0000000000
     57141     11822  TIP3      H1            -23.7770405865       10.9416836016      -69.4352380563  TIP3      11630           0.0000000000
     57142     11822  TIP3      H2            -22.4079920771       10.3906113498      -69.7677068083  TIP3      11630           0.0000000000
     57143     11823  TIP3      OH2           -30.3311511712       15.4860433927      -73.2103890710  TIP3      11631           0.0000000000
     57144     11823  TIP3      H1            -29.8215656942       16.2849023647      -73.4292275207  TIP3      11631           0.0000000000
     57145     11823  TIP3      H2            -31.2077796686       15.7173114672      -73.5468259398  TIP3      11631           0.0000000000
     57146     11824  TIP3      OH2           -34.6221319587       10.3029991486      -78.6341021351  TIP3      11632           0.0000000000
     57147     11824  TIP3      H1            -33.9587518905       10.9351702078      -78.2808301608  TIP3      11632           0.0000000000
     57148     11824  TIP3      H2            -35.4560620029       10.6622393392      -78.3258127454  TIP3      11632           0.0000000000
     57149     11825  TIP3      OH2           -28.8960888301       13.1463566912      -73.7022712067  TIP3      11633           0.0000000000
     57150     11825  TIP3      H1            -29.2158172002       14.0661003262      -73.6238330546  TIP3      11633           0.0000000000
     57151     11825  TIP3      H2            -29.6184037961       12.6540471716      -73.2622213709  TIP3      11633           0.0000000000
     57152     11826  TIP3      OH2           -28.4391785446       17.3286210683      -67.3007938265  TIP3      11634           0.0000000000
     57153     11826  TIP3      H1            -27.9920972379       18.1403310885      -67.5837824898  TIP3      11634           0.0000000000
     57154     11826  TIP3      H2            -27.8283925124       16.9918641907      -66.6212902310  TIP3      11634           0.0000000000
     57155     11827  TIP3      OH2           -30.2203781334       18.1451283888      -74.1919430901  TIP3      11635           0.0000000000
     57156     11827  TIP3      H1            -31.1853390122       18.2806669727      -74.0399045105  TIP3      11635           0.0000000000
     57157     11827  TIP3      H2            -29.8620268566       18.9753474561      -73.8283886516  TIP3      11635           0.0000000000
     57158     11828  TIP3      OH2           -24.9309072865       13.3276867630      -67.6798704993  TIP3      11636           0.0000000000
     57159     11828  TIP3      H1            -25.2526194195       13.1389430405      -66.7737151504  TIP3      11636           0.0000000000
     57160     11828  TIP3      H2            -24.2956305546       12.6140841538      -67.8461662270  TIP3      11636           0.0000000000
     57161     11829  TIP3      OH2           -22.6201837483       14.3794776612      -78.5395401483  TIP3      11637           0.0000000000
     57162     11829  TIP3      H1            -22.3225940401       13.9000981175      -77.7441370784  TIP3      11637           0.0000000000
     57163     11829  TIP3      H2            -23.5770297621       14.2147503043      -78.4863950684  TIP3      11637           0.0000000000
     57164     11830  TIP3      OH2           -22.1050618049       17.9118030647      -65.1935403720  TIP3      11638           0.0000000000
     57165     11830  TIP3      H1            -22.8000284877       17.4188729915      -65.6699016891  TIP3      11638           0.0000000000
     57166     11830  TIP3      H2            -21.9262581078       18.6136176538      -65.8538749413  TIP3      11638           0.0000000000
     57167     11831  TIP3      OH2           -18.0948175649       18.8059530035      -78.2315466594  TIP3      11639           0.0000000000
     57168     11831  TIP3      H1            -17.4457855654       19.4122571481      -78.6301650036  TIP3      11639           0.0000000000
     57169     11831  TIP3      H2            -18.8695901741       19.3903541616      -78.0893070403  TIP3      11639           0.0000000000
     57170     11832  TIP3      OH2           -34.0465175202        5.1709169215      -65.8349292508  TIP3      11640           0.0000000000
     57171     11832  TIP3      H1            -34.9346669759        5.5428519979      -65.7509723717  TIP3      11640           0.0000000000
     57172     11832  TIP3      H2            -34.1617387017        4.3330164457      -65.3554825209  TIP3      11640           0.0000000000
     57173     11833  TIP3      OH2           -21.8049123144       13.0209580620      -76.3334277426  TIP3      11641           0.0000000000
     57174     11833  TIP3      H1            -22.0492831973       12.2236137893      -75.8178051781  TIP3      11641           0.0000000000
     57175     11833  TIP3      H2            -20.8590787013       13.0919112423      -76.1352489950  TIP3      11641           0.0000000000
     57176     11834  TIP3      OH2           -34.2663300708       17.0025390766      -67.4197328269  TIP3      11642           0.0000000000
     57177     11834  TIP3      H1            -34.1488715030       16.0437031720      -67.3615412943  TIP3      11642           0.0000000000
     57178     11834  TIP3      H2            -34.1825422759       17.2347891062      -66.4891495475  TIP3      11642           0.0000000000
     57179     11835  TIP3      OH2           -29.6933905082       15.0388668271      -77.6700240288  TIP3      11643           0.0000000000
     57180     11835  TIP3      H1            -29.4328952030       14.4783597031      -76.9235291151  TIP3      11643           0.0000000000
     57181     11835  TIP3      H2            -29.5972426705       15.9525614330      -77.3242840444  TIP3      11643           0.0000000000
     57182     11836  TIP3      OH2           -33.2096357781       12.2514179414      -77.1237487408  TIP3      11644           0.0000000000
     57183     11836  TIP3      H1            -33.9105841459       12.6599927901      -76.5704441440  TIP3      11644           0.0000000000
     57184     11836  TIP3      H2            -32.6743115178       13.0174474257      -77.4003577476  TIP3      11644           0.0000000000
     57185     11837  TIP3      OH2           -25.3166560610        4.9396345824      -66.8357327148  TIP3      11645           0.0000000000
     57186     11837  TIP3      H1            -24.6030104354        5.0003629347      -66.1927874862  TIP3      11645           0.0000000000
     57187     11837  TIP3      H2            -25.6997339266        4.0631884494      -66.6322123389  TIP3      11645           0.0000000000
     57188     11838  TIP3      OH2           -24.5865261229        4.5357675886      -75.7471468286  TIP3      11646           0.0000000000
     57189     11838  TIP3      H1            -24.3190396984        4.9856707847      -76.5711780038  TIP3      11646           0.0000000000
     57190     11838  TIP3      H2            -23.9922303782        4.9464936597      -75.1070197282  TIP3      11646           0.0000000000
     57191     11839  TIP3      OH2           -26.8969841873       16.6853787163      -76.9504912286  TIP3      11647           0.0000000000
     57192     11839  TIP3      H1            -27.7111191926       17.2060613980      -76.8505976727  TIP3      11647           0.0000000000
     57193     11839  TIP3      H2            -26.3438018941       17.2077139298      -77.5552488657  TIP3      11647           0.0000000000
     57194     11840  TIP3      OH2           -27.3507881630        6.2526536432      -74.9396887106  TIP3      11648           0.0000000000
     57195     11840  TIP3      H1            -26.5691232180        6.8407528675      -74.9110683964  TIP3      11648           0.0000000000
     57196     11840  TIP3      H2            -27.6152743526        6.1324801396      -74.0096500065  TIP3      11648           0.0000000000
     57197     11841  TIP3      OH2           -26.7904804852        7.2850323337      -65.7396163167  TIP3      11649           0.0000000000
     57198     11841  TIP3      H1            -26.7143584621        7.8430190636      -64.9414142781  TIP3      11649           0.0000000000
     57199     11841  TIP3      H2            -26.1260978038        6.5910847460      -65.6443576376  TIP3      11649           0.0000000000
     57200     11842  TIP3      OH2           -26.4941108207        3.3162059091      -74.0603522432  TIP3      11650           0.0000000000
     57201     11842  TIP3      H1            -26.8159147128        3.9600787550      -73.4064658867  TIP3      11650           0.0000000000
     57202     11842  TIP3      H2            -25.7988229255        3.8658258729      -74.5010268418  TIP3      11650           0.0000000000
     57203     11843  TIP3      OH2           -29.5262954883       17.7152772649      -76.9029853227  TIP3      11651           0.0000000000
     57204     11843  TIP3      H1            -29.3455512509       18.5422215795      -77.4038120146  TIP3      11651           0.0000000000
     57205     11843  TIP3      H2            -29.7614921060       18.0553479132      -76.0162658509  TIP3      11651           0.0000000000
     57206     11844  TIP3      OH2           -30.8347773153        4.4158755975      -77.3055148434  TIP3      11652           0.0000000000
     57207     11844  TIP3      H1            -30.9029568506        5.3251652744      -76.9491020446  TIP3      11652           0.0000000000
     57208     11844  TIP3      H2            -29.9307739703        4.1903094132      -77.0167006118  TIP3      11652           0.0000000000
     57209     11845  TIP3      OH2           -20.6122647151        5.1520491351      -64.8952854519  TIP3      11653           0.0000000000
     57210     11845  TIP3      H1            -21.5387316164        5.4706609516      -65.0237802333  TIP3      11653           0.0000000000
     57211     11845  TIP3      H2            -20.3108558009        5.1395034605      -65.8190690765  TIP3      11653           0.0000000000
     57212     11846  TIP3      OH2           -21.9942378623        8.9418414009      -70.8906771208  TIP3      11654           0.0000000000
     57213     11846  TIP3      H1            -22.8197899808        8.4967895821      -71.1636811258  TIP3      11654           0.0000000000
     57214     11846  TIP3      H2            -21.5167845604        8.2539708293      -70.3739424867  TIP3      11654           0.0000000000
     57215     11847  TIP3      OH2           -32.6096051403       14.8944532505      -78.3132787092  TIP3      11655           0.0000000000
     57216     11847  TIP3      H1            -31.9429189794       15.4999701589      -77.9675202943  TIP3      11655           0.0000000000
     57217     11847  TIP3      H2            -32.0766456785       14.4150619242      -78.9817466739  TIP3      11655           0.0000000000
     57218     11848  TIP3      OH2           -34.2066663391        7.5541558964      -79.0787413659  TIP3      11656           0.0000000000
     57219     11848  TIP3      H1            -34.2057319290        8.5200005532      -78.9696965065  TIP3      11656           0.0000000000
     57220     11848  TIP3      H2            -35.0619415532        7.3271588794      -79.4465700292  TIP3      11656           0.0000000000
     57221     11849  TIP3      OH2           -20.9232518608       18.1944294041      -69.2172066188  TIP3      11657           0.0000000000
     57222     11849  TIP3      H1            -21.0249475897       18.8771803001      -69.9089646943  TIP3      11657           0.0000000000
     57223     11849  TIP3      H2            -19.9653702029       18.2736527502      -69.0387069606  TIP3      11657           0.0000000000
     57224     11850  TIP3      OH2           -33.4094641986        2.3063762312      -70.4235152310  TIP3      11658           0.0000000000
     57225     11850  TIP3      H1            -33.6320554292        2.3443873884      -71.3829598502  TIP3      11658           0.0000000000
     57226     11850  TIP3      H2            -33.8607181356        1.4790985903      -70.1618340548  TIP3      11658           0.0000000000
     57227     11851  TIP3      OH2           -34.4653289715       16.2531071740      -74.2467048449  TIP3      11659           0.0000000000
     57228     11851  TIP3      H1            -35.3310454670       16.6686834362      -74.2936437489  TIP3      11659           0.0000000000
     57229     11851  TIP3      H2            -34.0012310283       16.7086372450      -74.9669044471  TIP3      11659           0.0000000000
     57230     11852  TIP3      OH2           -34.9735052992       18.9214299408      -62.9926777173  TIP3      11660           0.0000000000
     57231     11852  TIP3      H1            -34.5642220012       18.6913923680      -62.1442067325  TIP3      11660           0.0000000000
     57232     11852  TIP3      H2            -35.5020049567       18.1127868049      -63.1491560496  TIP3      11660           0.0000000000
     57233     11853  TIP3      OH2           -30.5957066947       17.8012260334      -61.3787373290  TIP3      11661           0.0000000000
     57234     11853  TIP3      H1            -29.8366362007       17.3083981384      -61.0451039013  TIP3      11661           0.0000000000
     57235     11853  TIP3      H2            -30.6238087528       17.5297194015      -62.3164954613  TIP3      11661           0.0000000000
     57236     11854  TIP3      OH2           -26.0068937209       17.4241998686      -79.3805686956  TIP3      11662           0.0000000000
     57237     11854  TIP3      H1            -26.8658914391       16.9599220832      -79.4029197095  TIP3      11662           0.0000000000
     57238     11854  TIP3      H2            -25.5535956305       16.9386914821      -80.0697172566  TIP3      11662           0.0000000000
     57239     11855  TIP3      OH2           -24.0968893929       16.1990590539      -62.6232455997  TIP3      11663           0.0000000000
     57240     11855  TIP3      H1            -24.4124767604       15.3120089605      -62.3483975163  TIP3      11663           0.0000000000
     57241     11855  TIP3      H2            -23.3285748481       16.3179667388      -62.0302237873  TIP3      11663           0.0000000000
     57242     11856  TIP3      OH2           -21.8745369910       17.1166579459      -79.7681352295  TIP3      11664           0.0000000000
     57243     11856  TIP3      H1            -21.6402152106       16.2997974258      -79.2855934999  TIP3      11664           0.0000000000
     57244     11856  TIP3      H2            -21.0957627260       17.2929421279      -80.3120960813  TIP3      11664           0.0000000000
     57245     11857  TIP3      OH2           -35.4056680264       12.6729236455      -61.9949165333  TIP3      11665           0.0000000000
     57246     11857  TIP3      H1            -35.1916114598       11.7771543442      -62.3175113903  TIP3      11665           0.0000000000
     57247     11857  TIP3      H2            -36.1225395412       12.9469046083      -62.5763456340  TIP3      11665           0.0000000000
     57248     11858  TIP3      OH2           -30.9210319308       13.0824062927      -79.8375468452  TIP3      11666           0.0000000000
     57249     11858  TIP3      H1            -30.8595761272       12.2519005182      -79.3572301696  TIP3      11666           0.0000000000
     57250     11858  TIP3      H2            -30.3593219001       12.8458557489      -80.6047010449  TIP3      11666           0.0000000000
     57251     11859  TIP3      OH2           -28.6533785167       12.6580405878      -62.5995301259  TIP3      11667           0.0000000000
     57252     11859  TIP3      H1            -28.9879367879       12.9700304907      -63.4629746039  TIP3      11667           0.0000000000
     57253     11859  TIP3      H2            -28.5797559446       11.6795168478      -62.7079372885  TIP3      11667           0.0000000000
     57254     11860  TIP3      OH2           -22.9547347793       12.5176836185      -65.2070319851  TIP3      11668           0.0000000000
     57255     11860  TIP3      H1            -22.1695876867       13.1019819611      -65.2673033578  TIP3      11668           0.0000000000
     57256     11860  TIP3      H2            -23.6573291516       13.1830272709      -65.1716251669  TIP3      11668           0.0000000000
     57257     11861  TIP3      OH2           -34.5143770151        9.8828246725      -62.6129960678  TIP3      11669           0.0000000000
     57258     11861  TIP3      H1            -34.0297370787        9.0427800501      -62.6959328938  TIP3      11669           0.0000000000
     57259     11861  TIP3      H2            -34.6886690080        9.8930133754      -61.6593982129  TIP3      11669           0.0000000000
     57260     11862  TIP3      OH2           -29.8022655184       11.0621015734      -77.5526547331  TIP3      11670           0.0000000000
     57261     11862  TIP3      H1            -30.3020648534       10.5183172418      -76.9180372199  TIP3      11670           0.0000000000
     57262     11862  TIP3      H2            -29.4852300982       10.3790400782      -78.1889409857  TIP3      11670           0.0000000000
     57263     11863  TIP3      OH2           -30.5527857161        8.8371179410      -65.2487939559  TIP3      11671           0.0000000000
     57264     11863  TIP3      H1            -31.1584407752        9.5495994106      -64.9871373401  TIP3      11671           0.0000000000
     57265     11863  TIP3      H2            -30.1556763109        9.2074835712      -66.0561728356  TIP3      11671           0.0000000000
     57266     11864  TIP3      OH2           -28.7311439403        9.2250150626      -79.3395078094  TIP3      11672           0.0000000000
     57267     11864  TIP3      H1            -28.8473959891        9.1166058345      -80.2944667366  TIP3      11672           0.0000000000
     57268     11864  TIP3      H2            -27.7509134848        9.3059773845      -79.2483664097  TIP3      11672           0.0000000000
     57269     11865  TIP3      OH2           -25.4768884188       11.4077497271      -61.9138255926  TIP3      11673           0.0000000000
     57270     11865  TIP3      H1            -24.5199728952       11.3952722161      -62.0364353787  TIP3      11673           0.0000000000
     57271     11865  TIP3      H2            -25.6485870002       10.6410236046      -61.3440556779  TIP3      11673           0.0000000000
     57272     11866  TIP3      OH2           -19.5879232712       11.7584359142       80.1825557759  TIP3      11674           0.0000000000
     57273     11866  TIP3      H1            -19.6847795694       11.2468974059       79.3640511407  TIP3      11674           0.0000000000
     57274     11866  TIP3      H2            -19.3571370934       12.6527959251       79.9035318448  TIP3      11674           0.0000000000
     57275     11867  TIP3      OH2           -30.1155951488        6.2207017869      -64.1934093220  TIP3      11675           0.0000000000
     57276     11867  TIP3      H1            -30.0275535983        5.5088978011      -64.8532271685  TIP3      11675           0.0000000000
     57277     11867  TIP3      H2            -30.2119471801        7.0273869632      -64.7405560345  TIP3      11675           0.0000000000
     57278     11868  TIP3      OH2           -29.7369383542        4.5996000792      -66.6382356178  TIP3      11676           0.0000000000
     57279     11868  TIP3      H1            -29.2276348007        5.0642738385      -67.3424328797  TIP3      11676           0.0000000000
     57280     11868  TIP3      H2            -30.6315151073        4.5201231667      -67.0445577615  TIP3      11676           0.0000000000
     57281     11869  TIP3      OH2           -28.2042182350       10.0879795899      -66.3952982486  TIP3      11677           0.0000000000
     57282     11869  TIP3      H1            -27.4496339660        9.9230758402      -66.9676177860  TIP3      11677           0.0000000000
     57283     11869  TIP3      H2            -28.5680479918       10.9219078796      -66.7337735167  TIP3      11677           0.0000000000
     57284     11870  TIP3      OH2           -23.8075437649        7.8386875565      -61.4350244746  TIP3      11678           0.0000000000
     57285     11870  TIP3      H1            -23.5718769900        6.9042129433      -61.5263969216  TIP3      11678           0.0000000000
     57286     11870  TIP3      H2            -22.9435688603        8.2827821782      -61.4018518811  TIP3      11678           0.0000000000
     57287     11871  TIP3      OH2           -22.4670936408       10.6333746349      -63.2676515217  TIP3      11679           0.0000000000
     57288     11871  TIP3      H1            -22.7175851051       11.3545868229      -63.8852856774  TIP3      11679           0.0000000000
     57289     11871  TIP3      H2            -21.5089918004       10.6014100251      -63.4566400201  TIP3      11679           0.0000000000
     57290     11872  TIP3      OH2           -31.7112512902        7.4809842958      -62.2840353777  TIP3      11680           0.0000000000
     57291     11872  TIP3      H1            -32.4706734870        6.8784493572      -62.4368548124  TIP3      11680           0.0000000000
     57292     11872  TIP3      H2            -31.0463635709        7.0982601388      -62.8868880553  TIP3      11680           0.0000000000
     57293     11873  TIP3      OH2           -28.9496301820        2.0387488217      -66.2590753002  TIP3      11681           0.0000000000
     57294     11873  TIP3      H1            -29.1368562685        3.0017505429      -66.3515246347  TIP3      11681           0.0000000000
     57295     11873  TIP3      H2            -29.7015786157        1.6682042119      -66.7539338069  TIP3      11681           0.0000000000
     57296     11874  TIP3      OH2           -27.6748529754        6.3638718783      -62.6218341749  TIP3      11682           0.0000000000
     57297     11874  TIP3      H1            -27.9965975984        6.1318436481      -61.7279235900  TIP3      11682           0.0000000000
     57298     11874  TIP3      H2            -28.4611827347        6.1628505612      -63.1629299552  TIP3      11682           0.0000000000
     57299     11875  TIP3      OH2           -24.9606345366        5.5090017777      -63.5311566615  TIP3      11683           0.0000000000
     57300     11875  TIP3      H1            -25.9260328099        5.5620411210      -63.4235539420  TIP3      11683           0.0000000000
     57301     11875  TIP3      H2            -24.6975091759        4.8671103468      -62.8437524234  TIP3      11683           0.0000000000
     57302     11876  TIP3      OH2           -23.3791232168        4.1274142421      -61.6331427721  TIP3      11684           0.0000000000
     57303     11876  TIP3      H1            -23.4274217353        3.1494359140      -61.6023480656  TIP3      11684           0.0000000000
     57304     11876  TIP3      H2            -23.6279144517        4.4196882909      -60.7339553395  TIP3      11684           0.0000000000
     57305     11877  TIP3      OH2           -33.4547208063        5.3782805915      -62.4830517788  TIP3      11685           0.0000000000
     57306     11877  TIP3      H1            -33.3535223768        4.6458962907      -63.1159746180  TIP3      11685           0.0000000000
     57307     11877  TIP3      H2            -33.6723394637        4.9213967641      -61.6501009791  TIP3      11685           0.0000000000
     57308     11878  TIP3      OH2           -28.7380613694        1.4294004103      -63.5511046286  TIP3      11686           0.0000000000
     57309     11878  TIP3      H1            -28.0588877892        0.7252626232      -63.5673658995  TIP3      11686           0.0000000000
     57310     11878  TIP3      H2            -28.8524926496        1.5709421311      -64.5110805041  TIP3      11686           0.0000000000
     57311     11879  TIP3      OH2           -28.3761796840        3.0410058774      -61.4336812420  TIP3      11687           0.0000000000
     57312     11879  TIP3      H1            -28.5497851276        2.5316862669      -62.2650792483  TIP3      11687           0.0000000000
     57313     11879  TIP3      H2            -28.9756681724        3.8059460121      -61.5346151337  TIP3      11687           0.0000000000
     57314     11880  TIP3      OH2           -28.9260221069       19.9392661596      -78.3045939033  TIP3      11688           0.0000000000
     57315     11880  TIP3      H1            -27.9529082288       20.0564278540      -78.1963751109  TIP3      11688           0.0000000000
     57316     11880  TIP3      H2            -29.0916448073       20.6033662533      -78.9726963276  TIP3      11688           0.0000000000
     57317     11881  TIP3      OH2           -35.2766642712       14.5048327484      -78.7699327567  TIP3      11689           0.0000000000
     57318     11881  TIP3      H1            -34.3244856593       14.6540753553      -78.5779717169  TIP3      11689           0.0000000000
     57319     11881  TIP3      H2            -35.2626214771       13.9598063793      -79.5601717270  TIP3      11689           0.0000000000
     57320     11882  TIP3      OH2            36.8625447498       20.0741289877      -73.9938168822  TIP3      11690           0.0000000000
     57321     11882  TIP3      H1             35.9522798191       19.8652633569      -74.2965928077  TIP3      11690           0.0000000000
     57322     11882  TIP3      H2             36.9524581794       19.4414385170      -73.2411660983  TIP3      11690           0.0000000000
     57323     11883  TIP3      OH2           -35.7245873786       18.0893247199      -71.9967572656  TIP3      11691           0.0000000000
     57324     11883  TIP3      H1            -36.0815420702       17.2016028405      -71.7652295922  TIP3      11691           0.0000000000
     57325     11883  TIP3      H2            -35.4795313271       18.3695750036      -71.0955306410  TIP3      11691           0.0000000000
     57326     11884  TIP3      OH2           -18.1856369819       18.8137482514      -69.0128644525  TIP3      11692           0.0000000000
     57327     11884  TIP3      H1            -18.1924701993       19.0188380127      -68.0614708587  TIP3      11692           0.0000000000
     57328     11884  TIP3      H2            -17.5228444458       19.4427818814      -69.3223235114  TIP3      11692           0.0000000000
     57329     11885  TIP3      OH2           -18.6024384783       18.4145264861      -66.1092963928  TIP3      11693           0.0000000000
     57330     11885  TIP3      H1            -19.1291468392       17.6640680981      -66.4454809140  TIP3      11693           0.0000000000
     57331     11885  TIP3      H2            -18.1630224952       18.0001689112      -65.3487635029  TIP3      11693           0.0000000000
     57332     11886  TIP3      OH2           -20.1945392954       14.1611361528      -61.4012914632  TIP3      11694           0.0000000000
     57333     11886  TIP3      H1            -21.1011816455       14.1354770135      -61.0371900410  TIP3      11694           0.0000000000
     57334     11886  TIP3      H2            -19.8235297027       14.9674449783      -60.9906637424  TIP3      11694           0.0000000000
     57335     11887  TIP3      OH2           -18.8527237295       12.4801566834      -75.9953198442  TIP3      11695           0.0000000000
     57336     11887  TIP3      H1            -18.0166901808       12.9043731230      -75.7512279924  TIP3      11695           0.0000000000
     57337     11887  TIP3      H2            -18.9009259691       11.7808280766      -75.3065504488  TIP3      11695           0.0000000000
     57338     11888  TIP3      OH2           -18.5251505455       10.5759999998      -74.0908118327  TIP3      11696           0.0000000000
     57339     11888  TIP3      H1            -19.2744981744       10.0616384416      -73.7104237321  TIP3      11696           0.0000000000
     57340     11888  TIP3      H2            -17.9234979621       10.6932653687      -73.3302102748  TIP3      11696           0.0000000000
     57341     11889  TIP3      OH2           -18.8601787246       13.2212006924      -69.1525306297  TIP3      11697           0.0000000000
     57342     11889  TIP3      H1            -18.1349479247       12.7662388927      -69.6244131359  TIP3      11697           0.0000000000
     57343     11889  TIP3      H2            -18.8093811882       14.1674928996      -69.4001865741  TIP3      11697           0.0000000000
     57344     11890  TIP3      OH2           -20.1977043166       16.1522293123      -66.8386018915  TIP3      11698           0.0000000000
     57345     11890  TIP3      H1            -20.8784041682       16.5166714228      -66.2447976497  TIP3      11698           0.0000000000
     57346     11890  TIP3      H2            -20.7748356629       15.7831719634      -67.5429028581  TIP3      11698           0.0000000000
     57347     11891  TIP3      OH2           -18.1925551619       10.4162596552      -77.7201492977  TIP3      11699           0.0000000000
     57348     11891  TIP3      H1            -18.8287625333       10.7642578922      -78.3661127320  TIP3      11699           0.0000000000
     57349     11891  TIP3      H2            -18.2909123893       11.0993722943      -77.0245794221  TIP3      11699           0.0000000000
     57350     11892  TIP3      OH2           -20.2437071767        7.6369767682      -79.0562645900  TIP3      11700           0.0000000000
     57351     11892  TIP3      H1            -19.8467621131        8.2542433642      -79.6804710338  TIP3      11700           0.0000000000
     57352     11892  TIP3      H2            -20.0752961025        6.7968490900      -79.4921826819  TIP3      11700           0.0000000000
     57353     11893  TIP3      OH2           -20.6801539517        9.0469068599      -73.4984940684  TIP3      11701           0.0000000000
     57354     11893  TIP3      H1            -20.8514182202        8.0927718734      -73.5584757634  TIP3      11701           0.0000000000
     57355     11893  TIP3      H2            -21.0273204054        9.2562309849      -72.6145157974  TIP3      11701           0.0000000000
     57356     11894  TIP3      OH2           -35.6775500756       11.1119326809      -69.5347417342  TIP3      11702           0.0000000000
     57357     11894  TIP3      H1            -35.4753073822       11.0716400624      -70.4917101431  TIP3      11702           0.0000000000
     57358     11894  TIP3      H2            -34.7975622819       11.0019652385      -69.1155841946  TIP3      11702           0.0000000000
     57359     11895  TIP3      OH2           -19.8417587092       11.0059205434      -63.8223073029  TIP3      11703           0.0000000000
     57360     11895  TIP3      H1            -19.2279171951       10.2518681012      -63.6938858406  TIP3      11703           0.0000000000
     57361     11895  TIP3      H2            -19.2425520363       11.7802499772      -63.8051504378  TIP3      11703           0.0000000000
     57362     11896  TIP3      OH2           -18.3375314066        8.8871915085      -63.1756437275  TIP3      11704           0.0000000000
     57363     11896  TIP3      H1            -19.2207276394        8.4853198219      -63.3243715371  TIP3      11704           0.0000000000
     57364     11896  TIP3      H2            -17.7664953771        8.1048440697      -63.2509714603  TIP3      11704           0.0000000000
     57365     11897  TIP3      OH2           -21.0442835528        6.6241722779      -75.0485658739  TIP3      11705           0.0000000000
     57366     11897  TIP3      H1            -20.7437482807        5.6910495148      -74.9407883964  TIP3      11705           0.0000000000
     57367     11897  TIP3      H2            -20.2529854317        7.0259102514      -75.4283309890  TIP3      11705           0.0000000000
     57368     11898  TIP3      OH2           -20.3936851405        7.1690984308      -69.6121650777  TIP3      11706           0.0000000000
     57369     11898  TIP3      H1            -19.4322664480        7.3959782117      -69.6266432145  TIP3      11706           0.0000000000
     57370     11898  TIP3      H2            -20.5811078250        7.3069602555      -68.6721998367  TIP3      11706           0.0000000000
     57371     11899  TIP3      OH2           -20.3276266371        7.8862931556      -66.8300528214  TIP3      11707           0.0000000000
     57372     11899  TIP3      H1            -21.2114010286        8.1759278575      -66.5150508235  TIP3      11707           0.0000000000
     57373     11899  TIP3      H2            -19.8955088645        8.7460297371      -67.0504965825  TIP3      11707           0.0000000000
     57374     11900  TIP3      OH2           -35.8032052944        6.2977575194      -63.3230470853  TIP3      11708           0.0000000000
     57375     11900  TIP3      H1            -34.9171476212        6.1121226954      -62.9839165106  TIP3      11708           0.0000000000
     57376     11900  TIP3      H2            -36.3810397344        5.6144924567      -62.9016492683  TIP3      11708           0.0000000000
     57377     11901  TIP3      OH2           -18.0504960293        1.9547428327      -61.4921364591  TIP3      11709           0.0000000000
     57378     11901  TIP3      H1            -17.7024594669        1.2925250466      -62.1144760314  TIP3      11709           0.0000000000
     57379     11901  TIP3      H2            -17.9526389925        2.7685285233      -62.0261493008  TIP3      11709           0.0000000000
     57380     11902  TIP3      OH2           -20.3619766015        3.8997514406      -75.0279678580  TIP3      11710           0.0000000000
     57381     11902  TIP3      H1            -20.1454582426        3.4721341117      -74.1728535897  TIP3      11710           0.0000000000
     57382     11902  TIP3      H2            -20.9720947353        3.2650653055      -75.4565644816  TIP3      11710           0.0000000000
     57383     11903  TIP3      OH2           -34.8365169913        4.6724697686      -70.4948407512  TIP3      11711           0.0000000000
     57384     11903  TIP3      H1            -34.3752955361        3.8801490889      -70.1668022292  TIP3      11711           0.0000000000
     57385     11903  TIP3      H2            -34.3345178825        5.3817283783      -70.0577582289  TIP3      11711           0.0000000000
     57386     11904  TIP3      OH2           -36.0164768179        8.4743088287      -69.0562480871  TIP3      11712           0.0000000000
     57387     11904  TIP3      H1            -35.9822868248        8.0448347005      -69.9367130057  TIP3      11712           0.0000000000
     57388     11904  TIP3      H2            -35.9396129124        9.3893837525      -69.3362311377  TIP3      11712           0.0000000000
     57389     11905  TIP3      OH2           -18.5338657373        4.0518944426      -63.1381533373  TIP3      11713           0.0000000000
     57390     11905  TIP3      H1            -19.4707580139        4.3235104680      -63.1932286309  TIP3      11713           0.0000000000
     57391     11905  TIP3      H2            -18.5011236731        3.5013815927      -63.9352100036  TIP3      11713           0.0000000000
     57392     11906  TIP3      OH2           -18.5316215286        3.9678322859      -78.4394568945  TIP3      11714           0.0000000000
     57393     11906  TIP3      H1            -18.1401797160        3.2495517530      -78.9467269250  TIP3      11714           0.0000000000
     57394     11906  TIP3      H2            -17.8198236358        4.6166287167      -78.4350580997  TIP3      11714           0.0000000000
     57395     11907  TIP3      OH2           -35.7205558842        3.9731685253      -75.7054461406  TIP3      11715           0.0000000000
     57396     11907  TIP3      H1            -36.6845210948        4.0997626674      -75.6653643550  TIP3      11715           0.0000000000
     57397     11907  TIP3      H2            -35.5233948223        4.6759232659      -76.3604030577  TIP3      11715           0.0000000000
     57398     11908  TIP3      OH2           -21.4932481674       18.9282187302      -73.3899571441  TIP3      11716           0.0000000000
     57399     11908  TIP3      H1            -20.8138092653       18.6099782315      -74.0047767203  TIP3      11716           0.0000000000
     57400     11908  TIP3      H2            -20.9825990335       19.4245387112      -72.7332563651  TIP3      11716           0.0000000000
     57401     11909  TIP3      OH2            37.0298094987        2.5996355923      -66.8332565921  TIP3      11717           0.0000000000
     57402     11909  TIP3      H1             36.2416915405        2.3895937817      -66.3076740363  TIP3      11717           0.0000000000
     57403     11909  TIP3      H2             36.5482333892        3.1141832556      -67.5046657210  TIP3      11717           0.0000000000
     57404     11910  TIP3      OH2           -34.0741642774       15.8602884647      -62.8738489568  TIP3      11718           0.0000000000
     57405     11910  TIP3      H1            -34.9202993630       16.0351414287      -63.3028138093  TIP3      11718           0.0000000000
     57406     11910  TIP3      H2            -34.3295748667       15.7577199622      -61.9563137810  TIP3      11718           0.0000000000
     57407     11911  TIP3      OH2           -31.1074290536       16.8606698024      -66.5754887864  TIP3      11719           0.0000000000
     57408     11911  TIP3      H1            -31.5054585914       17.6950638542      -66.8773992255  TIP3      11719           0.0000000000
     57409     11911  TIP3      H2            -30.1998658755       16.9475545674      -66.9215720372  TIP3      11719           0.0000000000
     57410     11912  TIP3      OH2           -26.8214110915       18.2615259278      -63.7052639651  TIP3      11720           0.0000000000
     57411     11912  TIP3      H1            -26.6853024957       17.9066156815      -62.7968829099  TIP3      11720           0.0000000000
     57412     11912  TIP3      H2            -25.9173241986       18.5640435494      -63.9447912759  TIP3      11720           0.0000000000
     57413     11913  TIP3      OH2           -24.5280340579       19.5253009428      -64.3950901711  TIP3      11721           0.0000000000
     57414     11913  TIP3      H1            -23.7977039526       18.9385319712      -64.6300222752  TIP3      11721           0.0000000000
     57415     11913  TIP3      H2            -24.1572880923       19.9659609433      -63.5995346527  TIP3      11721           0.0000000000
     57416     11914  TIP3      OH2           -19.5131022286        2.1425411315      -65.2844144682  TIP3      11722           0.0000000000
     57417     11914  TIP3      H1            -20.3417432913        2.4413285886      -65.6970403221  TIP3      11722           0.0000000000
     57418     11914  TIP3      H2            -19.3454166240        1.3196988061      -65.8019937120  TIP3      11722           0.0000000000
     57419     11915  TIP3      OH2           -33.6845921571       20.0801771936      -66.5899409213  TIP3      11723           0.0000000000
     57420     11915  TIP3      H1            -34.4344213747       20.5686578644      -66.9844754742  TIP3      11723           0.0000000000
     57421     11915  TIP3      H2            -34.0320625454       19.8868530997      -65.7054393654  TIP3      11723           0.0000000000
     57422     11916  TIP3      OH2           -31.2351105376       19.6592420932      -67.5516667379  TIP3      11724           0.0000000000
     57423     11916  TIP3      H1            -32.1317999838       19.7892346815      -67.1568485211  TIP3      11724           0.0000000000
     57424     11916  TIP3      H2            -31.2906136520       20.2546657425      -68.3191649159  TIP3      11724           0.0000000000
     57425     11917  TIP3      OH2           -26.5399408563       19.5669338863      -68.3730274206  TIP3      11725           0.0000000000
     57426     11917  TIP3      H1            -27.0038728275       20.1229622145      -69.0161921022  TIP3      11725           0.0000000000
     57427     11917  TIP3      H2            -26.4090207091       20.1960163768      -67.6322155092  TIP3      11725           0.0000000000
     57428     11918  TIP3      OH2           -24.2545176180       18.3715443089      -67.3358067919  TIP3      11726           0.0000000000
     57429     11918  TIP3      H1            -25.1066861611       18.6492143493      -67.7098216029  TIP3      11726           0.0000000000
     57430     11918  TIP3      H2            -23.7715853014       19.2111834996      -67.4241381211  TIP3      11726           0.0000000000
     57431     11919  TIP3      OH2           -21.6617368966       19.9459521401      -67.1169815678  TIP3      11727           0.0000000000
     57432     11919  TIP3      H1            -21.7229489394       20.9039594886      -67.3501333152  TIP3      11727           0.0000000000
     57433     11919  TIP3      H2            -21.4519959654       19.5657811382      -67.9924560210  TIP3      11727           0.0000000000
     57434     11920  TIP3      OH2           -34.3116270861       18.7254505992      -69.6783611052  TIP3      11728           0.0000000000
     57435     11920  TIP3      H1            -34.3128264953       18.2761181541      -68.8071658586  TIP3      11728           0.0000000000
     57436     11920  TIP3      H2            -33.4938433962       18.3509755426      -70.0662117525  TIP3      11728           0.0000000000
     57437     11921  TIP3      OH2           -32.2109496216       17.4402951431      -71.0079357348  TIP3      11729           0.0000000000
     57438     11921  TIP3      H1            -32.3648131624       16.5026959448      -70.7752470173  TIP3      11729           0.0000000000
     57439     11921  TIP3      H2            -31.3433275141       17.5920527161      -70.5708021600  TIP3      11729           0.0000000000
     57440     11922  TIP3      OH2           -29.6041787272       17.9127098399      -70.1318230429  TIP3      11730           0.0000000000
     57441     11922  TIP3      H1            -29.4223475055       16.9944551122      -70.3987161732  TIP3      11730           0.0000000000
     57442     11922  TIP3      H2            -29.5279063483       17.8649197700      -69.1691065936  TIP3      11730           0.0000000000
     57443     11923  TIP3      OH2           -26.1247357584        3.5721924317      -71.0043129857  TIP3      11731           0.0000000000
     57444     11923  TIP3      H1            -26.7990157887        2.9317310564      -70.7202316387  TIP3      11731           0.0000000000
     57445     11923  TIP3      H2            -25.5708101270        3.0362835662      -71.5839826250  TIP3      11731           0.0000000000
     57446     11924  TIP3      OH2           -20.9874144549        1.6166486380      -70.9388381188  TIP3      11732           0.0000000000
     57447     11924  TIP3      H1            -20.3755582608        2.2093273262      -71.4442531873  TIP3      11732           0.0000000000
     57448     11924  TIP3      H2            -21.8694504276        1.9780126297      -71.1669523460  TIP3      11732           0.0000000000
     57449     11925  TIP3      OH2           -19.3206493843        2.8662819505      -72.6583601182  TIP3      11733           0.0000000000
     57450     11925  TIP3      H1            -18.6319008775        2.2890983377      -73.0695711247  TIP3      11733           0.0000000000
     57451     11925  TIP3      H2            -18.8126506490        3.7025589332      -72.5526690648  TIP3      11733           0.0000000000
     57452     11926  TIP3      OH2           -33.7438413998        2.1861424990      -73.1240713481  TIP3      11734           0.0000000000
     57453     11926  TIP3      H1            -34.5243048188        1.9900558780      -73.6888089741  TIP3      11734           0.0000000000
     57454     11926  TIP3      H2            -33.2549151972        1.3469852623      -73.2245403287  TIP3      11734           0.0000000000
     57455     11927  TIP3      OH2           -34.9316529983        1.9111934871      -77.3854278598  TIP3      11735           0.0000000000
     57456     11927  TIP3      H1            -34.5163115724        2.5634480349      -77.9812883196  TIP3      11735           0.0000000000
     57457     11927  TIP3      H2            -35.5462868335        2.4867574767      -76.8927288519  TIP3      11735           0.0000000000
     57458     11928  TIP3      OH2           -29.2841321198        2.1206752934      -73.3653166874  TIP3      11736           0.0000000000
     57459     11928  TIP3      H1            -28.3841006285        2.4795941559      -73.4417952231  TIP3      11736           0.0000000000
     57460     11928  TIP3      H2            -29.3157844331        1.9016094983      -72.4351562644  TIP3      11736           0.0000000000
     57461     11929  TIP3      OH2           -23.5666476607        2.1380538011      -71.7417735397  TIP3      11737           0.0000000000
     57462     11929  TIP3      H1            -23.6171485947        2.2546570266      -72.6981980137  TIP3      11737           0.0000000000
     57463     11929  TIP3      H2            -23.9469000831        1.2340352032      -71.6168895413  TIP3      11737           0.0000000000
     57464     11930  TIP3      OH2           -22.3033203228        2.1635432518      -76.0864220909  TIP3      11738           0.0000000000
     57465     11930  TIP3      H1            -23.0459781407        2.7671607761      -76.2353612340  TIP3      11738           0.0000000000
     57466     11930  TIP3      H2            -22.7428500136        1.3123359699      -75.8611464888  TIP3      11738           0.0000000000
     57467     11931  TIP3      OH2           -35.0565625758       17.9206611689      -76.4037805230  TIP3      11739           0.0000000000
     57468     11931  TIP3      H1            -35.6883659826       17.9005300251      -77.1383805166  TIP3      11739           0.0000000000
     57469     11931  TIP3      H2            -35.0326334488       18.8811762759      -76.2773780504  TIP3      11739           0.0000000000
     57470     11932  TIP3      OH2           -33.1741675632        3.8488547345      -78.8657645306  TIP3      11740           0.0000000000
     57471     11932  TIP3      H1            -32.6494392997        3.2840422882      -79.4472791170  TIP3      11740           0.0000000000
     57472     11932  TIP3      H2            -32.4817309750        4.2146378167      -78.2927899470  TIP3      11740           0.0000000000
     57473     11933  TIP3      OH2           -28.1284983333        4.1217804352      -76.5153160470  TIP3      11741           0.0000000000
     57474     11933  TIP3      H1            -27.8623358534        3.5597008188      -75.7682359721  TIP3      11741           0.0000000000
     57475     11933  TIP3      H2            -28.0607695980        4.9947894579      -76.0576851471  TIP3      11741           0.0000000000
     57476     11934  TIP3      OH2           -26.2244022402       19.5281038306      -78.0395263723  TIP3      11742           0.0000000000
     57477     11934  TIP3      H1            -25.2587417120       19.4969338969      -78.2017179966  TIP3      11742           0.0000000000
     57478     11934  TIP3      H2            -26.4005916309       18.7922899389      -78.6733850009  TIP3      11742           0.0000000000
     57479     11935  TIP3      OH2           -19.4452254190       18.7258068604      -75.3828407917  TIP3      11743           0.0000000000
     57480     11935  TIP3      H1            -19.7064400588       17.9310994570      -75.9189842347  TIP3      11743           0.0000000000
     57481     11935  TIP3      H2            -19.6313971522       19.4473577654      -76.0182327714  TIP3      11743           0.0000000000
     57482     11936  TIP3      OH2           -33.9228110436        2.7572858142      -63.6602389323  TIP3      11744           0.0000000000
     57483     11936  TIP3      H1            -34.2581630251        1.9063050539      -63.3174359491  TIP3      11744           0.0000000000
     57484     11936  TIP3      H2            -32.9943129086        2.6942616916      -63.3284481884  TIP3      11744           0.0000000000
     57485     11937  TIP3      OH2           -31.8650822384        2.1097349763      -62.0663182450  TIP3      11745           0.0000000000
     57486     11937  TIP3      H1            -30.9721585508        1.7714303726      -62.2745706516  TIP3      11745           0.0000000000
     57487     11937  TIP3      H2            -32.2534714114        1.3069360561      -61.6674758437  TIP3      11745           0.0000000000
     57488     11938  TIP3      OH2           -33.1639608759       18.8879405087      -79.4751968248  TIP3      11746           0.0000000000
     57489     11938  TIP3      H1            -33.5152738148       19.1544496659      -78.6140506085  TIP3      11746           0.0000000000
     57490     11938  TIP3      H2            -32.4482053738       18.3060114036      -79.2513487690  TIP3      11746           0.0000000000
     57491     11939  TIP3      OH2           -23.4655019406        1.4066759181      -61.9082661311  TIP3      11747           0.0000000000
     57492     11939  TIP3      H1            -23.3712707608        0.9332440701      -61.0589235235  TIP3      11747           0.0000000000
     57493     11939  TIP3      H2            -22.5479953984        1.3732091604      -62.2515559234  TIP3      11747           0.0000000000
     57494     11940  TIP3      OH2           -20.2526169890       17.4588083429      -63.2767730106  TIP3      11748           0.0000000000
     57495     11940  TIP3      H1            -21.0574113132       17.3200438324      -63.8224321796  TIP3      11748           0.0000000000
     57496     11940  TIP3      H2            -20.3718845000       18.4048253369      -63.0584450490  TIP3      11748           0.0000000000
     57497     11941  TIP3      OH2            -5.7868177211       11.3404654821      -73.3103445272  TIP3      11749           0.0000000000
     57498     11941  TIP3      H1             -5.8089839133       12.3242108559      -73.3060297622  TIP3      11749           0.0000000000
     57499     11941  TIP3      H2             -6.4971985590       11.0640224612      -73.8928306295  TIP3      11749           0.0000000000
     57500     11942  TIP3      OH2            -6.9659050104       10.5961698046      -69.8192175328  TIP3      11750           0.0000000000
     57501     11942  TIP3      H1             -6.9634841069        9.9560655153      -69.0882148744  TIP3      11750           0.0000000000
     57502     11942  TIP3      H2             -7.3104344485       10.0613553489      -70.5482911387  TIP3      11750           0.0000000000
     57503     11943  TIP3      OH2           -14.6361491314       10.2979387002      -68.2191275705  TIP3      11751           0.0000000000
     57504     11943  TIP3      H1            -14.5197165641        9.5756434188      -67.5608226255  TIP3      11751           0.0000000000
     57505     11943  TIP3      H2            -13.8406095812       10.8198196831      -68.0250638315  TIP3      11751           0.0000000000
     57506     11944  TIP3      OH2            -3.2686760668       13.5287192866      -71.5261838668  TIP3      11752           0.0000000000
     57507     11944  TIP3      H1             -3.6778601713       12.8162551403      -71.0245032090  TIP3      11752           0.0000000000
     57508     11944  TIP3      H2             -3.2461261760       14.2366798824      -70.8490551181  TIP3      11752           0.0000000000
     57509     11945  TIP3      OH2           -13.7204222778       14.6803467454      -69.7042974501  TIP3      11753           0.0000000000
     57510     11945  TIP3      H1            -13.9500620135       13.8189667819      -70.0995345614  TIP3      11753           0.0000000000
     57511     11945  TIP3      H2            -12.7464116081       14.5592120196      -69.6919857659  TIP3      11753           0.0000000000
     57512     11946  TIP3      OH2           -17.0336559785        8.2725330272      -74.2508785227  TIP3      11754           0.0000000000
     57513     11946  TIP3      H1            -17.4733069684        9.1399355088      -74.3110784440  TIP3      11754           0.0000000000
     57514     11946  TIP3      H2            -17.6000795196        7.7311065787      -74.8175740792  TIP3      11754           0.0000000000
     57515     11947  TIP3      OH2           -16.3037474564       10.5164860358      -72.0604052265  TIP3      11755           0.0000000000
     57516     11947  TIP3      H1            -16.0509503250        9.6603493379      -71.6630647598  TIP3      11755           0.0000000000
     57517     11947  TIP3      H2            -15.6497613229       10.5940875198      -72.7774758099  TIP3      11755           0.0000000000
     57518     11948  TIP3      OH2            -6.1572692992       18.6925174260      -71.2765575928  TIP3      11756           0.0000000000
     57519     11948  TIP3      H1             -5.5040389356       18.0062028574      -71.5599806074  TIP3      11756           0.0000000000
     57520     11948  TIP3      H2             -6.3669268508       18.3600265556      -70.4037569926  TIP3      11756           0.0000000000
     57521     11949  TIP3      OH2            -8.5773897754       12.9962167934      -69.3517565788  TIP3      11757           0.0000000000
     57522     11949  TIP3      H1             -8.2330007398       12.3432768169      -69.9755130137  TIP3      11757           0.0000000000
     57523     11949  TIP3      H2             -7.7779449994       13.1484965600      -68.8154639030  TIP3      11757           0.0000000000
     57524     11950  TIP3      OH2             0.0132087712        4.6528262610      -68.6002479375  TIP3      11758           0.0000000000
     57525     11950  TIP3      H1              0.1910567769        5.2363975223      -67.8318677949  TIP3      11758           0.0000000000
     57526     11950  TIP3      H2              0.5864535709        5.0706343737      -69.2588221091  TIP3      11758           0.0000000000
     57527     11951  TIP3      OH2            -5.4118219476        7.4582611672      -69.0082488897  TIP3      11759           0.0000000000
     57528     11951  TIP3      H1             -5.2444985017        6.4993291197      -69.0037129652  TIP3      11759           0.0000000000
     57529     11951  TIP3      H2             -5.5152840737        7.5976704119      -69.9697874814  TIP3      11759           0.0000000000
     57530     11952  TIP3      OH2           -12.2979970610        5.5488529056      -71.7951654993  TIP3      11760           0.0000000000
     57531     11952  TIP3      H1            -12.1899174102        6.3817772049      -72.2886808898  TIP3      11760           0.0000000000
     57532     11952  TIP3      H2            -12.6967023567        4.9735851925      -72.4841919947  TIP3      11760           0.0000000000
     57533     11953  TIP3      OH2            -4.5591088995        5.6226881043      -73.4280421098  TIP3      11761           0.0000000000
     57534     11953  TIP3      H1             -3.9088995322        5.3143317031      -72.7548121773  TIP3      11761           0.0000000000
     57535     11953  TIP3      H2             -3.9951028177        6.1955964092      -73.9708694079  TIP3      11761           0.0000000000
     57536     11954  TIP3      OH2           -15.6764216587        7.9601498517      -71.0605417295  TIP3      11762           0.0000000000
     57537     11954  TIP3      H1            -15.0061391702        7.4138070474      -70.6057668385  TIP3      11762           0.0000000000
     57538     11954  TIP3      H2            -15.5687266706        7.6416998464      -71.9710859893  TIP3      11762           0.0000000000
     57539     11955  TIP3      OH2           -10.4791461859        9.5318509956      -71.7844951744  TIP3      11763           0.0000000000
     57540     11955  TIP3      H1             -9.8515975978        8.9365131508      -71.3374106678  TIP3      11763           0.0000000000
     57541     11955  TIP3      H2            -11.0345548780        8.8576501457      -72.2317762704  TIP3      11763           0.0000000000
     57542     11956  TIP3      OH2             0.4568807540        6.0545732971      -66.3211084336  TIP3      11764           0.0000000000
     57543     11956  TIP3      H1             -0.1480732409        6.8204465306      -66.4338395194  TIP3      11764           0.0000000000
     57544     11956  TIP3      H2              0.4903680023        5.9755719289      -65.3612496582  TIP3      11764           0.0000000000
     57545     11957  TIP3      OH2           -13.3886019707        4.4492896439      -67.7549453365  TIP3      11765           0.0000000000
     57546     11957  TIP3      H1            -13.6714591294        5.0179462663      -68.5002962442  TIP3      11765           0.0000000000
     57547     11957  TIP3      H2            -14.0661307598        4.6745004753      -67.0724836515  TIP3      11765           0.0000000000
     57548     11958  TIP3      OH2            -6.2389243374       13.8851921508      -74.2089770196  TIP3      11766           0.0000000000
     57549     11958  TIP3      H1             -6.2590661416       13.7299655750      -75.1690283978  TIP3      11766           0.0000000000
     57550     11958  TIP3      H2             -6.3721082558       14.8642969237      -74.1458594681  TIP3      11766           0.0000000000
     57551     11959  TIP3      OH2           -10.8693997362       12.0879680206      -67.5156444088  TIP3      11767           0.0000000000
     57552     11959  TIP3      H1            -11.5737359723       12.7320176976      -67.2904909702  TIP3      11767           0.0000000000
     57553     11959  TIP3      H2            -10.1664060793       12.6883118653      -67.8062469051  TIP3      11767           0.0000000000
     57554     11960  TIP3      OH2            -2.7482790344        4.9740107431      -71.4314566068  TIP3      11768           0.0000000000
     57555     11960  TIP3      H1             -2.9698571544        4.2051183022      -70.8986096534  TIP3      11768           0.0000000000
     57556     11960  TIP3      H2             -2.0784328464        5.4093203899      -70.8769471898  TIP3      11768           0.0000000000
     57557     11961  TIP3      OH2           -13.8206874480        6.3039439826      -69.7200322760  TIP3      11769           0.0000000000
     57558     11961  TIP3      H1            -13.1911493248        6.9906121159      -69.4044349810  TIP3      11769           0.0000000000
     57559     11961  TIP3      H2            -13.3042984950        5.8935236709      -70.4603160424  TIP3      11769           0.0000000000
     57560     11962  TIP3      OH2           -12.4354741586       14.0859807487      -66.7058370139  TIP3      11770           0.0000000000
     57561     11962  TIP3      H1            -12.4593670323       15.0116270905      -67.0215215328  TIP3      11770           0.0000000000
     57562     11962  TIP3      H2            -13.2981468299       14.0174920656      -66.2306205469  TIP3      11770           0.0000000000
     57563     11963  TIP3      OH2           -16.3663593754       13.7012043677      -75.9171725130  TIP3      11771           0.0000000000
     57564     11963  TIP3      H1            -16.5810829050       14.0601043463      -76.7970681586  TIP3      11771           0.0000000000
     57565     11963  TIP3      H2            -16.2844491636       14.5231623427      -75.3893626664  TIP3      11771           0.0000000000
     57566     11964  TIP3      OH2            -2.7408158193       15.3757098822      -69.1440438896  TIP3      11772           0.0000000000
     57567     11964  TIP3      H1             -3.7090697459       15.4883407758      -69.0230141083  TIP3      11772           0.0000000000
     57568     11964  TIP3      H2             -2.4705356080       16.2915412212      -69.3457626483  TIP3      11772           0.0000000000
     57569     11965  TIP3      OH2            -2.4164953085        3.6582533413      -67.7552366207  TIP3      11773           0.0000000000
     57570     11965  TIP3      H1             -3.1409438075        4.2918934169      -67.8474014938  TIP3      11773           0.0000000000
     57571     11965  TIP3      H2             -1.7029980212        4.0770233291      -68.2773269603  TIP3      11773           0.0000000000
     57572     11966  TIP3      OH2            -9.4519574553        1.7807096832      -70.2882762542  TIP3      11774           0.0000000000
     57573     11966  TIP3      H1             -9.5954445500        0.8172369024      -70.3646646164  TIP3      11774           0.0000000000
     57574     11966  TIP3      H2            -10.3301789401        2.0862931749      -69.9822774898  TIP3      11774           0.0000000000
     57575     11967  TIP3      OH2            -4.4990684408       17.1471372208      -72.5649022527  TIP3      11775           0.0000000000
     57576     11967  TIP3      H1             -4.0526128874       16.4348310935      -73.0628274028  TIP3      11775           0.0000000000
     57577     11967  TIP3      H2             -4.0507533634       17.9370578101      -72.9339931926  TIP3      11775           0.0000000000
     57578     11968  TIP3      OH2            -3.2625532089       15.0695801815      -74.0479917663  TIP3      11776           0.0000000000
     57579     11968  TIP3      H1             -3.5609172158       14.3926249271      -74.6602686508  TIP3      11776           0.0000000000
     57580     11968  TIP3      H2             -3.2371392824       14.6033251683      -73.1906960991  TIP3      11776           0.0000000000
     57581     11969  TIP3      OH2            -1.6537103034       13.6846233693      -65.5435194330  TIP3      11777           0.0000000000
     57582     11969  TIP3      H1             -1.5056229755       13.0291279637      -66.2610650876  TIP3      11777           0.0000000000
     57583     11969  TIP3      H2             -1.4454705746       14.5258460519      -65.9884354296  TIP3      11777           0.0000000000
     57584     11970  TIP3      OH2            -7.1557957173       10.6668146609      -75.8150030509  TIP3      11778           0.0000000000
     57585     11970  TIP3      H1             -7.8397046893       10.9980306658      -76.4125848936  TIP3      11778           0.0000000000
     57586     11970  TIP3      H2             -6.4113610571       10.5844158117      -76.4582515019  TIP3      11778           0.0000000000
     57587     11971  TIP3      OH2            -7.1498658052        9.0858428144      -78.6490592146  TIP3      11779           0.0000000000
     57588     11971  TIP3      H1             -6.3504508566        9.1151371133      -78.1130092581  TIP3      11779           0.0000000000
     57589     11971  TIP3      H2             -6.8252494062        8.4909216172      -79.3298208129  TIP3      11779           0.0000000000
     57590     11972  TIP3      OH2             0.2359403248        9.9952268531      -67.4998435575  TIP3      11780           0.0000000000
     57591     11972  TIP3      H1             -0.4217369656       10.7183159250      -67.4611758937  TIP3      11780           0.0000000000
     57592     11972  TIP3      H2              0.7310397105       10.2277409740      -68.3063506487  TIP3      11780           0.0000000000
     57593     11973  TIP3      OH2            -3.6727050404       10.7961661658      -74.8368472794  TIP3      11781           0.0000000000
     57594     11973  TIP3      H1             -4.4336305713       11.0296059233      -74.2454056923  TIP3      11781           0.0000000000
     57595     11973  TIP3      H2             -3.2569373604       10.0909725394      -74.3011223275  TIP3      11781           0.0000000000
     57596     11974  TIP3      OH2            -3.7761806259        8.9471643486      -65.7328881370  TIP3      11782           0.0000000000
     57597     11974  TIP3      H1             -3.7691312293        9.7670903531      -65.2116936673  TIP3      11782           0.0000000000
     57598     11974  TIP3      H2             -4.4058368539        9.2383307964      -66.4250566711  TIP3      11782           0.0000000000
     57599     11975  TIP3      OH2           -12.0433942836       11.4514057328      -72.9710922027  TIP3      11783           0.0000000000
     57600     11975  TIP3      H1            -12.4359439562       11.0361989247      -73.7775915648  TIP3      11783           0.0000000000
     57601     11975  TIP3      H2            -11.5009833879       10.7243667790      -72.5930954281  TIP3      11783           0.0000000000
     57602     11976  TIP3      OH2           -10.7730161367       14.8372907148      -70.2521484879  TIP3      11784           0.0000000000
     57603     11976  TIP3      H1            -10.8014559067       14.2996644429      -71.0448542098  TIP3      11784           0.0000000000
     57604     11976  TIP3      H2             -9.9927245643       14.4730188403      -69.7937325711  TIP3      11784           0.0000000000
     57605     11977  TIP3      OH2           -11.7723348893       10.1857577265      -69.2752403048  TIP3      11785           0.0000000000
     57606     11977  TIP3      H1            -11.2199155066       10.2843369984      -70.0705123581  TIP3      11785           0.0000000000
     57607     11977  TIP3      H2            -11.3792933733       10.8515646588      -68.6687355709  TIP3      11785           0.0000000000
     57608     11978  TIP3      OH2            -5.3441746334       15.7575109147      -68.5752713046  TIP3      11786           0.0000000000
     57609     11978  TIP3      H1             -5.6350837324       16.3966139103      -67.9149822851  TIP3      11786           0.0000000000
     57610     11978  TIP3      H2             -5.6057563884       14.9065139509      -68.1507588449  TIP3      11786           0.0000000000
     57611     11979  TIP3      OH2           -10.8128069050       14.6188154665      -64.5863107308  TIP3      11787           0.0000000000
     57612     11979  TIP3      H1            -11.2264179643       15.3568116158      -64.0935291869  TIP3      11787           0.0000000000
     57613     11979  TIP3      H2            -11.4852506163       14.4176987899      -65.2818915901  TIP3      11787           0.0000000000
     57614     11980  TIP3      OH2            -4.8502396171        9.9985870450      -77.1586421980  TIP3      11788           0.0000000000
     57615     11980  TIP3      H1             -4.2797932181       10.1658094774      -76.3729661296  TIP3      11788           0.0000000000
     57616     11980  TIP3      H2             -4.4294865409       10.5085007479      -77.8846586718  TIP3      11788           0.0000000000
     57617     11981  TIP3      OH2           -13.8687269922       10.8066529411      -65.4603632347  TIP3      11789           0.0000000000
     57618     11981  TIP3      H1            -13.8080542735       11.4340305382      -64.7131452200  TIP3      11789           0.0000000000
     57619     11981  TIP3      H2            -14.8201480960       10.8488177380      -65.6209673063  TIP3      11789           0.0000000000
     57620     11982  TIP3      OH2            -7.1438967611       16.6787826549      -73.7039699857  TIP3      11790           0.0000000000
     57621     11982  TIP3      H1             -6.6824319962       17.0100086232      -72.9216196511  TIP3      11790           0.0000000000
     57622     11982  TIP3      H2             -7.6608008297       17.4534560577      -73.9711182994  TIP3      11790           0.0000000000
     57623     11983  TIP3      OH2           -12.5689724228       16.6525489007      -63.8399105576  TIP3      11791           0.0000000000
     57624     11983  TIP3      H1            -12.6280589346       16.5526717451      -64.8040869528  TIP3      11791           0.0000000000
     57625     11983  TIP3      H2            -13.5021470085       16.5240199755      -63.5755331816  TIP3      11791           0.0000000000
     57626     11984  TIP3      OH2            -1.0970571628        1.7294923961      -77.2774759859  TIP3      11792           0.0000000000
     57627     11984  TIP3      H1             -2.0575744413        1.8175984082      -77.0822567013  TIP3      11792           0.0000000000
     57628     11984  TIP3      H2             -0.9089218042        2.5705213140      -77.7277391798  TIP3      11792           0.0000000000
     57629     11985  TIP3      OH2           -13.0981497689       10.4636795262      -75.3430546240  TIP3      11793           0.0000000000
     57630     11985  TIP3      H1            -13.4144337335       11.2450059358      -75.8435355622  TIP3      11793           0.0000000000
     57631     11985  TIP3      H2            -13.7708720285        9.8056589027      -75.5512557710  TIP3      11793           0.0000000000
     57632     11986  TIP3      OH2            -0.0273314204       16.0338810797      -78.8868255435  TIP3      11794           0.0000000000
     57633     11986  TIP3      H1              0.1026788608       16.9975661722      -78.8047274331  TIP3      11794           0.0000000000
     57634     11986  TIP3      H2              0.9007881244       15.7711500091      -78.9958487533  TIP3      11794           0.0000000000
     57635     11987  TIP3      OH2           -17.0192209739       12.8773267817      -66.4722813001  TIP3      11795           0.0000000000
     57636     11987  TIP3      H1            -17.6040841770       12.6413814993      -67.2039329547  TIP3      11795           0.0000000000
     57637     11987  TIP3      H2            -16.9230797246       11.9499698308      -66.1429880359  TIP3      11795           0.0000000000
     57638     11988  TIP3      OH2           -17.2414567451       15.6741843872      -69.6463196868  TIP3      11796           0.0000000000
     57639     11988  TIP3      H1            -16.2813855957       15.6690147912      -69.7953451756  TIP3      11796           0.0000000000
     57640     11988  TIP3      H2            -17.3750180206       16.5334460522      -69.1996085229  TIP3      11796           0.0000000000
     57641     11989  TIP3      OH2             0.9668490198       16.3335831667      -63.9586237205  TIP3      11797           0.0000000000
     57642     11989  TIP3      H1              0.8465314382       15.3731011209      -63.9884307597  TIP3      11797           0.0000000000
     57643     11989  TIP3      H2              0.0913731530       16.5814288466      -63.5763164131  TIP3      11797           0.0000000000
     57644     11990  TIP3      OH2            -8.0714898765       15.8763498585      -65.1018528108  TIP3      11798           0.0000000000
     57645     11990  TIP3      H1             -8.0156598083       16.7168130168      -64.5895769143  TIP3      11798           0.0000000000
     57646     11990  TIP3      H2             -8.9377885163       15.5127001163      -64.8440434622  TIP3      11798           0.0000000000
     57647     11991  TIP3      OH2            -7.6502429962       19.6112964343      -75.3234190324  TIP3      11799           0.0000000000
     57648     11991  TIP3      H1             -7.7279104656       19.5675362262      -76.2945079432  TIP3      11799           0.0000000000
     57649     11991  TIP3      H2             -7.6044487112       20.5714323264      -75.1415475921  TIP3      11799           0.0000000000
     57650     11992  TIP3      OH2           -14.0452466959       18.5315014699      -73.4740668777  TIP3      11800           0.0000000000
     57651     11992  TIP3      H1            -13.8357105849       18.0904837870      -72.6144647925  TIP3      11800           0.0000000000
     57652     11992  TIP3      H2            -14.8420973313       18.0264135025      -73.7084526995  TIP3      11800           0.0000000000
     57653     11993  TIP3      OH2            -4.6475071469       18.8068944715      -78.3421094880  TIP3      11801           0.0000000000
     57654     11993  TIP3      H1             -4.1348279868       18.0848620142      -78.7752688781  TIP3      11801           0.0000000000
     57655     11993  TIP3      H2             -4.5387462554       18.5768528612      -77.3996146629  TIP3      11801           0.0000000000
     57656     11994  TIP3      OH2            -4.9126659568       18.7434373008      -75.5630599728  TIP3      11802           0.0000000000
     57657     11994  TIP3      H1             -5.8584430251       18.8308923969      -75.3477836374  TIP3      11802           0.0000000000
     57658     11994  TIP3      H2             -4.6393406795       18.0393279659      -74.9560307161  TIP3      11802           0.0000000000
     57659     11995  TIP3      OH2            -1.8887851685        7.7998079587      -63.4926078466  TIP3      11803           0.0000000000
     57660     11995  TIP3      H1             -2.3643175440        8.2503999548      -64.2095094962  TIP3      11803           0.0000000000
     57661     11995  TIP3      H2             -1.9039233292        6.8800295133      -63.7965429782  TIP3      11803           0.0000000000
     57662     11996  TIP3      OH2           -14.7723300907       14.2018521543      -65.5129797902  TIP3      11804           0.0000000000
     57663     11996  TIP3      H1            -14.5214365470       13.8552601582      -64.6264330636  TIP3      11804           0.0000000000
     57664     11996  TIP3      H2            -15.6368005352       13.7856334558      -65.6551669655  TIP3      11804           0.0000000000
     57665     11997  TIP3      OH2           -12.0678251566        2.6831598990      -69.5382504982  TIP3      11805           0.0000000000
     57666     11997  TIP3      H1            -12.9704236055        2.5565490225      -69.9050700780  TIP3      11805           0.0000000000
     57667     11997  TIP3      H2            -12.2021291738        3.5135986661      -69.0524515747  TIP3      11805           0.0000000000
     57668     11998  TIP3      OH2            -7.4238489699        2.3488521047      -66.1779734067  TIP3      11806           0.0000000000
     57669     11998  TIP3      H1             -7.0327451790        1.9257817692      -65.3908092988  TIP3      11806           0.0000000000
     57670     11998  TIP3      H2             -8.3965311902        2.2315243201      -66.0354980087  TIP3      11806           0.0000000000
     57671     11999  TIP3      OH2            -4.1363564296        6.1972198964      -65.2745638117  TIP3      11807           0.0000000000
     57672     11999  TIP3      H1             -4.7021193070        5.9821674509      -64.4940524907  TIP3      11807           0.0000000000
     57673     11999  TIP3      H2             -4.3220503604        7.1240560476      -65.5039567772  TIP3      11807           0.0000000000
     57674     12000  TIP3      OH2            -3.2664966469       11.0805681105      -79.2992193832  TIP3      11808           0.0000000000
     57675     12000  TIP3      H1             -3.3297566504       10.8910331215      -80.2597710604  TIP3      11808           0.0000000000
     57676     12000  TIP3      H2             -2.3972194974       11.5145070713      -79.2854987177  TIP3      11808           0.0000000000
     57677     12001  TIP3      OH2            -7.8034039105        4.9426339745      -78.8107863446  TIP3      11809           0.0000000000
     57678     12001  TIP3      H1             -8.1042244583        4.8679236340      -77.8881504489  TIP3      11809           0.0000000000
     57679     12001  TIP3      H2             -8.0221236230        4.0586461786      -79.1377203423  TIP3      11809           0.0000000000
     57680     12002  TIP3      OH2           -11.9652877493        7.6632402370      -68.2842604563  TIP3      11810           0.0000000000
     57681     12002  TIP3      H1            -12.7016020961        7.6482536932      -67.6476057660  TIP3      11810           0.0000000000
     57682     12002  TIP3      H2            -12.0137416278        8.5722098082      -68.6572788386  TIP3      11810           0.0000000000
     57683     12003  TIP3      OH2           -11.9990202805        7.7909625106      -73.4233972788  TIP3      11811           0.0000000000
     57684     12003  TIP3      H1            -12.9347698693        7.5305816528      -73.5489933395  TIP3      11811           0.0000000000
     57685     12003  TIP3      H2            -11.6297505619        7.4799636966      -74.2774945261  TIP3      11811           0.0000000000
     57686     12004  TIP3      OH2            -6.4774962065        8.2911573815      -74.6751612079  TIP3      11812           0.0000000000
     57687     12004  TIP3      H1             -6.8836339236        9.0957665616      -75.0301230118  TIP3      11812           0.0000000000
     57688     12004  TIP3      H2             -5.7988134898        8.0856326284      -75.3465763125  TIP3      11812           0.0000000000
     57689     12005  TIP3      OH2            -7.4315425006        8.4871850354      -63.2140066337  TIP3      11813           0.0000000000
     57690     12005  TIP3      H1             -7.9567511158        7.7111481095      -62.9043227628  TIP3      11813           0.0000000000
     57691     12005  TIP3      H2             -6.5937151200        8.3653446950      -62.7373931520  TIP3      11813           0.0000000000
     57692     12006  TIP3      OH2            -5.4438481741        7.7553990478      -71.7936588822  TIP3      11814           0.0000000000
     57693     12006  TIP3      H1             -5.7205458361        8.3191675067      -72.5336385103  TIP3      11814           0.0000000000
     57694     12006  TIP3      H2             -5.3555122898        6.9102920719      -72.2705349376  TIP3      11814           0.0000000000
     57695     12007  TIP3      OH2           -14.3440691023        7.9069401538      -66.6080055977  TIP3      11815           0.0000000000
     57696     12007  TIP3      H1            -14.2610545204        8.3142816821      -65.7282012120  TIP3      11815           0.0000000000
     57697     12007  TIP3      H2            -14.7846377530        7.0685907228      -66.3966897379  TIP3      11815           0.0000000000
     57698     12008  TIP3      OH2           -10.7639668212        5.5995178860      -79.3715038095  TIP3      11816           0.0000000000
     57699     12008  TIP3      H1            -11.3167147377        4.9397923908      -78.9103405722  TIP3      11816           0.0000000000
     57700     12008  TIP3      H2            -11.3185399490        5.9359398947      -80.0841512925  TIP3      11816           0.0000000000
     57701     12009  TIP3      OH2           -17.6859234951        5.0156833840      -72.6140335491  TIP3      11817           0.0000000000
     57702     12009  TIP3      H1            -17.0021652350        4.9761803596      -71.9151081758  TIP3      11817           0.0000000000
     57703     12009  TIP3      H2            -17.2386950463        4.6416001702      -73.3963672694  TIP3      11817           0.0000000000
     57704     12010  TIP3      OH2           -16.4058351669        5.7561657856      -77.2603060799  TIP3      11818           0.0000000000
     57705     12010  TIP3      H1            -15.8904345806        6.3432736751      -77.8417825246  TIP3      11818           0.0000000000
     57706     12010  TIP3      H2            -17.1010845819        6.3695997475      -76.9466775310  TIP3      11818           0.0000000000
     57707     12011  TIP3      OH2            -6.2562737289        9.3507676899      -67.2536426053  TIP3      11819           0.0000000000
     57708     12011  TIP3      H1             -5.8746991304        8.6633737469      -67.8364695931  TIP3      11819           0.0000000000
     57709     12011  TIP3      H2             -6.7223770728        8.8223639903      -66.5801672837  TIP3      11819           0.0000000000
     57710     12012  TIP3      OH2            -9.4486348807        5.3301108889      -72.4176060138  TIP3      11820           0.0000000000
     57711     12012  TIP3      H1            -10.3806576696        5.3305004701      -72.1276999061  TIP3      11820           0.0000000000
     57712     12012  TIP3      H2             -8.9692623238        5.1591123234      -71.5956309798  TIP3      11820           0.0000000000
     57713     12013  TIP3      OH2           -14.6419272924        6.8762524176      -73.5453686257  TIP3      11821           0.0000000000
     57714     12013  TIP3      H1            -15.5254829443        7.0334193512      -73.9371992416  TIP3      11821           0.0000000000
     57715     12013  TIP3      H2            -14.3525686389        6.0437380828      -73.9580322730  TIP3      11821           0.0000000000
     57716     12014  TIP3      OH2           -11.0133531254        6.9774710942      -75.8818677130  TIP3      11822           0.0000000000
     57717     12014  TIP3      H1            -10.0448531299        7.0213348067      -75.7528698468  TIP3      11822           0.0000000000
     57718     12014  TIP3      H2            -11.2340191796        7.5770130948      -76.6172465135  TIP3      11822           0.0000000000
     57719     12015  TIP3      OH2            -5.0460556193        4.5643837225      -69.1766398394  TIP3      11823           0.0000000000
     57720     12015  TIP3      H1             -5.7296506009        4.6127114437      -68.4706276462  TIP3      11823           0.0000000000
     57721     12015  TIP3      H2             -5.5563120632        4.3079294792      -69.9585569099  TIP3      11823           0.0000000000
     57722     12016  TIP3      OH2           -12.3008659856        8.1117994963      -78.3439674533  TIP3      11824           0.0000000000
     57723     12016  TIP3      H1            -12.8675241254        7.7488250110      -79.0378478826  TIP3      11824           0.0000000000
     57724     12016  TIP3      H2            -11.4700402972        8.2880252130      -78.8190407027  TIP3      11824           0.0000000000
     57725     12017  TIP3      OH2            -1.8467335353       20.1902804621      -62.8534842952  TIP3      11825           0.0000000000
     57726     12017  TIP3      H1             -1.5815724375       20.5845134887      -63.7051218492  TIP3      11825           0.0000000000
     57727     12017  TIP3      H2             -1.1198026479       20.5003093581      -62.2969354391  TIP3      11825           0.0000000000
     57728     12018  TIP3      OH2           -14.1764387101       12.6810424467      -63.2901447178  TIP3      11826           0.0000000000
     57729     12018  TIP3      H1            -13.4534973248       12.9167148170      -62.6817292960  TIP3      11826           0.0000000000
     57730     12018  TIP3      H2            -14.9434295959       12.7566604157      -62.6802768042  TIP3      11826           0.0000000000
     57731     12019  TIP3      OH2            -8.1716181528        8.0924567727      -70.5297687562  TIP3      11827           0.0000000000
     57732     12019  TIP3      H1             -7.5757499746        7.5424040898      -71.0508968609  TIP3      11827           0.0000000000
     57733     12019  TIP3      H2             -8.3153110872        7.5433532180      -69.7434421210  TIP3      11827           0.0000000000
     57734     12020  TIP3      OH2           -13.1608609273        4.2236445233      -74.0674517917  TIP3      11828           0.0000000000
     57735     12020  TIP3      H1            -13.4735597574        3.3020772651      -74.0909800951  TIP3      11828           0.0000000000
     57736     12020  TIP3      H2            -12.3755410047        4.1564870985      -74.6273965417  TIP3      11828           0.0000000000
     57737     12021  TIP3      OH2            -9.5317710073        6.4106755978      -68.1079450449  TIP3      11829           0.0000000000
     57738     12021  TIP3      H1            -10.3553909214        6.9303220209      -68.0193676894  TIP3      11829           0.0000000000
     57739     12021  TIP3      H2             -8.9751694695        6.7637336655      -67.3867804373  TIP3      11829           0.0000000000
     57740     12022  TIP3      OH2            -9.1414616237       12.7579351957      -76.7243166050  TIP3      11830           0.0000000000
     57741     12022  TIP3      H1             -9.8592385237       12.1377668828      -77.0310990590  TIP3      11830           0.0000000000
     57742     12022  TIP3      H2             -9.5640529133       13.1801743347      -75.9728431218  TIP3      11830           0.0000000000
     57743     12023  TIP3      OH2            -1.7542001982       11.8373150644      -67.6078807543  TIP3      11831           0.0000000000
     57744     12023  TIP3      H1             -1.1926174248       12.3222659182      -68.2401318214  TIP3      11831           0.0000000000
     57745     12023  TIP3      H2             -2.6149550521       11.8821447032      -68.0709360992  TIP3      11831           0.0000000000
     57746     12024  TIP3      OH2            -5.0895657394        5.4685231006      -78.2194603579  TIP3      11832           0.0000000000
     57747     12024  TIP3      H1             -6.0317837504        5.6023403233      -78.4094235955  TIP3      11832           0.0000000000
     57748     12024  TIP3      H2             -4.7789670128        6.3204014563      -77.8670802737  TIP3      11832           0.0000000000
     57749     12025  TIP3      OH2            -7.4505805420       12.9051735381      -65.1653511573  TIP3      11833           0.0000000000
     57750     12025  TIP3      H1             -7.7971117367       12.4748768704      -64.3767687575  TIP3      11833           0.0000000000
     57751     12025  TIP3      H2             -7.7062988561       13.8263667136      -65.0579626050  TIP3      11833           0.0000000000
     57752     12026  TIP3      OH2            -4.3762004855        7.4006867996      -76.5571562898  TIP3      11834           0.0000000000
     57753     12026  TIP3      H1             -3.4747826745        7.2152002414      -76.2254693942  TIP3      11834           0.0000000000
     57754     12026  TIP3      H2             -4.2822632863        8.1911575445      -77.1025440650  TIP3      11834           0.0000000000
     57755     12027  TIP3      OH2           -13.8464108305       12.0374372499      -70.5934478999  TIP3      11835           0.0000000000
     57756     12027  TIP3      H1            -13.1734086161       11.9572605705      -71.2979209717  TIP3      11835           0.0000000000
     57757     12027  TIP3      H2            -13.7626151413       11.1663622462      -70.1621854968  TIP3      11835           0.0000000000
     57758     12028  TIP3      OH2            -6.8206141228       14.0666056729      -77.2359543108  TIP3      11836           0.0000000000
     57759     12028  TIP3      H1             -7.1983589499       14.9565049042      -77.0542103861  TIP3      11836           0.0000000000
     57760     12028  TIP3      H2             -7.6184961224       13.5040460091      -77.2702965865  TIP3      11836           0.0000000000
     57761     12029  TIP3      OH2           -16.8463782748       10.4466956106      -65.3518711337  TIP3      11837           0.0000000000
     57762     12029  TIP3      H1            -16.6713705904        9.9970983420      -64.4970697593  TIP3      11837           0.0000000000
     57763     12029  TIP3      H2            -17.4580380701        9.8129832365      -65.7754171610  TIP3      11837           0.0000000000
     57764     12030  TIP3      OH2            -9.8317215235        9.9963943126      -63.1764805293  TIP3      11838           0.0000000000
     57765     12030  TIP3      H1            -10.1497652872        9.6830087073      -64.0342528667  TIP3      11838           0.0000000000
     57766     12030  TIP3      H2             -8.9087322607        9.6681802371      -63.1745270739  TIP3      11838           0.0000000000
     57767     12031  TIP3      OH2            -5.1432662927       15.3273744190      -65.2165075123  TIP3      11839           0.0000000000
     57768     12031  TIP3      H1             -6.0683579741       15.5065095737      -65.4511198838  TIP3      11839           0.0000000000
     57769     12031  TIP3      H2             -5.1768166769       15.6213361313      -64.2861994735  TIP3      11839           0.0000000000
     57770     12032  TIP3      OH2             0.4882262767        7.5155394070      -76.7782013437  TIP3      11840           0.0000000000
     57771     12032  TIP3      H1             -0.0390400905        7.1627769519      -77.5120722553  TIP3      11840           0.0000000000
     57772     12032  TIP3      H2              0.6441618750        8.4127108581      -77.1257008375  TIP3      11840           0.0000000000
     57773     12033  TIP3      OH2             0.5111935026       13.3709058530      -64.0252355271  TIP3      11841           0.0000000000
     57774     12033  TIP3      H1             -0.3817570971       13.5906266112      -64.3896996924  TIP3      11841           0.0000000000
     57775     12033  TIP3      H2              1.0568481576       13.3181903094      -64.8369954165  TIP3      11841           0.0000000000
     57776     12034  TIP3      OH2            -1.2174502966       16.3395858904      -76.4626400474  TIP3      11842           0.0000000000
     57777     12034  TIP3      H1             -1.5583956800       15.5130482866      -76.1096170230  TIP3      11842           0.0000000000
     57778     12034  TIP3      H2             -0.8858534821       16.1385973613      -77.3602148267  TIP3      11842           0.0000000000
     57779     12035  TIP3      OH2            -3.9791355593       11.1547146597      -69.3317759396  TIP3      11843           0.0000000000
     57780     12035  TIP3      H1             -4.9198870932       10.9424983894      -69.4353152439  TIP3      11843           0.0000000000
     57781     12035  TIP3      H2             -3.5473202389       10.3935383968      -69.7635040237  TIP3      11843           0.0000000000
     57782     12036  TIP3      OH2           -11.4549449797       15.4611041057      -73.2495441634  TIP3      11844           0.0000000000
     57783     12036  TIP3      H1            -10.9764184906       16.2939348571      -73.4135423100  TIP3      11844           0.0000000000
     57784     12036  TIP3      H2            -12.3442872038       15.7155162442      -73.5401609476  TIP3      11844           0.0000000000
     57785     12037  TIP3      OH2           -15.7138085825       10.3708382049      -78.7202256569  TIP3      11845           0.0000000000
     57786     12037  TIP3      H1            -15.0974420786       10.9517359240      -78.2293108806  TIP3      11845           0.0000000000
     57787     12037  TIP3      H2            -16.5815034506       10.6077463570      -78.3309618514  TIP3      11845           0.0000000000
     57788     12038  TIP3      OH2           -10.0552679221       13.1544246354      -73.7322460177  TIP3      11846           0.0000000000
     57789     12038  TIP3      H1            -10.3748684204       14.0783521259      -73.6052884566  TIP3      11846           0.0000000000
     57790     12038  TIP3      H2            -10.7723988820       12.6723194859      -73.2532193561  TIP3      11846           0.0000000000
     57791     12039  TIP3      OH2            -9.6120831646       17.3374822226      -67.2879109502  TIP3      11847           0.0000000000
     57792     12039  TIP3      H1             -9.1399408204       18.1330896057      -67.5849472867  TIP3      11847           0.0000000000
     57793     12039  TIP3      H2             -8.9856537918       16.9889551694      -66.6267602366  TIP3      11847           0.0000000000
     57794     12040  TIP3      OH2           -11.3716824186       18.1470179563      -74.1968787054  TIP3      11848           0.0000000000
     57795     12040  TIP3      H1            -12.3269372472       18.2773713864      -74.0299486487  TIP3      11848           0.0000000000
     57796     12040  TIP3      H2            -10.9903340903       18.9646571764      -73.8252784609  TIP3      11848           0.0000000000
     57797     12041  TIP3      OH2            -6.0774154409       13.3256503987      -67.6813823343  TIP3      11849           0.0000000000
     57798     12041  TIP3      H1             -6.3948202692       13.1378728887      -66.7736416366  TIP3      11849           0.0000000000
     57799     12041  TIP3      H2             -5.4310613483       12.6206070536      -67.8467033571  TIP3      11849           0.0000000000
     57800     12042  TIP3      OH2            -3.7436930781       14.3668461368      -78.5503269082  TIP3      11850           0.0000000000
     57801     12042  TIP3      H1             -3.4744148777       13.9102348631      -77.7389173684  TIP3      11850           0.0000000000
     57802     12042  TIP3      H2             -4.7064520862       14.2397279092      -78.5159628191  TIP3      11850           0.0000000000
     57803     12043  TIP3      OH2            -3.2513312400       17.9111479145      -65.1917996532  TIP3      11851           0.0000000000
     57804     12043  TIP3      H1             -3.9443494015       17.4188504674      -65.6706831834  TIP3      11851           0.0000000000
     57805     12043  TIP3      H2             -3.0701432246       18.6131264069      -65.8520942238  TIP3      11851           0.0000000000
     57806     12044  TIP3      OH2             0.7228476125       18.7875235193      -78.2870428080  TIP3      11852           0.0000000000
     57807     12044  TIP3      H1              1.4162724514       19.4141871064      -78.5680029001  TIP3      11852           0.0000000000
     57808     12044  TIP3      H2             -0.0054842354       19.4040044621      -78.0612469334  TIP3      11852           0.0000000000
     57809     12045  TIP3      OH2           -15.1922075807        5.1637779482      -65.8033018318  TIP3      11853           0.0000000000
     57810     12045  TIP3      H1            -16.0986417676        5.5175127717      -65.8202363429  TIP3      11853           0.0000000000
     57811     12045  TIP3      H2            -15.3020587217        4.3194246610      -65.3354685546  TIP3      11853           0.0000000000
     57812     12046  TIP3      OH2            -2.9137408144       12.9249345521      -76.3946493520  TIP3      11854           0.0000000000
     57813     12046  TIP3      H1             -3.2204238251       12.2491362888      -75.7671723551  TIP3      11854           0.0000000000
     57814     12046  TIP3      H2             -2.0425247013       13.2056191955      -76.0717338757  TIP3      11854           0.0000000000
     57815     12047  TIP3      OH2           -15.5982961883       16.9118896035      -67.3604821323  TIP3      11855           0.0000000000
     57816     12047  TIP3      H1            -15.1961717208       16.0394005498      -67.3258495051  TIP3      11855           0.0000000000
     57817     12047  TIP3      H2            -15.3069828438       17.2773421571      -66.5122252240  TIP3      11855           0.0000000000
     57818     12048  TIP3      OH2           -10.8410603337       15.0610668405      -77.6727424986  TIP3      11856           0.0000000000
     57819     12048  TIP3      H1            -10.5990269988       14.4950898288      -76.9381075507  TIP3      11856           0.0000000000
     57820     12048  TIP3      H2            -10.7462294362       15.9776461572      -77.3299048308  TIP3      11856           0.0000000000
     57821     12049  TIP3      OH2           -14.3226074961       12.2497248687      -77.1395719855  TIP3      11857           0.0000000000
     57822     12049  TIP3      H1            -14.9983647521       12.6668121404      -76.5728463945  TIP3      11857           0.0000000000
     57823     12049  TIP3      H2            -13.7887420967       13.0163442387      -77.4160750270  TIP3      11857           0.0000000000
     57824     12050  TIP3      OH2            -6.4606715615        4.9392823389      -66.8355745234  TIP3      11858           0.0000000000
     57825     12050  TIP3      H1             -5.7449251389        5.0000102896      -66.1938094922  TIP3      11858           0.0000000000
     57826     12050  TIP3      H2             -6.8436023268        4.0627976417      -66.6321265046  TIP3      11858           0.0000000000
     57827     12051  TIP3      OH2            -5.7344063136        4.5363220563      -75.7386661861  TIP3      11859           0.0000000000
     57828     12051  TIP3      H1             -5.4660326409        4.9797432955      -76.5662721090  TIP3      11859           0.0000000000
     57829     12051  TIP3      H2             -5.1315110199        4.9391950843      -75.1013099306  TIP3      11859           0.0000000000
     57830     12052  TIP3      OH2            -8.0543800704       16.6604815801      -76.9626706982  TIP3      11860           0.0000000000
     57831     12052  TIP3      H1             -8.8551977695       17.2050703974      -76.8568648380  TIP3      11860           0.0000000000
     57832     12052  TIP3      H2             -7.4903263412       17.2054616598      -77.5452520037  TIP3      11860           0.0000000000
     57833     12053  TIP3      OH2            -8.5106122568        6.2882036933      -74.9430150051  TIP3      11861           0.0000000000
     57834     12053  TIP3      H1             -7.6990636948        6.8261967331      -74.9081782870  TIP3      11861           0.0000000000
     57835     12053  TIP3      H2             -8.7595295581        6.1340567543      -74.0127665072  TIP3      11861           0.0000000000
     57836     12054  TIP3      OH2            -7.9198407737        7.2970695122      -65.7580414758  TIP3      11862           0.0000000000
     57837     12054  TIP3      H1             -7.8615286038        7.8420432080      -64.9497710405  TIP3      11862           0.0000000000
     57838     12054  TIP3      H2             -7.2707647069        6.5905684072      -65.6483871665  TIP3      11862           0.0000000000
     57839     12055  TIP3      OH2            -7.6386227739        3.3169330028      -74.0610259752  TIP3      11863           0.0000000000
     57840     12055  TIP3      H1             -7.9595619217        3.9593884816      -73.4052791284  TIP3      11863           0.0000000000
     57841     12055  TIP3      H2             -6.9416908347        3.8653537239      -74.5006393047  TIP3      11863           0.0000000000
     57842     12056  TIP3      OH2           -10.6697841295       17.7117472409      -76.8981160877  TIP3      11864           0.0000000000
     57843     12056  TIP3      H1            -10.4863727833       18.5336396163      -77.4005091071  TIP3      11864           0.0000000000
     57844     12056  TIP3      H2            -10.9125693962       18.0566291116      -76.0147303848  TIP3      11864           0.0000000000
     57845     12057  TIP3      OH2           -11.9858975282        4.4155109327      -77.2971484639  TIP3      11865           0.0000000000
     57846     12057  TIP3      H1            -12.0460015490        5.3278759529      -76.9487684414  TIP3      11865           0.0000000000
     57847     12057  TIP3      H2            -11.0746690684        4.1901512476      -77.0178476845  TIP3      11865           0.0000000000
     57848     12058  TIP3      OH2            -1.7554144694        5.1543383849      -64.8952490320  TIP3      11866           0.0000000000
     57849     12058  TIP3      H1             -2.6826062649        5.4708134349      -65.0239422450  TIP3      11866           0.0000000000
     57850     12058  TIP3      H2             -1.4543754801        5.1410087231      -65.8191860301  TIP3      11866           0.0000000000
     57851     12059  TIP3      OH2            -3.1419488685        8.9429032855      -70.8917494345  TIP3      11867           0.0000000000
     57852     12059  TIP3      H1             -3.9658440281        8.4894162863      -71.1519162165  TIP3      11867           0.0000000000
     57853     12059  TIP3      H2             -2.6595958911        8.2571489995      -70.3758847807  TIP3      11867           0.0000000000
     57854     12060  TIP3      OH2           -13.7366815200       14.8827888612      -78.3076089581  TIP3      11868           0.0000000000
     57855     12060  TIP3      H1            -13.0797048616       15.4979089434      -77.9664305730  TIP3      11868           0.0000000000
     57856     12060  TIP3      H2            -13.1925627728       14.4176168364      -78.9768256725  TIP3      11868           0.0000000000
     57857     12061  TIP3      OH2           -15.3304816108        7.5716864719      -79.2163726936  TIP3      11869           0.0000000000
     57858     12061  TIP3      H1            -15.3672817533        8.5072673729      -78.9387378169  TIP3      11869           0.0000000000
     57859     12061  TIP3      H2            -16.2471558968        7.3561471655      -79.3883780357  TIP3      11869           0.0000000000
     57860     12062  TIP3      OH2            -2.0759750245       18.1969747337      -69.2196106457  TIP3      11870           0.0000000000
     57861     12062  TIP3      H1             -2.1561830852       18.8902852802      -69.9081007761  TIP3      11870           0.0000000000
     57862     12062  TIP3      H2             -1.1108461053       18.2643156561      -69.0461048219  TIP3      11870           0.0000000000
     57863     12063  TIP3      OH2           -14.5857682160        2.3232541397      -70.4071652970  TIP3      11871           0.0000000000
     57864     12063  TIP3      H1            -14.7790137338        2.3415429929      -71.3706704278  TIP3      11871           0.0000000000
     57865     12063  TIP3      H2            -14.9995120641        1.4701466990      -70.1576677597  TIP3      11871           0.0000000000
     57866     12064  TIP3      OH2           -15.6125165990       16.2815481208      -74.2468609246  TIP3      11872           0.0000000000
     57867     12064  TIP3      H1            -16.4954342332       16.6676455548      -74.3269930869  TIP3      11872           0.0000000000
     57868     12064  TIP3      H2            -15.1526324540       16.6877313796      -74.9896202838  TIP3      11872           0.0000000000
     57869     12065  TIP3      OH2           -16.4327486051       18.9033393751      -62.9866625753  TIP3      11873           0.0000000000
     57870     12065  TIP3      H1            -15.8244483685       18.7008715390      -62.2473994713  TIP3      11873           0.0000000000
     57871     12065  TIP3      H2            -16.8264013837       18.0316517056      -63.1661711290  TIP3      11873           0.0000000000
     57872     12066  TIP3      OH2           -11.7421031645       17.8115981688      -61.3723603717  TIP3      11874           0.0000000000
     57873     12066  TIP3      H1            -10.9848613163       17.3141630105      -61.0395397780  TIP3      11874           0.0000000000
     57874     12066  TIP3      H2            -11.7695916809       17.5356276899      -62.3092252768  TIP3      11874           0.0000000000
     57875     12067  TIP3      OH2            -7.1515115947       17.4207064175      -79.3779951634  TIP3      11875           0.0000000000
     57876     12067  TIP3      H1             -8.0127235446       16.9640377565      -79.4018609539  TIP3      11875           0.0000000000
     57877     12067  TIP3      H2             -6.7023441346       16.9293173752      -80.0648822039  TIP3      11875           0.0000000000
     57878     12068  TIP3      OH2            -5.2418612570       16.1993068869      -62.6227794361  TIP3      11876           0.0000000000
     57879     12068  TIP3      H1             -5.5560566968       15.3117071814      -62.3486214230  TIP3      11876           0.0000000000
     57880     12068  TIP3      H2             -4.4728116413       16.3182014674      -62.0307251821  TIP3      11876           0.0000000000
     57881     12069  TIP3      OH2            -3.0196619788       17.1149225304      -79.7688373711  TIP3      11877           0.0000000000
     57882     12069  TIP3      H1             -2.7801013920       16.3008559258      -79.2854012828  TIP3      11877           0.0000000000
     57883     12069  TIP3      H2             -2.2405115993       17.2930330621      -80.3118495530  TIP3      11877           0.0000000000
     57884     12070  TIP3      OH2           -16.5140702017       12.6674312700      -61.9821926882  TIP3      11878           0.0000000000
     57885     12070  TIP3      H1            -16.3491933388       11.7567540252      -62.2862983574  TIP3      11878           0.0000000000
     57886     12070  TIP3      H2            -17.2581716810       12.9254063328      -62.5483879473  TIP3      11878           0.0000000000
     57887     12071  TIP3      OH2           -12.0277847482       13.1030097984      -79.8130249834  TIP3      11879           0.0000000000
     57888     12071  TIP3      H1            -12.0231430582       12.2489779372      -79.3765371777  TIP3      11879           0.0000000000
     57889     12071  TIP3      H2            -11.5062979178       12.8527523415      -80.6002990986  TIP3      11879           0.0000000000
     57890     12072  TIP3      OH2            -9.7983260644       12.6571273314      -62.5928822332  TIP3      11880           0.0000000000
     57891     12072  TIP3      H1            -10.1303759900       12.9695614961      -63.4588909905  TIP3      11880           0.0000000000
     57892     12072  TIP3      H2             -9.7229982618       11.6801857468      -62.7062687181  TIP3      11880           0.0000000000
     57893     12073  TIP3      OH2            -4.1016093367       12.5162585098      -65.2071774683  TIP3      11881           0.0000000000
     57894     12073  TIP3      H1             -3.3137043163       13.0990060410      -65.2691607393  TIP3      11881           0.0000000000
     57895     12073  TIP3      H2             -4.8010254325       13.1844949602      -65.1719362610  TIP3      11881           0.0000000000
     57896     12074  TIP3      OH2           -15.5913120818        9.8967558715      -62.6053865513  TIP3      11882           0.0000000000
     57897     12074  TIP3      H1            -15.1770120818        9.0331834861      -62.6978809708  TIP3      11882           0.0000000000
     57898     12074  TIP3      H2            -15.8272855813        9.8992254154      -61.6633659112  TIP3      11882           0.0000000000
     57899     12075  TIP3      OH2           -10.9293090063       11.0350274335      -77.5328443123  TIP3      11883           0.0000000000
     57900     12075  TIP3      H1            -11.4884038773       10.4918602729      -76.9433846815  TIP3      11883           0.0000000000
     57901     12075  TIP3      H2            -10.6554879540       10.3721221516      -78.2135400272  TIP3      11883           0.0000000000
     57902     12076  TIP3      OH2           -11.6955617875        8.8357932110      -65.2521617157  TIP3      11884           0.0000000000
     57903     12076  TIP3      H1            -12.2889961079        9.5548429033      -64.9877978747  TIP3      11884           0.0000000000
     57904     12076  TIP3      H2            -11.2978205220        9.2073218359      -66.0582160157  TIP3      11884           0.0000000000
     57905     12077  TIP3      OH2            -9.8553555886        9.2389967329      -79.3250080679  TIP3      11885           0.0000000000
     57906     12077  TIP3      H1             -9.9988649567        9.1182211528      -80.2764244394  TIP3      11885           0.0000000000
     57907     12077  TIP3      H2             -8.8747089188        9.2973998751      -79.2649548155  TIP3      11885           0.0000000000
     57908     12078  TIP3      OH2            -6.6209816256       11.4080716053      -61.9132021544  TIP3      11886           0.0000000000
     57909     12078  TIP3      H1             -5.6641331159       11.3945769094      -62.0373870561  TIP3      11886           0.0000000000
     57910     12078  TIP3      H2             -6.7927609351       10.6409756788      -61.3442974314  TIP3      11886           0.0000000000
     57911     12079  TIP3      OH2            -0.7350936568       11.7562318367       80.2105497852  TIP3      11887           0.0000000000
     57912     12079  TIP3      H1             -0.8040992651       11.2335061961       79.3838540008  TIP3      11887           0.0000000000
     57913     12079  TIP3      H2             -0.4871995570       12.6323486921       79.8822504688  TIP3      11887           0.0000000000
     57914     12080  TIP3      OH2           -11.2878946411        6.2210539955      -64.1986097854  TIP3      11888           0.0000000000
     57915     12080  TIP3      H1            -11.1722432693        5.5087299343      -64.8553485631  TIP3      11888           0.0000000000
     57916     12080  TIP3      H2            -11.3334822023        7.0297799303      -64.7474012181  TIP3      11888           0.0000000000
     57917     12081  TIP3      OH2           -10.8844288763        4.5987053746      -66.6409042426  TIP3      11889           0.0000000000
     57918     12081  TIP3      H1            -10.3767689737        5.0634696831      -67.3460320153  TIP3      11889           0.0000000000
     57919     12081  TIP3      H2            -11.7785615297        4.5204850902      -67.0449100560  TIP3      11889           0.0000000000
     57920     12082  TIP3      OH2            -9.3476854743       10.0891928702      -66.3978669381  TIP3      11890           0.0000000000
     57921     12082  TIP3      H1             -8.5912517153        9.9231064004      -66.9692697143  TIP3      11890           0.0000000000
     57922     12082  TIP3      H2             -9.7118433198       10.9238684100      -66.7344643999  TIP3      11890           0.0000000000
     57923     12083  TIP3      OH2            -4.9522943477        7.8390719486      -61.4355770886  TIP3      11891           0.0000000000
     57924     12083  TIP3      H1             -4.7158048372        6.9044086999      -61.5268407673  TIP3      11891           0.0000000000
     57925     12083  TIP3      H2             -4.0866317124        8.2825149523      -61.4045968880  TIP3      11891           0.0000000000
     57926     12084  TIP3      OH2            -3.6054585263       10.6375475954      -63.2647095228  TIP3      11892           0.0000000000
     57927     12084  TIP3      H1             -3.8607609094       11.3549335923      -63.8852646291  TIP3      11892           0.0000000000
     57928     12084  TIP3      H2             -2.6503370379       10.6028537216      -63.4578414051  TIP3      11892           0.0000000000
     57929     12085  TIP3      OH2           -12.8270693797        7.4708032265      -62.2750484526  TIP3      11893           0.0000000000
     57930     12085  TIP3      H1            -13.5962198926        6.8888347772      -62.4397930684  TIP3      11893           0.0000000000
     57931     12085  TIP3      H2            -12.1710930927        7.0970161495      -62.8898271960  TIP3      11893           0.0000000000
     57932     12086  TIP3      OH2           -10.0936142678        2.0363547415      -66.2559887233  TIP3      11894           0.0000000000
     57933     12086  TIP3      H1            -10.2799402875        2.9992833406      -66.3484391181  TIP3      11894           0.0000000000
     57934     12086  TIP3      H2            -10.8452551913        1.6688246079      -66.7529964444  TIP3      11894           0.0000000000
     57935     12087  TIP3      OH2            -8.8205915329        6.3627913921      -62.6394980504  TIP3      11895           0.0000000000
     57936     12087  TIP3      H1             -9.1338750770        6.1393293997      -61.7430627667  TIP3      11895           0.0000000000
     57937     12087  TIP3      H2             -9.6104939138        6.1619704070      -63.1687308492  TIP3      11895           0.0000000000
     57938     12088  TIP3      OH2            -6.1047095874        5.5092314241      -63.5316584409  TIP3      11896           0.0000000000
     57939     12088  TIP3      H1             -7.0700141502        5.5626821523      -63.4237098216  TIP3      11896           0.0000000000
     57940     12088  TIP3      H2             -5.8409690751        4.8675578621      -62.8446187810  TIP3      11896           0.0000000000
     57941     12089  TIP3      OH2            -4.5227345364        4.1277583589      -61.6325598276  TIP3      11897           0.0000000000
     57942     12089  TIP3      H1             -4.5703394757        3.1496405890      -61.6024933717  TIP3      11897           0.0000000000
     57943     12089  TIP3      H2             -4.7705083329        4.4196805912      -60.7337526978  TIP3      11897           0.0000000000
     57944     12090  TIP3      OH2           -14.7462336982        5.4053345784      -62.5219326381  TIP3      11898           0.0000000000
     57945     12090  TIP3      H1            -14.4979467822        4.6682539440      -63.1065960584  TIP3      11898           0.0000000000
     57946     12090  TIP3      H2            -14.8476650635        4.9562636202      -61.6602160254  TIP3      11898           0.0000000000
     57947     12091  TIP3      OH2            -9.8810832926        1.4341900783      -63.5425225997  TIP3      11899           0.0000000000
     57948     12091  TIP3      H1             -9.2043408784        0.7263151971      -63.5647367614  TIP3      11899           0.0000000000
     57949     12091  TIP3      H2             -9.9976262995        1.5741363774      -64.5035287377  TIP3      11899           0.0000000000
     57950     12092  TIP3      OH2            -9.5416457825        3.0275919296      -61.4168611642  TIP3      11900           0.0000000000
     57951     12092  TIP3      H1             -9.6881161342        2.5300260435      -62.2609383957  TIP3      11900           0.0000000000
     57952     12092  TIP3      H2            -10.1084389849        3.8089922094      -61.5638179281  TIP3      11900           0.0000000000
     57953     12093  TIP3      OH2           -10.0701149562       19.9373652023      -78.3062936414  TIP3      11901           0.0000000000
     57954     12093  TIP3      H1             -9.0978141485       20.0564706398      -78.1967010294  TIP3      11901           0.0000000000
     57955     12093  TIP3      H2            -10.2371451498       20.6031517347      -78.9728681134  TIP3      11901           0.0000000000
     57956     12094  TIP3      OH2           -16.4838204735       14.5610619567      -78.7855995274  TIP3      11902           0.0000000000
     57957     12094  TIP3      H1            -15.5238812773       14.6676375265      -78.5837580985  TIP3      11902           0.0000000000
     57958     12094  TIP3      H2            -16.4328722860       13.9833725658      -79.5505661018  TIP3      11902           0.0000000000
     57959     12095  TIP3      OH2           -17.7560035042       19.8624512746      -73.7871486231  TIP3      11903           0.0000000000
     57960     12095  TIP3      H1            -18.5022664411       19.3763407043      -74.2374546743  TIP3      11903           0.0000000000
     57961     12095  TIP3      H2            -17.5040142332       19.2010106877      -73.1028340010  TIP3      11903           0.0000000000
     57962     12096  TIP3      OH2           -16.8922987493       18.0548483976      -71.9474310361  TIP3      11904           0.0000000000
     57963     12096  TIP3      H1            -17.2579346854       17.1814873456      -71.7513843016  TIP3      11904           0.0000000000
     57964     12096  TIP3      H2            -16.6690641188       18.3830210785      -71.0568744501  TIP3      11904           0.0000000000
     57965     12097  TIP3      OH2             0.6735878634       18.7901324996      -69.0028192598  TIP3      11905           0.0000000000
     57966     12097  TIP3      H1              0.6768732627       19.0345688596      -68.0658815435  TIP3      11905           0.0000000000
     57967     12097  TIP3      H2              1.2901910450       19.4579609604      -69.3550612009  TIP3      11905           0.0000000000
     57968     12098  TIP3      OH2             0.2063946448       18.4280014539      -66.0445095125  TIP3      11906           0.0000000000
     57969     12098  TIP3      H1             -0.2541670862       17.6651552682      -66.4517128138  TIP3      11906           0.0000000000
     57970     12098  TIP3      H2              0.7104294672       17.9765776233      -65.3499044808  TIP3      11906           0.0000000000
     57971     12099  TIP3      OH2            -1.3382761174       14.1603943834      -61.4003060472  TIP3      11907           0.0000000000
     57972     12099  TIP3      H1             -2.2449257652       14.1330820234      -61.0384720541  TIP3      11907           0.0000000000
     57973     12099  TIP3      H2             -0.9685547061       14.9673753103      -60.9914200816  TIP3      11907           0.0000000000
     57974     12100  TIP3      OH2             0.0784293471       12.7135696274      -75.8296710885  TIP3      11908           0.0000000000
     57975     12100  TIP3      H1              1.0017814681       13.0529970593      -75.7640547446  TIP3      11908           0.0000000000
     57976     12100  TIP3      H2              0.1276401067       12.0643807202      -75.1079372147  TIP3      11908           0.0000000000
     57977     12101  TIP3      OH2             0.2828477861       10.6102113538      -74.1131095731  TIP3      11909           0.0000000000
     57978     12101  TIP3      H1             -0.3951420498       10.0481874648      -73.6631005009  TIP3      11909           0.0000000000
     57979     12101  TIP3      H2              0.9313730431       10.7079459819      -73.3705174312  TIP3      11909           0.0000000000
     57980     12102  TIP3      OH2             0.0927129502       13.2645306651      -69.0970335444  TIP3      11910           0.0000000000
     57981     12102  TIP3      H1              0.9080282282       12.8869702461      -69.4715077782  TIP3      11910           0.0000000000
     57982     12102  TIP3      H2              0.2388281935       14.2178691106      -69.2711197591  TIP3      11910           0.0000000000
     57983     12103  TIP3      OH2            -1.3483879020       16.1743531933      -66.8353610169  TIP3      11911           0.0000000000
     57984     12103  TIP3      H1             -2.0381367103       16.5111284695      -66.2433593539  TIP3      11911           0.0000000000
     57985     12103  TIP3      H2             -1.8967260789       15.7667114373      -67.5404709123  TIP3      11911           0.0000000000
     57986     12104  TIP3      OH2             0.5571525303       10.3937532015      -77.6382461888  TIP3      11912           0.0000000000
     57987     12104  TIP3      H1              0.1043625566       10.7435704846      -78.4416041332  TIP3      11912           0.0000000000
     57988     12104  TIP3      H2              0.8043797675       11.1940379127      -77.1451667187  TIP3      11912           0.0000000000
     57989     12105  TIP3      OH2            -1.4229821692        7.6614189786      -79.0502901437  TIP3      11913           0.0000000000
     57990     12105  TIP3      H1             -0.9801205388        8.2295058779      -79.7041708275  TIP3      11913           0.0000000000
     57991     12105  TIP3      H2             -1.2258160118        6.8220518134      -79.4953262023  TIP3      11913           0.0000000000
     57992     12106  TIP3      OH2            -1.8436766240        9.0610205314      -73.5408933097  TIP3      11914           0.0000000000
     57993     12106  TIP3      H1             -1.9870908121        8.0965858567      -73.5566332008  TIP3      11914           0.0000000000
     57994     12106  TIP3      H2             -2.1642512920        9.2524192318      -72.6325909581  TIP3      11914           0.0000000000
     57995     12107  TIP3      OH2           -16.8172989442       11.2749018788      -69.4553159881  TIP3      11915           0.0000000000
     57996     12107  TIP3      H1            -16.6747819175       11.0282178126      -70.4068897240  TIP3      11915           0.0000000000
     57997     12107  TIP3      H2            -15.9653995916       10.9123618569      -69.1079751836  TIP3      11915           0.0000000000
     57998     12108  TIP3      OH2            -0.9824562347       11.0090427782      -63.8251899270  TIP3      11916           0.0000000000
     57999     12108  TIP3      H1             -0.3728485132       10.2520574744      -63.6929554484  TIP3      11916           0.0000000000
     58000     12108  TIP3      H2             -0.3783732224       11.7819392147      -63.8221691078  TIP3      11916           0.0000000000
     58001     12109  TIP3      OH2             0.5189789158        8.8878726039      -63.1743100719  TIP3      11917           0.0000000000
     58002     12109  TIP3      H1             -0.3640179745        8.4892245796      -63.3292040882  TIP3      11917           0.0000000000
     58003     12109  TIP3      H2              1.0892373210        8.1050063305      -63.2509546238  TIP3      11917           0.0000000000
     58004     12110  TIP3      OH2            -2.1814286749        6.6460625042      -75.0562193718  TIP3      11918           0.0000000000
     58005     12110  TIP3      H1             -1.9044309297        5.7014584167      -74.9404124639  TIP3      11918           0.0000000000
     58006     12110  TIP3      H2             -1.3760839471        7.0001537045      -75.4416070380  TIP3      11918           0.0000000000
     58007     12111  TIP3      OH2            -1.5382162605        7.1692641086      -69.6116254084  TIP3      11919           0.0000000000
     58008     12111  TIP3      H1             -0.5770512271        7.3983310193      -69.6252232193  TIP3      11919           0.0000000000
     58009     12111  TIP3      H2             -1.7279200937        7.3081209748      -68.6718672481  TIP3      11919           0.0000000000
     58010     12112  TIP3      OH2            -1.4687366951        7.8879411701      -66.8245833515  TIP3      11920           0.0000000000
     58011     12112  TIP3      H1             -2.3537990195        8.1782851447      -66.5159907079  TIP3      11920           0.0000000000
     58012     12112  TIP3      H2             -1.0365729938        8.7474609228      -67.0539363011  TIP3      11920           0.0000000000
     58013     12113  TIP3      OH2           -17.2196192547        6.4307854927      -63.2941832695  TIP3      11921           0.0000000000
     58014     12113  TIP3      H1            -16.2808352634        6.2148854829      -63.1094524079  TIP3      11921           0.0000000000
     58015     12113  TIP3      H2            -17.6762671614        5.6044198850      -63.0283051626  TIP3      11921           0.0000000000
     58016     12114  TIP3      OH2             0.8013098936        1.9541770287      -61.4933020223  TIP3      11922           0.0000000000
     58017     12114  TIP3      H1              1.1539661653        1.2930935484      -62.1138402160  TIP3      11922           0.0000000000
     58018     12114  TIP3      H2              0.9034625403        2.7687200423      -62.0253406191  TIP3      11922           0.0000000000
     58019     12115  TIP3      OH2            -1.5084098143        3.9018986056      -75.0276030435  TIP3      11923           0.0000000000
     58020     12115  TIP3      H1             -1.2889858871        3.4730052797      -74.1736123478  TIP3      11923           0.0000000000
     58021     12115  TIP3      H2             -2.1158806303        3.2650314719      -75.4566259371  TIP3      11923           0.0000000000
     58022     12116  TIP3      OH2           -16.0208331764        4.7160249297      -70.4516063115  TIP3      11924           0.0000000000
     58023     12116  TIP3      H1            -15.5606294863        3.8895609168      -70.1964509864  TIP3      11924           0.0000000000
     58024     12116  TIP3      H2            -15.4656771584        5.4038819539      -70.0648350460  TIP3      11924           0.0000000000
     58025     12117  TIP3      OH2           -17.7427676735        7.7039869066      -69.4253928176  TIP3      11925           0.0000000000
     58026     12117  TIP3      H1            -17.1721293526        7.4620082042      -70.1807847267  TIP3      11925           0.0000000000
     58027     12117  TIP3      H2            -17.2698588514        8.4996291872      -69.1465612330  TIP3      11925           0.0000000000
     58028     12118  TIP3      OH2             0.3242157086        4.0515302785      -63.1388264249  TIP3      11926           0.0000000000
     58029     12118  TIP3      H1             -0.6120701685        4.3236186053      -63.1960758142  TIP3      11926           0.0000000000
     58030     12118  TIP3      H2              0.3565535894        3.5004725313      -63.9351746618  TIP3      11926           0.0000000000
     58031     12119  TIP3      OH2             0.3310808013        3.9692016062      -78.4471591046  TIP3      11927           0.0000000000
     58032     12119  TIP3      H1              0.7202926148        3.2582080755      -78.9658979633  TIP3      11927           0.0000000000
     58033     12119  TIP3      H2              1.0394311174        4.6233367665      -78.4595668043  TIP3      11927           0.0000000000
     58034     12120  TIP3      OH2           -17.3856038321        3.9836966425      -75.3448414383  TIP3      11928           0.0000000000
     58035     12120  TIP3      H1            -18.3256128632        4.1665195054      -75.4943971551  TIP3      11928           0.0000000000
     58036     12120  TIP3      H2            -16.9574250666        4.4722291057      -76.0650247676  TIP3      11928           0.0000000000
     58037     12121  TIP3      OH2            -2.6439613863       18.9084787170      -73.3829577478  TIP3      11929           0.0000000000
     58038     12121  TIP3      H1             -1.9465816568       18.6377571201      -74.0066504536  TIP3      11929           0.0000000000
     58039     12121  TIP3      H2             -2.1302187217       19.4433364798      -72.7496298937  TIP3      11929           0.0000000000
     58040     12122  TIP3      OH2           -17.4246037878        2.6293048369      -67.0493854607  TIP3      11930           0.0000000000
     58041     12122  TIP3      H1            -18.0915967343        2.4394555503      -66.3665446026  TIP3      11930           0.0000000000
     58042     12122  TIP3      H2            -17.8815600764        3.3059517984      -67.5886759907  TIP3      11930           0.0000000000
     58043     12123  TIP3      OH2           -15.1816272168       15.8235516118      -62.8825113843  TIP3      11931           0.0000000000
     58044     12123  TIP3      H1            -16.0172210558       16.0605259047      -63.3165242082  TIP3      11931           0.0000000000
     58045     12123  TIP3      H2            -15.4485103988       15.7552161070      -61.9631052247  TIP3      11931           0.0000000000
     58046     12124  TIP3      OH2           -12.3109870287       16.8238509830      -66.6371874562  TIP3      11932           0.0000000000
     58047     12124  TIP3      H1            -12.6035196237       17.7178466562      -66.8693800373  TIP3      11932           0.0000000000
     58048     12124  TIP3      H2            -11.3712028132       16.9156379738      -66.9051143450  TIP3      11932           0.0000000000
     58049     12125  TIP3      OH2            -7.9629302773       18.2607705434      -63.7000551230  TIP3      11933           0.0000000000
     58050     12125  TIP3      H1             -7.8175198393       17.9113376381      -62.7892674857  TIP3      11933           0.0000000000
     58051     12125  TIP3      H2             -7.0616390632       18.5648447184      -63.9461698874  TIP3      11933           0.0000000000
     58052     12126  TIP3      OH2            -5.6793091363       19.5274833949      -64.3894918887  TIP3      11934           0.0000000000
     58053     12126  TIP3      H1             -4.9467355406       18.9452604877      -64.6295964112  TIP3      11934           0.0000000000
     58054     12126  TIP3      H2             -5.3024170502       19.9666630586      -63.5968828416  TIP3      11934           0.0000000000
     58055     12127  TIP3      OH2            -0.6571219154        2.1424784122      -65.2844066760  TIP3      11935           0.0000000000
     58056     12127  TIP3      H1             -1.4857431086        2.4413498827      -65.6969071468  TIP3      11935           0.0000000000
     58057     12127  TIP3      H2             -0.4894051307        1.3196645461      -65.8020155446  TIP3      11935           0.0000000000
     58058     12128  TIP3      OH2           -14.8604501303       20.0766591953      -66.6137263976  TIP3      11936           0.0000000000
     58059     12128  TIP3      H1            -15.5957364155       20.5700734882      -67.0119804382  TIP3      11936           0.0000000000
     58060     12128  TIP3      H2            -15.1722673659       19.8846681022      -65.7169355062  TIP3      11936           0.0000000000
     58061     12129  TIP3      OH2           -12.3976493487       19.6474531206      -67.5468697193  TIP3      11937           0.0000000000
     58062     12129  TIP3      H1            -13.2836983884       19.8117065231      -67.1470553663  TIP3      11937           0.0000000000
     58063     12129  TIP3      H2            -12.4467701247       20.2441168229      -68.3143859436  TIP3      11937           0.0000000000
     58064     12130  TIP3      OH2            -7.6865059192       19.5644656486      -68.3629416264  TIP3      11938           0.0000000000
     58065     12130  TIP3      H1             -8.1467929714       20.1174197562      -69.0142034726  TIP3      11938           0.0000000000
     58066     12130  TIP3      H2             -7.5512170729       20.2024104661      -67.6273458634  TIP3      11938           0.0000000000
     58067     12131  TIP3      OH2            -5.3991948479       18.3711758576      -67.3373914308  TIP3      11939           0.0000000000
     58068     12131  TIP3      H1             -6.2512521819       18.6508835808      -67.7098994543  TIP3      11939           0.0000000000
     58069     12131  TIP3      H2             -4.9108291455       19.2079388760      -67.4305221489  TIP3      11939           0.0000000000
     58070     12132  TIP3      OH2            -2.8356634486       19.9429925984      -67.1085441306  TIP3      11940           0.0000000000
     58071     12132  TIP3      H1             -2.8700392840       20.9089477914      -67.3254089534  TIP3      11940           0.0000000000
     58072     12132  TIP3      H2             -2.5907648069       19.5812516571      -67.9857326696  TIP3      11940           0.0000000000
     58073     12133  TIP3      OH2           -15.4199187819       18.6962242039      -69.6996583415  TIP3      11941           0.0000000000
     58074     12133  TIP3      H1            -15.4785455193       18.2996113679      -68.8059366209  TIP3      11941           0.0000000000
     58075     12133  TIP3      H2            -14.5685903779       18.3527538749      -70.0491453103  TIP3      11941           0.0000000000
     58076     12134  TIP3      OH2           -13.3380918687       17.4275747643      -71.0028052733  TIP3      11942           0.0000000000
     58077     12134  TIP3      H1            -13.4833050856       16.4925488961      -70.7877720078  TIP3      11942           0.0000000000
     58078     12134  TIP3      H2            -12.4762051579       17.5885525635      -70.5623552735  TIP3      11942           0.0000000000
     58079     12135  TIP3      OH2           -10.7196369590       17.9137948851      -70.1438841461  TIP3      11943           0.0000000000
     58080     12135  TIP3      H1            -10.5606241773       16.9861133338      -70.4011037234  TIP3      11943           0.0000000000
     58081     12135  TIP3      H2            -10.6763065435       17.8618333079      -69.1776888512  TIP3      11943           0.0000000000
     58082     12136  TIP3      OH2            -7.2695986050        3.5738266016      -71.0068626389  TIP3      11944           0.0000000000
     58083     12136  TIP3      H1             -7.9421372083        2.9327934156      -70.7207599957  TIP3      11944           0.0000000000
     58084     12136  TIP3      H2             -6.7143421777        3.0363424899      -71.5837646407  TIP3      11944           0.0000000000
     58085     12137  TIP3      OH2            -2.1314316911        1.6162313212      -70.9386728413  TIP3      11945           0.0000000000
     58086     12137  TIP3      H1             -1.5196706513        2.2095505232      -71.4447052763  TIP3      11945           0.0000000000
     58087     12137  TIP3      H2             -3.0138447904        1.9779255373      -71.1672891482  TIP3      11945           0.0000000000
     58088     12138  TIP3      OH2            -0.4623556111        2.8681828474      -72.6590655286  TIP3      11946           0.0000000000
     58089     12138  TIP3      H1              0.2245820405        2.2894089040      -73.0696850923  TIP3      11946           0.0000000000
     58090     12138  TIP3      H2              0.0444632769        3.7033833721      -72.5527263293  TIP3      11946           0.0000000000
     58091     12139  TIP3      OH2           -14.8957624071        2.1947855909      -73.1520710446  TIP3      11947           0.0000000000
     58092     12139  TIP3      H1            -15.6922102925        2.0006013358      -73.6819876565  TIP3      11947           0.0000000000
     58093     12139  TIP3      H2            -14.4402319452        1.3331431176      -73.2075478721  TIP3      11947           0.0000000000
     58094     12140  TIP3      OH2           -16.1449682437        1.9492505237      -77.4219857806  TIP3      11948           0.0000000000
     58095     12140  TIP3      H1            -15.6402253877        2.5897738628      -77.9641195360  TIP3      11948           0.0000000000
     58096     12140  TIP3      H2            -16.6929712584        2.5189084012      -76.8527866266  TIP3      11948           0.0000000000
     58097     12141  TIP3      OH2           -10.4281895038        2.1200534191      -73.3648506935  TIP3      11949           0.0000000000
     58098     12141  TIP3      H1             -9.5288360197        2.4795427073      -73.4390540592  TIP3      11949           0.0000000000
     58099     12141  TIP3      H2            -10.4603465605        1.9013667734      -72.4350580046  TIP3      11949           0.0000000000
     58100     12142  TIP3      OH2            -4.7107601493        2.1380782715      -71.7417357563  TIP3      11950           0.0000000000
     58101     12142  TIP3      H1             -4.7610341857        2.2546145665      -72.6981357766  TIP3      11950           0.0000000000
     58102     12142  TIP3      H2             -5.0904910730        1.2338103642      -71.6171197748  TIP3      11950           0.0000000000
     58103     12143  TIP3      OH2            -3.4470324617        2.1638209002      -76.0862573328  TIP3      11951           0.0000000000
     58104     12143  TIP3      H1             -4.1889638752        2.7677087831      -76.2366536286  TIP3      11951           0.0000000000
     58105     12143  TIP3      H2             -3.8869078946        1.3125899110      -75.8613364783  TIP3      11951           0.0000000000
     58106     12144  TIP3      OH2           -16.2130821767       17.9020009432      -76.4090277303  TIP3      11952           0.0000000000
     58107     12144  TIP3      H1            -16.8775719736       17.8597494851      -77.1344528922  TIP3      11952           0.0000000000
     58108     12144  TIP3      H2            -16.1850272622       18.8467751403      -76.3125452782  TIP3      11952           0.0000000000
     58109     12145  TIP3      OH2           -14.2972996368        3.8034008178      -78.9023677350  TIP3      11953           0.0000000000
     58110     12145  TIP3      H1            -13.7285353610        3.2625415659      -79.4535446822  TIP3      11953           0.0000000000
     58111     12145  TIP3      H2            -13.6535351025        4.2225557436      -78.2986252511  TIP3      11953           0.0000000000
     58112     12146  TIP3      OH2            -9.2917294954        4.1160373566      -76.4918566998  TIP3      11954           0.0000000000
     58113     12146  TIP3      H1             -9.0062131205        3.5572169047      -75.7532576218  TIP3      11954           0.0000000000
     58114     12146  TIP3      H2             -9.2093011800        4.9910942244      -76.0470581692  TIP3      11954           0.0000000000
     58115     12147  TIP3      OH2            -7.3728277885       19.5279502624      -78.0382672087  TIP3      11955           0.0000000000
     58116     12147  TIP3      H1             -6.4066428847       19.4971735844      -78.1987293223  TIP3      11955           0.0000000000
     58117     12147  TIP3      H2             -7.5451467309       18.7933756053      -78.6737502004  TIP3      11955           0.0000000000
     58118     12148  TIP3      OH2            -0.6532059544       18.7054002677      -75.3724409018  TIP3      11956           0.0000000000
     58119     12148  TIP3      H1             -0.8477594166       17.9271873710      -75.9450658509  TIP3      11956           0.0000000000
     58120     12148  TIP3      H2             -0.7375134480       19.4458002084      -76.0097518586  TIP3      11956           0.0000000000
     58121     12149  TIP3      OH2           -15.0108152355        2.7362979088      -63.7066372875  TIP3      11957           0.0000000000
     58122     12149  TIP3      H1            -15.4021840975        1.9414968423      -63.2975184018  TIP3      11957           0.0000000000
     58123     12149  TIP3      H2            -14.1035558458        2.6957969313      -63.3272009086  TIP3      11957           0.0000000000
     58124     12150  TIP3      OH2           -13.0055787258        2.1357762548      -62.0169614173  TIP3      11958           0.0000000000
     58125     12150  TIP3      H1            -12.1246808291        1.7915799844      -62.2703329481  TIP3      11958           0.0000000000
     58126     12150  TIP3      H2            -13.3890369484        1.3102075704      -61.6619016626  TIP3      11958           0.0000000000
     58127     12151  TIP3      OH2           -14.3504132107       18.8842486587      -79.4589698729  TIP3      11959           0.0000000000
     58128     12151  TIP3      H1            -14.6617461068       19.1426578202      -78.5897499844  TIP3      11959           0.0000000000
     58129     12151  TIP3      H2            -13.6083636843       18.3100171893      -79.2761708380  TIP3      11959           0.0000000000
     58130     12152  TIP3      OH2            -4.6145381387        1.4123590159      -61.8987487934  TIP3      11960           0.0000000000
     58131     12152  TIP3      H1             -4.5159670984        0.9320912152      -61.0547883688  TIP3      11960           0.0000000000
     58132     12152  TIP3      H2             -3.6992536345        1.3734599413      -62.2502171127  TIP3      11960           0.0000000000
     58133     12153  TIP3      OH2            -1.3986617159       17.4557601481      -63.2755588618  TIP3      11961           0.0000000000
     58134     12153  TIP3      H1             -2.2020851263       17.3209986666      -63.8237504993  TIP3      11961           0.0000000000
     58135     12153  TIP3      H2             -1.5153766998       18.4036326509      -63.0613108605  TIP3      11961           0.0000000000
     58136     12154  TIP3      OH2            13.0327690869       11.3320605807      -73.2939362016  TIP3      11962           0.0000000000
     58137     12154  TIP3      H1             13.0299032803       12.3118326415      -73.3302177921  TIP3      11962           0.0000000000
     58138     12154  TIP3      H2             12.3200215555       11.1124393903      -73.9074380806  TIP3      11962           0.0000000000
     58139     12155  TIP3      OH2            11.9003534663       10.5936526117      -69.7918755738  TIP3      11963           0.0000000000
     58140     12155  TIP3      H1             11.8912504136        9.9419979936      -69.0761627233  TIP3      11963           0.0000000000
     58141     12155  TIP3      H2             11.5669275442       10.0847902821      -70.5425755879  TIP3      11963           0.0000000000
     58142     12156  TIP3      OH2             4.2552074856       10.2660098096      -68.2442293402  TIP3      11964           0.0000000000
     58143     12156  TIP3      H1              4.3368471101        9.5787818586      -67.5496993119  TIP3      11964           0.0000000000
     58144     12156  TIP3      H2              5.0025880761       10.8374453906      -68.0175190486  TIP3      11964           0.0000000000
     58145     12157  TIP3      OH2            15.5864038406       13.5384631065      -71.5114152078  TIP3      11965           0.0000000000
     58146     12157  TIP3      H1             15.1736079604       12.8213889961      -71.0198284412  TIP3      11965           0.0000000000
     58147     12157  TIP3      H2             15.6117890322       14.2461390936      -70.8404489208  TIP3      11965           0.0000000000
     58148     12158  TIP3      OH2             5.1792402975       14.7131059674      -69.7428584273  TIP3      11966           0.0000000000
     58149     12158  TIP3      H1              4.8671371305       13.8442482868      -70.0611963556  TIP3      11966           0.0000000000
     58150     12158  TIP3      H2              6.1350968471       14.5314960773      -69.6968987257  TIP3      11966           0.0000000000
     58151     12159  TIP3      OH2             1.8250061367        8.2724006102      -74.2589513310  TIP3      11967           0.0000000000
     58152     12159  TIP3      H1              1.4017040881        9.1432267911      -74.2910882485  TIP3      11967           0.0000000000
     58153     12159  TIP3      H2              1.2534154955        7.7145536595      -74.8083841783  TIP3      11967           0.0000000000
     58154     12160  TIP3      OH2             2.5120208843       10.4820507823      -72.1446743099  TIP3      11968           0.0000000000
     58155     12160  TIP3      H1              2.8001670952        9.6862193808      -71.6556658749  TIP3      11968           0.0000000000
     58156     12160  TIP3      H2              3.2494127832       10.6113406228      -72.7551797852  TIP3      11968           0.0000000000
     58157     12161  TIP3      OH2            12.7095066463       18.6959999416      -71.2765850685  TIP3      11969           0.0000000000
     58158     12161  TIP3      H1             13.3662240234       18.0144200366      -71.5696577921  TIP3      11969           0.0000000000
     58159     12161  TIP3      H2             12.4940978332       18.3570468165      -70.4072455201  TIP3      11969           0.0000000000
     58160     12162  TIP3      OH2            10.2762269899       12.9851225066      -69.3209756311  TIP3      11970           0.0000000000
     58161     12162  TIP3      H1             10.6147581624       12.3621426525      -69.9821508871  TIP3      11970           0.0000000000
     58162     12162  TIP3      H2             11.0872958861       13.1467635721      -68.8078122819  TIP3      11970           0.0000000000
     58163     12163  TIP3      OH2            18.8698153593        4.6535367995      -68.6003495409  TIP3      11971           0.0000000000
     58164     12163  TIP3      H1             19.0503315334        5.2377703962      -67.8325287784  TIP3      11971           0.0000000000
     58165     12163  TIP3      H2             19.4422123822        5.0705285633      -69.2601359687  TIP3      11971           0.0000000000
     58166     12164  TIP3      OH2            13.4427657743        7.4586349514      -69.0098393676  TIP3      11972           0.0000000000
     58167     12164  TIP3      H1             13.6113062821        6.4995815567      -69.0036916922  TIP3      11972           0.0000000000
     58168     12164  TIP3      H2             13.3398860392        7.5973307957      -69.9711432031  TIP3      11972           0.0000000000
     58169     12165  TIP3      OH2             6.5705248914        5.5453172851      -71.8045130585  TIP3      11973           0.0000000000
     58170     12165  TIP3      H1              6.6287121674        6.3861921905      -72.2754959005  TIP3      11973           0.0000000000
     58171     12165  TIP3      H2              6.1461029855        4.9595645110      -72.4702616929  TIP3      11973           0.0000000000
     58172     12166  TIP3      OH2            14.3053376244        5.6241689176      -73.4310930144  TIP3      11974           0.0000000000
     58173     12166  TIP3      H1             14.9518774343        5.3142229993      -72.7553359176  TIP3      11974           0.0000000000
     58174     12166  TIP3      H2             14.8668327736        6.2014547889      -73.9733191892  TIP3      11974           0.0000000000
     58175     12167  TIP3      OH2             3.1816413391        7.9597152050      -71.0583270847  TIP3      11975           0.0000000000
     58176     12167  TIP3      H1              3.8512747488        7.4131036684      -70.6050207152  TIP3      11975           0.0000000000
     58177     12167  TIP3      H2              3.2769125331        7.6432187533      -71.9688219318  TIP3      11975           0.0000000000
     58178     12168  TIP3      OH2             8.3962379429        9.4881107467      -71.8294859626  TIP3      11976           0.0000000000
     58179     12168  TIP3      H1              9.0071890101        8.9367992905      -71.3038421336  TIP3      11976           0.0000000000
     58180     12168  TIP3      H2              7.7738404889        8.8233206106      -72.1600204217  TIP3      11976           0.0000000000
     58181     12169  TIP3      OH2            19.3131844090        6.0542100306      -66.3208598750  TIP3      11977           0.0000000000
     58182     12169  TIP3      H1             18.7088193005        6.8204376540      -66.4331011383  TIP3      11977           0.0000000000
     58183     12169  TIP3      H2             19.3465601731        5.9751959108      -65.3610663514  TIP3      11977           0.0000000000
     58184     12170  TIP3      OH2             5.4675223392        4.4465286079      -67.7549248251  TIP3      11978           0.0000000000
     58185     12170  TIP3      H1              5.1850224212        5.0183265624      -68.4996755961  TIP3      11978           0.0000000000
     58186     12170  TIP3      H2              4.7901512549        4.6744197220      -67.0722062120  TIP3      11978           0.0000000000
     58187     12171  TIP3      OH2            12.7501288987       13.9220312095      -74.2105508455  TIP3      11979           0.0000000000
     58188     12171  TIP3      H1             12.4950444422       13.6635515001      -75.1103896376  TIP3      11979           0.0000000000
     58189     12171  TIP3      H2             12.4489702893       14.8554412563      -74.1583105543  TIP3      11979           0.0000000000
     58190     12172  TIP3      OH2             7.9766806146       12.0868665191      -67.5196624071  TIP3      11980           0.0000000000
     58191     12172  TIP3      H1              7.2750387762       12.7331337407      -67.2934153652  TIP3      11980           0.0000000000
     58192     12172  TIP3      H2              8.6853277303       12.6862305763      -67.8054332019  TIP3      11980           0.0000000000
     58193     12173  TIP3      OH2            16.1071903217        4.9748021243      -71.4305822684  TIP3      11981           0.0000000000
     58194     12173  TIP3      H1             15.8863885839        4.2050656902      -70.8986429986  TIP3      11981           0.0000000000
     58195     12173  TIP3      H2             16.7781381312        5.4091738360      -70.8768186163  TIP3      11981           0.0000000000
     58196     12174  TIP3      OH2             5.0343207179        6.3023948759      -69.7186608720  TIP3      11982           0.0000000000
     58197     12174  TIP3      H1              5.6637051759        6.9907601373      -69.4100066571  TIP3      11982           0.0000000000
     58198     12174  TIP3      H2              5.5549511072        5.8785821120      -70.4431001888  TIP3      11982           0.0000000000
     58199     12175  TIP3      OH2             6.4285584604       14.0947991721      -66.6950435855  TIP3      11983           0.0000000000
     58200     12175  TIP3      H1              6.3788660165       15.0080293480      -67.0325635104  TIP3      11983           0.0000000000
     58201     12175  TIP3      H2              5.5459690444       14.0143606459      -66.2522515972  TIP3      11983           0.0000000000
     58202     12176  TIP3      OH2             2.4991002035       13.7040147594      -75.9199889181  TIP3      11984           0.0000000000
     58203     12176  TIP3      H1              2.3063850503       14.0761660402      -76.8048652946  TIP3      11984           0.0000000000
     58204     12176  TIP3      H2              2.5957003833       14.5284819184      -75.3891270060  TIP3      11984           0.0000000000
     58205     12177  TIP3      OH2            16.1159924355       15.3765599093      -69.1431888679  TIP3      11985           0.0000000000
     58206     12177  TIP3      H1             15.1479491702       15.4880249794      -69.0233116194  TIP3      11985           0.0000000000
     58207     12177  TIP3      H2             16.3849089737       16.2920040933      -69.3460560339  TIP3      11985           0.0000000000
     58208     12178  TIP3      OH2            16.4387726017        3.6580944812      -67.7548112431  TIP3      11986           0.0000000000
     58209     12178  TIP3      H1             15.7151684457        4.2917383287      -67.8472930068  TIP3      11986           0.0000000000
     58210     12178  TIP3      H2             17.1531954466        4.0772117779      -68.2774159136  TIP3      11986           0.0000000000
     58211     12179  TIP3      OH2             9.4037240192        1.7810004099      -70.2893931386  TIP3      11987           0.0000000000
     58212     12179  TIP3      H1              9.2601856616        0.8174045557      -70.3646324302  TIP3      11987           0.0000000000
     58213     12179  TIP3      H2              8.5257639674        2.0862609538      -69.9818891195  TIP3      11987           0.0000000000
     58214     12180  TIP3      OH2            14.3697425362       17.1527429719      -72.5565761270  TIP3      11988           0.0000000000
     58215     12180  TIP3      H1             14.8047708306       16.4397802908      -73.0663057210  TIP3      11988           0.0000000000
     58216     12180  TIP3      H2             14.8175930960       17.9434156393      -72.9300069088  TIP3      11988           0.0000000000
     58217     12181  TIP3      OH2            15.5893499817       15.0780527182      -74.0411615744  TIP3      11989           0.0000000000
     58218     12181  TIP3      H1             15.2907509601       14.3918821671      -74.6612388110  TIP3      11989           0.0000000000
     58219     12181  TIP3      H2             15.6145845537       14.5845835331      -73.2000432803  TIP3      11989           0.0000000000
     58220     12182  TIP3      OH2            17.2017517665       13.6841076347      -65.5434846290  TIP3      11990           0.0000000000
     58221     12182  TIP3      H1             17.3509852806       13.0291418700      -66.2611278469  TIP3      11990           0.0000000000
     58222     12182  TIP3      H2             17.4107666455       14.5253467557      -65.9889382459  TIP3      11990           0.0000000000
     58223     12183  TIP3      OH2            11.6678234413       10.5507627751      -75.8194994807  TIP3      11991           0.0000000000
     58224     12183  TIP3      H1             11.0331190767       11.2001744209      -76.1910412986  TIP3      11991           0.0000000000
     58225     12183  TIP3      H2             12.4224246956       10.6703867155      -76.4353459740  TIP3      11991           0.0000000000
     58226     12184  TIP3      OH2            11.6986744805        9.0543400769      -78.6564794454  TIP3      11992           0.0000000000
     58227     12184  TIP3      H1             12.4977355345        9.1374851271      -78.1145996930  TIP3      11992           0.0000000000
     58228     12184  TIP3      H2             12.0534264622        8.4834726843      -79.3403950742  TIP3      11992           0.0000000000
     58229     12185  TIP3      OH2            19.0918792102        9.9948168839      -67.5000759332  TIP3      11993           0.0000000000
     58230     12185  TIP3      H1             18.4344783025       10.7184258558      -67.4611278217  TIP3      11993           0.0000000000
     58231     12185  TIP3      H2             19.5868411951       10.2283127044      -68.3062365685  TIP3      11993           0.0000000000
     58232     12186  TIP3      OH2            15.1429846163       10.7849270080      -74.8362111659  TIP3      11994           0.0000000000
     58233     12186  TIP3      H1             14.3999329044       11.0267587917      -74.2333737683  TIP3      11994           0.0000000000
     58234     12186  TIP3      H2             15.6234924108       10.1090307700      -74.3218621648  TIP3      11994           0.0000000000
     58235     12187  TIP3      OH2            15.0798736377        8.9468787910      -65.7327130767  TIP3      11995           0.0000000000
     58236     12187  TIP3      H1             15.0872136127        9.7665393133      -65.2108733720  TIP3      11995           0.0000000000
     58237     12187  TIP3      H2             14.4504165124        9.2387590390      -66.4247158354  TIP3      11995           0.0000000000
     58238     12188  TIP3      OH2             6.7568613752       11.4299349270      -72.9488513256  TIP3      11996           0.0000000000
     58239     12188  TIP3      H1              6.4235147023       11.0574259002      -73.7954797714  TIP3      11996           0.0000000000
     58240     12188  TIP3      H2              7.3711324153       10.7569728049      -72.5893150004  TIP3      11996           0.0000000000
     58241     12189  TIP3      OH2             8.0787986207       14.8212483369      -70.2610385299  TIP3      11997           0.0000000000
     58242     12189  TIP3      H1              8.0780613439       14.3009378620      -71.0736131326  TIP3      11997           0.0000000000
     58243     12189  TIP3      H2              8.8637855249       14.4687044705      -69.8027023283  TIP3      11997           0.0000000000
     58244     12190  TIP3      OH2             7.0961990785       10.1797557738      -69.2984298034  TIP3      11998           0.0000000000
     58245     12190  TIP3      H1              7.6531240792       10.3084533482      -70.0790527317  TIP3      11998           0.0000000000
     58246     12190  TIP3      H2              7.4717197360       10.8427329695      -68.6740144482  TIP3      11998           0.0000000000
     58247     12191  TIP3      OH2            13.5143791241       15.7596532148      -68.5711229593  TIP3      11999           0.0000000000
     58248     12191  TIP3      H1             13.2206169808       16.3966962790      -67.9140201592  TIP3      11999           0.0000000000
     58249     12191  TIP3      H2             13.2544805254       14.9073569468      -68.1501165315  TIP3      11999           0.0000000000
     58250     12192  TIP3      OH2             8.0443883546       14.6186160325      -64.5841054628  TIP3      12000           0.0000000000
     58251     12192  TIP3      H1              7.6294018874       15.3574675922      -64.0937831423  TIP3      12000           0.0000000000
     58252     12192  TIP3      H2              7.3719997346       14.4187285323      -65.2813045311  TIP3      12000           0.0000000000
     58253     12193  TIP3      OH2            14.0333182957        9.9623216610      -77.1779761470  TIP3      12001           0.0000000000
     58254     12193  TIP3      H1             14.5734286530       10.1599965966      -76.3758328495  TIP3      12001           0.0000000000
     58255     12193  TIP3      H2             14.4448430463       10.5191423409      -77.8672075210  TIP3      12001           0.0000000000
     58256     12194  TIP3      OH2             4.9865718305       10.7781029974      -65.4319421160  TIP3      12002           0.0000000000
     58257     12194  TIP3      H1              5.0391775297       11.4457291452      -64.7222117500  TIP3      12002           0.0000000000
     58258     12194  TIP3      H2              4.0435559494       10.8657186387      -65.6416977514  TIP3      12002           0.0000000000
     58259     12195  TIP3      OH2            11.7313678256       16.7008256997      -73.7097005174  TIP3      12003           0.0000000000
     58260     12195  TIP3      H1             12.1695706862       17.0184839125      -72.9122808031  TIP3      12003           0.0000000000
     58261     12195  TIP3      H2             11.1840823008       17.4511585600      -73.9719688359  TIP3      12003           0.0000000000
     58262     12196  TIP3      OH2             6.2909673008       16.6523391468      -63.8372559300  TIP3      12004           0.0000000000
     58263     12196  TIP3      H1              6.2299244848       16.5540428397      -64.8028641538  TIP3      12004           0.0000000000
     58264     12196  TIP3      H2              5.3609770139       16.5191799024      -63.5699029307  TIP3      12004           0.0000000000
     58265     12197  TIP3      OH2            17.7578704141        1.7298193165      -77.2789748054  TIP3      12005           0.0000000000
     58266     12197  TIP3      H1             16.7979571586        1.8204383014      -77.0813681847  TIP3      12005           0.0000000000
     58267     12197  TIP3      H2             17.9476574847        2.5721651832      -77.7278534610  TIP3      12005           0.0000000000
     58268     12198  TIP3      OH2             5.7696975689       10.4187279523      -75.3536689047  TIP3      12006           0.0000000000
     58269     12198  TIP3      H1              5.4634510248       11.2292788544      -75.8267214854  TIP3      12006           0.0000000000
     58270     12198  TIP3      H2              5.0481194146        9.8152068662      -75.5590993219  TIP3      12006           0.0000000000
     58271     12199  TIP3      OH2            18.8242174536       16.0409759892      -78.9450582986  TIP3      12007           0.0000000000
     58272     12199  TIP3      H1             18.9537445146       17.0057425293      -78.8219557247  TIP3      12007           0.0000000000
     58273     12199  TIP3      H2             19.7596991600       15.7776698477      -78.9766005796  TIP3      12007           0.0000000000
     58274     12200  TIP3      OH2             1.8163235806       12.8933587190      -66.4239081313  TIP3      12008           0.0000000000
     58275     12200  TIP3      H1              1.3767096214       12.8143173087      -67.2914618819  TIP3      12008           0.0000000000
     58276     12200  TIP3      H2              1.9015137194       11.9439960943      -66.2116784636  TIP3      12008           0.0000000000
     58277     12201  TIP3      OH2             1.5796269340       15.6337964836      -69.6498434657  TIP3      12009           0.0000000000
     58278     12201  TIP3      H1              2.5380511419       15.5157486426      -69.6707033561  TIP3      12009           0.0000000000
     58279     12201  TIP3      H2              1.4979860428       16.4626902842      -69.1575574670  TIP3      12009           0.0000000000
     58280     12202  TIP3      OH2            19.8227905701       16.3345175648      -63.9587695251  TIP3      12010           0.0000000000
     58281     12202  TIP3      H1             19.7029537507       15.3737954599      -63.9894628318  TIP3      12010           0.0000000000
     58282     12202  TIP3      H2             18.9473958623       16.5810709369      -63.5760251563  TIP3      12010           0.0000000000
     58283     12203  TIP3      OH2            10.7773282954       15.8721096020      -65.1004817584  TIP3      12011           0.0000000000
     58284     12203  TIP3      H1             10.8365442901       16.7143429958      -64.5911874674  TIP3      12011           0.0000000000
     58285     12203  TIP3      H2              9.9049504479       15.5127675619      -64.8485014707  TIP3      12011           0.0000000000
     58286     12204  TIP3      OH2            11.1983597748       19.6115130103      -75.3230610711  TIP3      12012           0.0000000000
     58287     12204  TIP3      H1             11.1279548271       19.5667513572      -76.2946642613  TIP3      12012           0.0000000000
     58288     12204  TIP3      H2             11.2507007700       20.5717421501      -75.1421317127  TIP3      12012           0.0000000000
     58289     12205  TIP3      OH2             4.8593973999       18.4897782863      -73.4904081839  TIP3      12013           0.0000000000
     58290     12205  TIP3      H1              5.0036403727       18.0840682247      -72.6072584745  TIP3      12013           0.0000000000
     58291     12205  TIP3      H2              3.9953041804       18.1030758853      -73.7113635320  TIP3      12013           0.0000000000
     58292     12206  TIP3      OH2            14.2152249618       18.8078305312      -78.3314627569  TIP3      12014           0.0000000000
     58293     12206  TIP3      H1             14.7223525302       18.0853654538      -78.7700424982  TIP3      12014           0.0000000000
     58294     12206  TIP3      H2             14.3601351703       18.5893412350      -77.3908926495  TIP3      12014           0.0000000000
     58295     12207  TIP3      OH2            13.9626648040       18.7673723889      -75.5467541372  TIP3      12015           0.0000000000
     58296     12207  TIP3      H1             13.0065603713       18.8284842913      -75.3598087455  TIP3      12015           0.0000000000
     58297     12207  TIP3      H2             14.2182191387       18.0302847151      -74.9705419951  TIP3      12015           0.0000000000
     58298     12208  TIP3      OH2            16.9674089039        7.7996322702      -63.4928735982  TIP3      12016           0.0000000000
     58299     12208  TIP3      H1             16.4916195144        8.2505286887      -64.2093907259  TIP3      12016           0.0000000000
     58300     12208  TIP3      H2             16.9523218456        6.8802041292      -63.7976099121  TIP3      12016           0.0000000000
     58301     12209  TIP3      OH2             4.1083772384       14.2102542981      -65.4870401533  TIP3      12017           0.0000000000
     58302     12209  TIP3      H1              4.3296764676       13.8446561808      -64.6054938678  TIP3      12017           0.0000000000
     58303     12209  TIP3      H2              3.2391742731       13.8117076187      -65.6998032842  TIP3      12017           0.0000000000
     58304     12210  TIP3      OH2             6.7874900307        2.6877590648      -69.5447798805  TIP3      12018           0.0000000000
     58305     12210  TIP3      H1              5.8837613045        2.5565231417      -69.9052694716  TIP3      12018           0.0000000000
     58306     12210  TIP3      H2              6.6534259811        3.5138387898      -69.0518805229  TIP3      12018           0.0000000000
     58307     12211  TIP3      OH2            11.4317923312        2.3482029724      -66.1779056457  TIP3      12019           0.0000000000
     58308     12211  TIP3      H1             11.8238428471        1.9259815016      -65.3907876934  TIP3      12019           0.0000000000
     58309     12211  TIP3      H2             10.4596371504        2.2332954925      -66.0309530177  TIP3      12019           0.0000000000
     58310     12212  TIP3      OH2            14.7194075654        6.1971382269      -65.2746104122  TIP3      12020           0.0000000000
     58311     12212  TIP3      H1             14.1539424222        5.9821448426      -64.4938410774  TIP3      12020           0.0000000000
     58312     12212  TIP3      H2             14.5342181675        7.1241128779      -65.5037871696  TIP3      12020           0.0000000000
     58313     12213  TIP3      OH2            15.5581206568       11.1108547393      -79.3187418645  TIP3      12021           0.0000000000
     58314     12213  TIP3      H1             15.5536008525       10.8810998466      -80.2627546152  TIP3      12021           0.0000000000
     58315     12213  TIP3      H2             16.4542496472       11.4902216736      -79.2256676777  TIP3      12021           0.0000000000
     58316     12214  TIP3      OH2            11.0431285500        4.9497322679      -78.8249826433  TIP3      12022           0.0000000000
     58317     12214  TIP3      H1             10.7648317770        4.8589605512      -77.8997217180  TIP3      12022           0.0000000000
     58318     12214  TIP3      H2             10.8334205017        4.0593578221      -79.1322028336  TIP3      12022           0.0000000000
     58319     12215  TIP3      OH2             6.8931759224        7.6609093364      -68.2770217690  TIP3      12023           0.0000000000
     58320     12215  TIP3      H1              6.1510866634        7.6474148607      -67.6458607941  TIP3      12023           0.0000000000
     58321     12215  TIP3      H2              6.8419149251        8.5659049595      -68.6570475048  TIP3      12023           0.0000000000
     58322     12216  TIP3      OH2             6.7993948718        7.7664088720      -73.4467791735  TIP3      12024           0.0000000000
     58323     12216  TIP3      H1              5.8359184886        7.5297310843      -73.4720919287  TIP3      12024           0.0000000000
     58324     12216  TIP3      H2              7.0584906478        7.2715878518      -74.2303574911  TIP3      12024           0.0000000000
     58325     12217  TIP3      OH2            12.3284184020        8.2549450758      -74.7050836551  TIP3      12025           0.0000000000
     58326     12217  TIP3      H1             11.9981670962        9.1244710400      -75.0173003378  TIP3      12025           0.0000000000
     58327     12217  TIP3      H2             13.0641889544        8.1123009958      -75.3307238696  TIP3      12025           0.0000000000
     58328     12218  TIP3      OH2            11.4240120578        8.4856702151      -63.2141195889  TIP3      12026           0.0000000000
     58329     12218  TIP3      H1             10.8986248724        7.7103970561      -62.9028682419  TIP3      12026           0.0000000000
     58330     12218  TIP3      H2             12.2619714618        8.3651071092      -62.7370715398  TIP3      12026           0.0000000000
     58331     12219  TIP3      OH2            13.3753576029        7.7593662489      -71.7995509850  TIP3      12027           0.0000000000
     58332     12219  TIP3      H1             13.1438643026        8.3345588890      -72.5445809407  TIP3      12027           0.0000000000
     58333     12219  TIP3      H2             13.5154563565        6.9153166222      -72.2680846234  TIP3      12027           0.0000000000
     58334     12220  TIP3      OH2             4.5107736074        7.9063324848      -66.6060398931  TIP3      12028           0.0000000000
     58335     12220  TIP3      H1              4.5942060379        8.3141480889      -65.7264899434  TIP3      12028           0.0000000000
     58336     12220  TIP3      H2              4.0705363507        7.0676858444      -66.3955031463  TIP3      12028           0.0000000000
     58337     12221  TIP3      OH2             8.0932810197        5.6154046734      -79.3388853946  TIP3      12029           0.0000000000
     58338     12221  TIP3      H1              7.5411635639        4.9275169973      -78.9209549901  TIP3      12029           0.0000000000
     58339     12221  TIP3      H2              7.5505699383        5.9307864907      -80.0750849396  TIP3      12029           0.0000000000
     58340     12222  TIP3      OH2             1.1717268652        5.0181585050      -72.6143207235  TIP3      12030           0.0000000000
     58341     12222  TIP3      H1              1.8539821787        4.9748859898      -71.9144794962  TIP3      12030           0.0000000000
     58342     12222  TIP3      H2              1.6157978411        4.6401745011      -73.3967066762  TIP3      12030           0.0000000000
     58343     12223  TIP3      OH2             2.4476556268        5.7538396107      -77.2550344211  TIP3      12031           0.0000000000
     58344     12223  TIP3      H1              2.9634883390        6.3422726950      -77.8426435721  TIP3      12031           0.0000000000
     58345     12223  TIP3      H2              1.7526128740        6.3653325105      -76.9564805527  TIP3      12031           0.0000000000
     58346     12224  TIP3      OH2            12.5994204894        9.3482415271      -67.2536040147  TIP3      12032           0.0000000000
     58347     12224  TIP3      H1             12.9799440392        8.6605206685      -67.8375123454  TIP3      12032           0.0000000000
     58348     12224  TIP3      H2             12.1339423225        8.8222811909      -66.5786221715  TIP3      12032           0.0000000000
     58349     12225  TIP3      OH2             9.3877299180        5.3925198034      -72.4164921280  TIP3      12033           0.0000000000
     58350     12225  TIP3      H1              8.4616403744        5.3003197128      -72.1045935009  TIP3      12033           0.0000000000
     58351     12225  TIP3      H2              9.8882292138        5.1516373942      -71.6154679137  TIP3      12033           0.0000000000
     58352     12226  TIP3      OH2             4.2370819137        6.8869894546      -73.5843053966  TIP3      12034           0.0000000000
     58353     12226  TIP3      H1              3.3256148709        7.0367533584      -73.9269574261  TIP3      12034           0.0000000000
     58354     12226  TIP3      H2              4.4564716196        6.0055437870      -73.9362951418  TIP3      12034           0.0000000000
     58355     12227  TIP3      OH2             7.8261752935        6.8121180901      -76.0530686306  TIP3      12035           0.0000000000
     58356     12227  TIP3      H1              8.8044668395        6.7978602730      -75.9662846512  TIP3      12035           0.0000000000
     58357     12227  TIP3      H2              7.5822048774        7.4598803730      -76.7558261673  TIP3      12035           0.0000000000
     58358     12228  TIP3      OH2            13.8098901435        4.5650777107      -69.1760423127  TIP3      12036           0.0000000000
     58359     12228  TIP3      H1             13.1269490362        4.6130292713      -68.4692405833  TIP3      12036           0.0000000000
     58360     12228  TIP3      H2             13.2992041164        4.3080414434      -69.9574007362  TIP3      12036           0.0000000000
     58361     12229  TIP3      OH2             6.5839447526        8.0990815649      -78.3107007791  TIP3      12037           0.0000000000
     58362     12229  TIP3      H1              5.9915029487        7.7567877080      -79.0095078618  TIP3      12037           0.0000000000
     58363     12229  TIP3      H2              7.3741348131        8.3068398709      -78.8364840138  TIP3      12037           0.0000000000
     58364     12230  TIP3      OH2            17.0095941904       20.2034624679      -62.8492039830  TIP3      12038           0.0000000000
     58365     12230  TIP3      H1             17.2754565995       20.5876703126      -63.7038204177  TIP3      12038           0.0000000000
     58366     12230  TIP3      H2             17.7321961447       20.5253181686      -62.2894812106  TIP3      12038           0.0000000000
     58367     12231  TIP3      OH2             4.6866694847       12.6733409947      -63.2770231786  TIP3      12039           0.0000000000
     58368     12231  TIP3      H1              5.4069217168       12.9191036197      -62.6735513995  TIP3      12039           0.0000000000
     58369     12231  TIP3      H2              3.9139088161       12.7536766738      -62.6760121234  TIP3      12039           0.0000000000
     58370     12232  TIP3      OH2            10.6514673193        8.0642061154      -70.5497968128  TIP3      12040           0.0000000000
     58371     12232  TIP3      H1             11.3151892123        7.5491627915      -71.0219092942  TIP3      12040           0.0000000000
     58372     12232  TIP3      H2             10.5453213156        7.5518015120      -69.7323329780  TIP3      12040           0.0000000000
     58373     12233  TIP3      OH2             5.7091189228        4.2377755253      -74.0665246310  TIP3      12041           0.0000000000
     58374     12233  TIP3      H1              5.3755063973        3.3214754573      -74.0829295657  TIP3      12041           0.0000000000
     58375     12233  TIP3      H2              6.4835100390        4.1283440568      -74.6316215850  TIP3      12041           0.0000000000
     58376     12234  TIP3      OH2             9.3248190338        6.4107081223      -68.1068059338  TIP3      12042           0.0000000000
     58377     12234  TIP3      H1              8.5004409137        6.9298304667      -68.0197742775  TIP3      12042           0.0000000000
     58378     12234  TIP3      H2              9.8800718116        6.7634880110      -67.3852230110  TIP3      12042           0.0000000000
     58379     12235  TIP3      OH2             9.9256367843       12.5823987784      -76.3727894313  TIP3      12043           0.0000000000
     58380     12235  TIP3      H1              9.1083791836       12.1826047861      -76.7374981781  TIP3      12043           0.0000000000
     58381     12235  TIP3      H2              9.6868569889       12.7676180839      -75.4441421680  TIP3      12043           0.0000000000
     58382     12236  TIP3      OH2            17.1018803077       11.8371497290      -67.6076293344  TIP3      12044           0.0000000000
     58383     12236  TIP3      H1             17.6637671209       12.3210526172      -68.2401457050  TIP3      12044           0.0000000000
     58384     12236  TIP3      H2             16.2410903687       11.8820431395      -68.0708044936  TIP3      12044           0.0000000000
     58385     12237  TIP3      OH2            13.7719374508        5.4763351068      -78.2341822556  TIP3      12045           0.0000000000
     58386     12237  TIP3      H1             12.8251112184        5.6046948782      -78.4078279813  TIP3      12045           0.0000000000
     58387     12237  TIP3      H2             14.0773496796        6.3238793369      -77.8646563693  TIP3      12045           0.0000000000
     58388     12238  TIP3      OH2            11.4059974122       12.9053015433      -65.1650311150  TIP3      12046           0.0000000000
     58389     12238  TIP3      H1             11.0586503847       12.4750314929      -64.3768231405  TIP3      12046           0.0000000000
     58390     12238  TIP3      H2             11.1491476677       13.8264363150      -65.0581188589  TIP3      12046           0.0000000000
     58391     12239  TIP3      OH2            14.4770932591        7.3817690116      -76.5598122198  TIP3      12047           0.0000000000
     58392     12239  TIP3      H1             15.3824657122        7.2282753921      -76.2246918406  TIP3      12047           0.0000000000
     58393     12239  TIP3      H2             14.5644139193        8.1883255295      -77.0926752486  TIP3      12047           0.0000000000
     58394     12240  TIP3      OH2             5.0076539697       12.0277334925      -70.6100690311  TIP3      12048           0.0000000000
     58395     12240  TIP3      H1              5.6955340659       11.9659749839      -71.2988715055  TIP3      12048           0.0000000000
     58396     12240  TIP3      H2              5.0816166540       11.1695661605      -70.1549179256  TIP3      12048           0.0000000000
     58397     12241  TIP3      OH2            12.0088936279       14.0910121896      -77.3480444459  TIP3      12049           0.0000000000
     58398     12241  TIP3      H1             11.6464446402       14.9391782887      -77.0160430421  TIP3      12049           0.0000000000
     58399     12241  TIP3      H2             11.2712323360       13.4673629143      -77.1652534210  TIP3      12049           0.0000000000
     58400     12242  TIP3      OH2             2.0136847587       10.4308248469      -65.3495123326  TIP3      12050           0.0000000000
     58401     12242  TIP3      H1              2.1829026131        9.9871342105      -64.4956670792  TIP3      12050           0.0000000000
     58402     12242  TIP3      H2              1.3927794422        9.8219796962      -65.7879713118  TIP3      12050           0.0000000000
     58403     12243  TIP3      OH2             9.0259791972        9.9923637438      -63.1733197230  TIP3      12051           0.0000000000
     58404     12243  TIP3      H1              8.7061066705        9.6827557366      -64.0328580201  TIP3      12051           0.0000000000
     58405     12243  TIP3      H2              9.9486233038        9.6673277501      -63.1746144471  TIP3      12051           0.0000000000
     58406     12244  TIP3      OH2            13.7127357363       15.3279397270      -65.2166538211  TIP3      12052           0.0000000000
     58407     12244  TIP3      H1             12.7875483705       15.5060740078      -65.4511237603  TIP3      12052           0.0000000000
     58408     12244  TIP3      H2             13.6788839718       15.6208454036      -64.2858050373  TIP3      12052           0.0000000000
     58409     12245  TIP3      OH2            19.3781473674        7.5024174062      -76.8030915802  TIP3      12053           0.0000000000
     58410     12245  TIP3      H1             18.7966107266        7.1929550073      -77.5127284962  TIP3      12053           0.0000000000
     58411     12245  TIP3      H2             19.4686037119        8.4373378709      -77.0869550162  TIP3      12053           0.0000000000
     58412     12246  TIP3      OH2            19.3671181050       13.3709769304      -64.0253489407  TIP3      12054           0.0000000000
     58413     12246  TIP3      H1             18.4742102632       13.5907171064      -64.3899807736  TIP3      12054           0.0000000000
     58414     12246  TIP3      H2             19.9127902737       13.3182302908      -64.8371567300  TIP3      12054           0.0000000000
     58415     12247  TIP3      OH2            17.6824444686       16.2369541981      -76.5003422172  TIP3      12055           0.0000000000
     58416     12247  TIP3      H1             17.2841759487       15.4454693134      -76.1389934812  TIP3      12055           0.0000000000
     58417     12247  TIP3      H2             17.9590524885       16.0672371419      -77.4105332624  TIP3      12055           0.0000000000
     58418     12248  TIP3      OH2            14.8781565351       11.1515612195      -69.3263688319  TIP3      12056           0.0000000000
     58419     12248  TIP3      H1             13.9374313615       10.9441559337      -69.4370713293  TIP3      12056           0.0000000000
     58420     12248  TIP3      H2             15.3089531144       10.3929998457      -69.7629844965  TIP3      12056           0.0000000000
     58421     12249  TIP3      OH2             7.3935518564       15.4807630755      -73.2225589827  TIP3      12057           0.0000000000
     58422     12249  TIP3      H1              7.8939923241       16.2857027881      -73.4293185499  TIP3      12057           0.0000000000
     58423     12249  TIP3      H2              6.5164606450       15.7147423307      -73.5559447104  TIP3      12057           0.0000000000
     58424     12250  TIP3      OH2             3.1315652837       10.3398832532      -78.6846826278  TIP3      12058           0.0000000000
     58425     12250  TIP3      H1              3.7667306350       10.9536180326      -78.2616363645  TIP3      12058           0.0000000000
     58426     12250  TIP3      H2              2.2717525305       10.6370970944      -78.3772830668  TIP3      12058           0.0000000000
     58427     12251  TIP3      OH2             8.8075614870       13.1383852424      -73.7059475453  TIP3      12059           0.0000000000
     58428     12251  TIP3      H1              8.5100109646       14.0694253402      -73.6250072445  TIP3      12059           0.0000000000
     58429     12251  TIP3      H2              8.0816541412       12.6774979345      -73.2461189823  TIP3      12059           0.0000000000
     58430     12252  TIP3      OH2             9.2607646650       17.3333968559      -67.2947306593  TIP3      12060           0.0000000000
     58431     12252  TIP3      H1              9.7208657772       18.1378099288      -67.5840316986  TIP3      12060           0.0000000000
     58432     12252  TIP3      H2              9.8785106752       16.9911941798      -66.6225523106  TIP3      12060           0.0000000000
     58433     12253  TIP3      OH2             7.4918802686       18.1426482015      -74.1927832293  TIP3      12061           0.0000000000
     58434     12253  TIP3      H1              6.5283504644       18.2781735256      -74.0397723526  TIP3      12061           0.0000000000
     58435     12253  TIP3      H2              7.8500410993       18.9743909650      -73.8293076862  TIP3      12061           0.0000000000
     58436     12254  TIP3      OH2            12.7803665858       13.3268274961      -67.6807636263  TIP3      12062           0.0000000000
     58437     12254  TIP3      H1             12.4610683607       13.1376301577      -66.7738407545  TIP3      12062           0.0000000000
     58438     12254  TIP3      H2             13.4247766043       12.6201097613      -67.8466717307  TIP3      12062           0.0000000000
     58439     12255  TIP3      OH2            15.0811928887       14.3579134947      -78.5600933815  TIP3      12063           0.0000000000
     58440     12255  TIP3      H1             15.3932053471       13.9184860383      -77.7449646075  TIP3      12063           0.0000000000
     58441     12255  TIP3      H2             14.1259904644       14.2067803355      -78.4847733939  TIP3      12063           0.0000000000
     58442     12256  TIP3      OH2            15.6049927372       17.9123912207      -65.1922918074  TIP3      12064           0.0000000000
     58443     12256  TIP3      H1             14.9119113582       17.4189557746      -65.6704466385  TIP3      12064           0.0000000000
     58444     12256  TIP3      H2             15.7866012795       18.6131478501      -65.8534929357  TIP3      12064           0.0000000000
     58445     12257  TIP3      OH2            19.5011202258       18.7611080787      -78.4907106024  TIP3      12065           0.0000000000
     58446     12257  TIP3      H1             20.2571743211       19.3756942391      -78.5345986261  TIP3      12065           0.0000000000
     58447     12257  TIP3      H2             18.8661898139       19.3619839189      -78.0341637045  TIP3      12065           0.0000000000
     58448     12258  TIP3      OH2             3.6632081999        5.1664800227      -65.8029455683  TIP3      12066           0.0000000000
     58449     12258  TIP3      H1              2.7567886449        5.5185932868      -65.8206830018  TIP3      12066           0.0000000000
     58450     12258  TIP3      H2              3.5519995030        4.3217905679      -65.3385068144  TIP3      12066           0.0000000000
     58451     12259  TIP3      OH2            15.9083658365       12.9951899077      -76.3484619877  TIP3      12067           0.0000000000
     58452     12259  TIP3      H1             15.6625039728       12.2141717222      -75.8110154112  TIP3      12067           0.0000000000
     58453     12259  TIP3      H2             16.8493046972       13.0891207220      -76.1345248524  TIP3      12067           0.0000000000
     58454     12260  TIP3      OH2             3.2760335520       16.9499734615      -67.3719907512  TIP3      12068           0.0000000000
     58455     12260  TIP3      H1              3.5810004045       16.0313321163      -67.3680522040  TIP3      12068           0.0000000000
     58456     12260  TIP3      H2              3.5391350822       17.2407307479      -66.4922578613  TIP3      12068           0.0000000000
     58457     12261  TIP3      OH2             8.0223075640       15.0389522916      -77.6691523173  TIP3      12069           0.0000000000
     58458     12261  TIP3      H1              8.2836873090       14.4794301859      -76.9225056790  TIP3      12069           0.0000000000
     58459     12261  TIP3      H2              8.1150972826       15.9532732714      -77.3238016028  TIP3      12069           0.0000000000
     58460     12262  TIP3      OH2             4.5117328870       12.2500715052      -77.1316152831  TIP3      12070           0.0000000000
     58461     12262  TIP3      H1              3.8643121040       12.6920314019      -76.5497022944  TIP3      12070           0.0000000000
     58462     12262  TIP3      H2              5.0709647843       13.0004784237      -77.4075953302  TIP3      12070           0.0000000000
     58463     12263  TIP3      OH2            12.3956354914        4.9398353757      -66.8354745008  TIP3      12071           0.0000000000
     58464     12263  TIP3      H1             13.1111743012        4.9997132321      -66.1934780969  TIP3      12071           0.0000000000
     58465     12263  TIP3      H2             12.0122851487        4.0632859938      -66.6323133030  TIP3      12071           0.0000000000
     58466     12264  TIP3      OH2            13.1217720549        4.5407974116      -75.7450561000  TIP3      12072           0.0000000000
     58467     12264  TIP3      H1             13.3935493290        4.9852236004      -76.5714630428  TIP3      12072           0.0000000000
     58468     12264  TIP3      H2             13.7229511769        4.9477553445      -75.1080708521  TIP3      12072           0.0000000000
     58469     12265  TIP3      OH2            10.8148061851       16.6848561659      -76.9511819838  TIP3      12073           0.0000000000
     58470     12265  TIP3      H1             10.0011022674       17.2063341760      -76.8506503472  TIP3      12073           0.0000000000
     58471     12265  TIP3      H2             11.3686489450       17.2078412207      -77.5548499407  TIP3      12073           0.0000000000
     58472     12266  TIP3      OH2            10.2315313999        6.4417537331      -74.9045222671  TIP3      12074           0.0000000000
     58473     12266  TIP3      H1             11.1542227349        6.7918971157      -74.9298436021  TIP3      12074           0.0000000000
     58474     12266  TIP3      H2             10.1447639599        6.0575769333      -74.0076175268  TIP3      12074           0.0000000000
     58475     12267  TIP3      OH2            10.9215669711        7.2852752989      -65.7388733283  TIP3      12075           0.0000000000
     58476     12267  TIP3      H1             10.9979369936        7.8433169711      -64.9407326340  TIP3      12075           0.0000000000
     58477     12267  TIP3      H2             11.5859277495        6.5910824109      -65.6441383350  TIP3      12075           0.0000000000
     58478     12268  TIP3      OH2            11.2064693707        3.3304580268      -74.0790185669  TIP3      12076           0.0000000000
     58479     12268  TIP3      H1             10.9190656045        3.9440734236      -73.3856341095  TIP3      12076           0.0000000000
     58480     12268  TIP3      H2             11.9346771455        3.8518180109      -74.4989798035  TIP3      12076           0.0000000000
     58481     12269  TIP3      OH2             8.1860654214       17.7160586194      -76.9014428791  TIP3      12077           0.0000000000
     58482     12269  TIP3      H1              8.3637689299       18.5439109762      -77.4017356604  TIP3      12077           0.0000000000
     58483     12269  TIP3      H2              7.9467791519       18.0557074368      -76.0149289650  TIP3      12077           0.0000000000
     58484     12270  TIP3      OH2             6.8653287900        4.4101586831      -77.2860688412  TIP3      12078           0.0000000000
     58485     12270  TIP3      H1              6.8160933845        5.3274978774      -76.9579441897  TIP3      12078           0.0000000000
     58486     12270  TIP3      H2              7.7819158909        4.1788007775      -77.0355863442  TIP3      12078           0.0000000000
     58487     12271  TIP3      OH2            17.1005317977        5.1544303376      -64.8952815588  TIP3      12079           0.0000000000
     58488     12271  TIP3      H1             16.1733459802        5.4707768258      -65.0239573451  TIP3      12079           0.0000000000
     58489     12271  TIP3      H2             17.4016254265        5.1410839429      -65.8192367083  TIP3      12079           0.0000000000
     58490     12272  TIP3      OH2            15.7171890178        8.9405772968      -70.8924933201  TIP3      12080           0.0000000000
     58491     12272  TIP3      H1             14.8928652463        8.4928826757      -71.1550362896  TIP3      12080           0.0000000000
     58492     12272  TIP3      H2             16.1980323542        8.2556474563      -70.3746730154  TIP3      12080           0.0000000000
     58493     12273  TIP3      OH2             5.1161662569       14.8720940094      -78.3105994190  TIP3      12081           0.0000000000
     58494     12273  TIP3      H1              5.7835789568       15.4843071916      -77.9737282662  TIP3      12081           0.0000000000
     58495     12273  TIP3      H2              5.6482603916       14.4090194325      -78.9890561603  TIP3      12081           0.0000000000
     58496     12274  TIP3      OH2             3.5157805353        7.5521614890      -79.1006553324  TIP3      12082           0.0000000000
     58497     12274  TIP3      H1              3.4983257004        8.5154251772      -78.9917283795  TIP3      12082           0.0000000000
     58498     12274  TIP3      H2              2.6382873581        7.3538186468      -79.4401808003  TIP3      12082           0.0000000000
     58499     12275  TIP3      OH2            16.7770602283       18.2060068993      -69.2146912836  TIP3      12083           0.0000000000
     58500     12275  TIP3      H1             16.6886548951       18.8846116059      -69.9132795844  TIP3      12083           0.0000000000
     58501     12275  TIP3      H2             17.7415900982       18.2568302554      -69.0440125744  TIP3      12083           0.0000000000
     58502     12276  TIP3      OH2             4.2697567455        2.3237990945      -70.4061900645  TIP3      12084           0.0000000000
     58503     12276  TIP3      H1              4.0760625184        2.3411841427      -71.3698685681  TIP3      12084           0.0000000000
     58504     12276  TIP3      H2              3.8566200619        1.4702264391      -70.1574541638  TIP3      12084           0.0000000000
     58505     12277  TIP3      OH2             3.2271827812       16.2444278230      -74.2724439670  TIP3      12085           0.0000000000
     58506     12277  TIP3      H1              2.3704232869       16.6905447886      -74.3070500081  TIP3      12085           0.0000000000
     58507     12277  TIP3      H2              3.7019548273       16.7175086146      -74.9712624924  TIP3      12085           0.0000000000
     58508     12278  TIP3      OH2             2.4259279944       18.8979777848      -62.9797658631  TIP3      12086           0.0000000000
     58509     12278  TIP3      H1              3.0348697485       18.6961510687      -62.2419089956  TIP3      12086           0.0000000000
     58510     12278  TIP3      H2              2.0293822341       18.0279627162      -63.1625159871  TIP3      12086           0.0000000000
     58511     12279  TIP3      OH2             7.1098922159       17.8167814029      -61.3720209007  TIP3      12087           0.0000000000
     58512     12279  TIP3      H1              7.8661855639       17.3177474429      -61.0394667724  TIP3      12087           0.0000000000
     58513     12279  TIP3      H2              7.0843300856       17.5374200999      -62.3082926767  TIP3      12087           0.0000000000
     58514     12280  TIP3      OH2            11.7075914669       17.4245096687      -79.3835492055  TIP3      12088           0.0000000000
     58515     12280  TIP3      H1             10.8470412722       16.9615403200      -79.4005486153  TIP3      12088           0.0000000000
     58516     12280  TIP3      H2             12.1587736660       16.9375814181      -80.0734958394  TIP3      12088           0.0000000000
     58517     12281  TIP3      OH2            13.6143499026       16.1993300216      -62.6231393629  TIP3      12089           0.0000000000
     58518     12281  TIP3      H1             13.2995841617       15.3119026401      -62.3485215317  TIP3      12089           0.0000000000
     58519     12281  TIP3      H2             14.3835755599       16.3179575140      -62.0313410641  TIP3      12089           0.0000000000
     58520     12282  TIP3      OH2            15.8315201283       17.1098069963      -79.7721665153  TIP3      12090           0.0000000000
     58521     12282  TIP3      H1             16.0736271929       16.3013100388      -79.2810936097  TIP3      12090           0.0000000000
     58522     12282  TIP3      H2             16.6149583314       17.2964755118      -80.3046767942  TIP3      12090           0.0000000000
     58523     12283  TIP3      OH2             2.3401739527       12.6684926102      -61.9841793189  TIP3      12091           0.0000000000
     58524     12283  TIP3      H1              2.5067575780       11.7570662128      -62.2857598301  TIP3      12091           0.0000000000
     58525     12283  TIP3      H2              1.6005847401       12.9264437896      -62.5588626541  TIP3      12091           0.0000000000
     58526     12284  TIP3      OH2             6.7951710047       13.0839602590      -79.8386722786  TIP3      12092           0.0000000000
     58527     12284  TIP3      H1              6.8550086102       12.2508851887      -79.3630407060  TIP3      12092           0.0000000000
     58528     12284  TIP3      H2              7.3499027762       12.8550714560      -80.6128844368  TIP3      12092           0.0000000000
     58529     12285  TIP3      OH2             9.0581347242       12.6570728062      -62.5997169034  TIP3      12093           0.0000000000
     58530     12285  TIP3      H1              8.7230225254       12.9697082539      -63.4631618500  TIP3      12093           0.0000000000
     58531     12285  TIP3      H2              9.1321739568       11.6796578725      -62.7078978645  TIP3      12093           0.0000000000
     58532     12286  TIP3      OH2            14.7543786139       12.5163461840      -65.2069125660  TIP3      12094           0.0000000000
     58533     12286  TIP3      H1             15.5422936646       13.0991103181      -65.2691954094  TIP3      12094           0.0000000000
     58534     12286  TIP3      H2             14.0543341130       13.1843049619      -65.1716796405  TIP3      12094           0.0000000000
     58535     12287  TIP3      OH2             3.2633744035        9.8936217380      -62.6048126544  TIP3      12095           0.0000000000
     58536     12287  TIP3      H1              3.6802793005        9.0304709623      -62.6951102227  TIP3      12095           0.0000000000
     58537     12287  TIP3      H2              3.0290602000        9.8994310342      -61.6627709813  TIP3      12095           0.0000000000
     58538     12288  TIP3      OH2             7.9280116084       11.0547654533      -77.5490959269  TIP3      12096           0.0000000000
     58539     12288  TIP3      H1              7.3701945731       10.5297615218      -76.9541815841  TIP3      12096           0.0000000000
     58540     12288  TIP3      H2              8.2181801344       10.3918808119      -78.2199625784  TIP3      12096           0.0000000000
     58541     12289  TIP3      OH2             7.1603612166        8.8378230901      -65.2510235103  TIP3      12097           0.0000000000
     58542     12289  TIP3      H1              6.5642299789        9.5593431443      -64.9941091347  TIP3      12097           0.0000000000
     58543     12289  TIP3      H2              7.5585082261        9.2057370425      -66.0581663138  TIP3      12097           0.0000000000
     58544     12290  TIP3      OH2             8.9883772962        9.2139879101      -79.3286737555  TIP3      12098           0.0000000000
     58545     12290  TIP3      H1              8.8627659803        9.1265544655      -80.2872583987  TIP3      12098           0.0000000000
     58546     12290  TIP3      H2              9.9702601777        9.3037910436      -79.2573123806  TIP3      12098           0.0000000000
     58547     12291  TIP3      OH2            12.2349835752       11.4077450731      -61.9138186965  TIP3      12099           0.0000000000
     58548     12291  TIP3      H1             13.1917976310       11.3946398477      -62.0372097333  TIP3      12099           0.0000000000
     58549     12291  TIP3      H2             12.0633926127       10.6409902482      -61.3440850346  TIP3      12099           0.0000000000
     58550     12292  TIP3      OH2            18.0973228859       11.7538990950       80.1725128113  TIP3      12100           0.0000000000
     58551     12292  TIP3      H1             18.0810667228       11.2202302342       79.3645670167  TIP3      12100           0.0000000000
     58552     12292  TIP3      H2             18.3856744381       12.6352859998       79.9085007627  TIP3      12100           0.0000000000
     58553     12293  TIP3      OH2             7.5667056556        6.2159216513      -64.1936160701  TIP3      12101           0.0000000000
     58554     12293  TIP3      H1              7.6837435209        5.5072337749      -64.8523760096  TIP3      12101           0.0000000000
     58555     12293  TIP3      H2              7.5224080329        7.0270822271      -64.7423857732  TIP3      12101           0.0000000000
     58556     12294  TIP3      OH2             7.9726631176        4.5977115933      -66.6438882852  TIP3      12102           0.0000000000
     58557     12294  TIP3      H1              8.4796914281        5.0648409152      -67.3482120229  TIP3      12102           0.0000000000
     58558     12294  TIP3      H2              7.0774436743        4.5210318458      -67.0456450209  TIP3      12102           0.0000000000
     58559     12295  TIP3      OH2             9.5085992965       10.0896119044      -66.3981390863  TIP3      12103           0.0000000000
     58560     12295  TIP3      H1             10.2639664978        9.9239282207      -66.9680422121  TIP3      12103           0.0000000000
     58561     12295  TIP3      H2              9.1454098585       10.9251291530      -66.7299034307  TIP3      12103           0.0000000000
     58562     12296  TIP3      OH2            13.9044018419        7.8387408808      -61.4352043892  TIP3      12104           0.0000000000
     58563     12296  TIP3      H1             14.1401760354        6.9042631907      -61.5263451259  TIP3      12104           0.0000000000
     58564     12296  TIP3      H2             14.7687066325        8.2826984320      -61.4022244985  TIP3      12104           0.0000000000
     58565     12297  TIP3      OH2            15.2475969289       10.6335592841      -63.2685299336  TIP3      12105           0.0000000000
     58566     12297  TIP3      H1             14.9943926481       11.3546816273      -63.8855766420  TIP3      12105           0.0000000000
     58567     12297  TIP3      H2             16.2035157722       10.6021721251      -63.4572747622  TIP3      12105           0.0000000000
     58568     12298  TIP3      OH2             6.0291676671        7.4671518594      -62.2730292199  TIP3      12106           0.0000000000
     58569     12298  TIP3      H1              5.2594860977        6.8897574090      -62.4408851229  TIP3      12106           0.0000000000
     58570     12298  TIP3      H2              6.6829116721        7.0977567402      -62.8945782458  TIP3      12106           0.0000000000
     58571     12299  TIP3      OH2             8.7600724340        2.0346480163      -66.2513339630  TIP3      12107           0.0000000000
     58572     12299  TIP3      H1              8.5769737180        2.9990513793      -66.3489344696  TIP3      12107           0.0000000000
     58573     12299  TIP3      H2              8.0105455019        1.6683754796      -66.7525007288  TIP3      12107           0.0000000000
     58574     12300  TIP3      OH2            10.0294750930        6.3648442085      -62.6219058220  TIP3      12108           0.0000000000
     58575     12300  TIP3      H1              9.7147498562        6.1315255306      -61.7268407786  TIP3      12108           0.0000000000
     58576     12300  TIP3      H2              9.2483682430        6.1616011978      -63.1636401819  TIP3      12108           0.0000000000
     58577     12301  TIP3      OH2            12.7510695168        5.5097163548      -63.5318393843  TIP3      12109           0.0000000000
     58578     12301  TIP3      H1             11.7860403482        5.5618705724      -63.4234860907  TIP3      12109           0.0000000000
     58579     12301  TIP3      H2             13.0155029204        4.8687014659      -62.8448945809  TIP3      12109           0.0000000000
     58580     12302  TIP3      OH2            14.3327638004        4.1273294862      -61.6332386845  TIP3      12110           0.0000000000
     58581     12302  TIP3      H1             14.2846460268        3.1494769977      -61.6024137777  TIP3      12110           0.0000000000
     58582     12302  TIP3      H2             14.0841671496        4.4197632730      -60.7339142391  TIP3      12110           0.0000000000
     58583     12303  TIP3      OH2             4.1047343973        5.4038354919      -62.5176297785  TIP3      12111           0.0000000000
     58584     12303  TIP3      H1              4.3554539069        4.6681298581      -63.1035728182  TIP3      12111           0.0000000000
     58585     12303  TIP3      H2              4.0174908832        4.9558529495      -61.6533900400  TIP3      12111           0.0000000000
     58586     12304  TIP3      OH2             8.9737095201        1.4284647945      -63.5503204400  TIP3      12112           0.0000000000
     58587     12304  TIP3      H1              9.6535858934        0.7253569089      -63.5672116392  TIP3      12112           0.0000000000
     58588     12304  TIP3      H2              8.8591904335        1.5712727549      -64.5104696408  TIP3      12112           0.0000000000
     58589     12305  TIP3      OH2             9.3358489909        3.0413477023      -61.4336258793  TIP3      12113           0.0000000000
     58590     12305  TIP3      H1              9.1623840245        2.5358664510      -62.2664307409  TIP3      12113           0.0000000000
     58591     12305  TIP3      H2              8.7364739264        3.8059962078      -61.5342782263  TIP3      12113           0.0000000000
     58592     12306  TIP3      OH2             8.7850703538       19.9376918376      -78.3077468337  TIP3      12114           0.0000000000
     58593     12306  TIP3      H1              9.7582065720       20.0563686490      -78.1971560784  TIP3      12114           0.0000000000
     58594     12306  TIP3      H2              8.6193515384       20.6035234014      -78.9734668633  TIP3      12114           0.0000000000
     58595     12307  TIP3      OH2             2.3640152238       14.4947054310      -78.7658134557  TIP3      12115           0.0000000000
     58596     12307  TIP3      H1              3.3162924692       14.6614746956      -78.5798456475  TIP3      12115           0.0000000000
     58597     12307  TIP3      H2              2.4407632633       13.9832216151      -79.5779415408  TIP3      12115           0.0000000000
     58598     12308  TIP3      OH2             1.1971351389       19.8728351244      -73.8784834202  TIP3      12116           0.0000000000
     58599     12308  TIP3      H1              0.4176988833       19.4318067221      -74.2779312348  TIP3      12116           0.0000000000
     58600     12308  TIP3      H2              1.4103055884       19.2832966273      -73.1325634371  TIP3      12116           0.0000000000
     58601     12309  TIP3      OH2             1.9787084455       18.0452288545      -71.9569467863  TIP3      12117           0.0000000000
     58602     12309  TIP3      H1              1.5966653544       17.1851256638      -71.7455606237  TIP3      12117           0.0000000000
     58603     12309  TIP3      H2              2.1727280815       18.3965762939      -71.0701459527  TIP3      12117           0.0000000000
     58604     12310  TIP3      OH2            19.5012932974       18.8420843093      -69.0192505872  TIP3      12118           0.0000000000
     58605     12310  TIP3      H1             19.5300018542       19.0086870611      -68.0611279027  TIP3      12118           0.0000000000
     58606     12310  TIP3      H2             20.1989504089       19.4303339418      -69.3262756894  TIP3      12118           0.0000000000
     58607     12311  TIP3      OH2            19.0723263963       18.4415209003      -66.0754688761  TIP3      12119           0.0000000000
     58608     12311  TIP3      H1             18.6012946062       17.6707609698      -66.4564185020  TIP3      12119           0.0000000000
     58609     12311  TIP3      H2             19.5584794521       17.9950821907      -65.3624550131  TIP3      12119           0.0000000000
     58610     12312  TIP3      OH2            17.5161950995       14.1606049741      -61.4001179800  TIP3      12120           0.0000000000
     58611     12312  TIP3      H1             16.6102277536       14.1346624939      -61.0321291673  TIP3      12120           0.0000000000
     58612     12312  TIP3      H2             17.8882314088       14.9672793178      -60.9910636834  TIP3      12120           0.0000000000
     58613     12313  TIP3      OH2            18.8472047110       12.4885996939      -75.9792102563  TIP3      12121           0.0000000000
     58614     12313  TIP3      H1             19.6865348494       12.9174915912      -75.7542738126  TIP3      12121           0.0000000000
     58615     12313  TIP3      H2             18.8144834350       11.7835916363      -75.2953381308  TIP3      12121           0.0000000000
     58616     12314  TIP3      OH2            19.1893012804       10.5720832419      -74.0903734813  TIP3      12122           0.0000000000
     58617     12314  TIP3      H1             18.4385949674       10.0630913350      -73.7086528189  TIP3      12122           0.0000000000
     58618     12314  TIP3      H2             19.7855427043       10.6990201511      -73.3238355421  TIP3      12122           0.0000000000
     58619     12315  TIP3      OH2            18.9472157541       13.2623819422      -69.1002539955  TIP3      12123           0.0000000000
     58620     12315  TIP3      H1             19.7618888523       12.8861853093      -69.4785855759  TIP3      12123           0.0000000000
     58621     12315  TIP3      H2             19.0959211089       14.2161530743      -69.2692560205  TIP3      12123           0.0000000000
     58622     12316  TIP3      OH2            17.5084772240       16.1638576491      -66.8270259022  TIP3      12124           0.0000000000
     58623     12316  TIP3      H1             16.8178654761       16.5107024830      -66.2422180019  TIP3      12124           0.0000000000
     58624     12316  TIP3      H2             16.9593401411       15.7657918995      -67.5367052299  TIP3      12124           0.0000000000
     58625     12317  TIP3      OH2            19.5062985644       10.4153821838      -77.6915575598  TIP3      12125           0.0000000000
     58626     12317  TIP3      H1             18.8952228903       10.7630095684      -78.3668825403  TIP3      12125           0.0000000000
     58627     12317  TIP3      H2             19.4146353077       11.1100817826      -77.0134676984  TIP3      12125           0.0000000000
     58628     12318  TIP3      OH2            17.4246994809        7.6411492122      -79.0643097862  TIP3      12126           0.0000000000
     58629     12318  TIP3      H1             17.8772216007        8.2455927529      -79.6755667793  TIP3      12126           0.0000000000
     58630     12318  TIP3      H2             17.6599899741        6.8155848148      -79.5028460223  TIP3      12126           0.0000000000
     58631     12319  TIP3      OH2            17.0051013930        9.0463553334      -73.5169506772  TIP3      12127           0.0000000000
     58632     12319  TIP3      H1             16.8644545663        8.0889202025      -73.5611093096  TIP3      12127           0.0000000000
     58633     12319  TIP3      H2             16.6875752348        9.2533830445      -72.6184221890  TIP3      12127           0.0000000000
     58634     12320  TIP3      OH2             2.0176851901       11.1268034813      -69.4570538350  TIP3      12128           0.0000000000
     58635     12320  TIP3      H1              2.1912144561       11.0497131489      -70.4189005700  TIP3      12128           0.0000000000
     58636     12320  TIP3      H2              2.9114299753       10.9498541090      -69.1044405677  TIP3      12128           0.0000000000
     58637     12321  TIP3      OH2            17.8732041804       11.0089158738      -63.8248312057  TIP3      12129           0.0000000000
     58638     12321  TIP3      H1             18.4832991650       10.2520682047      -63.6926596139  TIP3      12129           0.0000000000
     58639     12321  TIP3      H2             18.4774128293       11.7815721829      -63.8210355446  TIP3      12129           0.0000000000
     58640     12322  TIP3      OH2            19.3749716598        8.8878512112      -63.1742167340  TIP3      12130           0.0000000000
     58641     12322  TIP3      H1             18.4919551728        8.4892575807      -63.3292668772  TIP3      12130           0.0000000000
     58642     12322  TIP3      H2             19.9452383165        8.1049984452      -63.2510032714  TIP3      12130           0.0000000000
     58643     12323  TIP3      OH2            16.6696172043        6.6258087800      -75.0490696334  TIP3      12131           0.0000000000
     58644     12323  TIP3      H1             16.9717023796        5.6933512791      -74.9439809663  TIP3      12131           0.0000000000
     58645     12323  TIP3      H2             17.4595135534        7.0286835588      -75.4305770797  TIP3      12131           0.0000000000
     58646     12324  TIP3      OH2            17.3188383317        7.1694580516      -69.6127452927  TIP3      12132           0.0000000000
     58647     12324  TIP3      H1             18.2800445389        7.3980667788      -69.6264296328  TIP3      12132           0.0000000000
     58648     12324  TIP3      H2             17.1317954698        7.3082032072      -68.6726897993  TIP3      12132           0.0000000000
     58649     12325  TIP3      OH2            17.3869777401        7.8889849330      -66.8271936234  TIP3      12133           0.0000000000
     58650     12325  TIP3      H1             16.5016053775        8.1780603230      -66.5159195250  TIP3      12133           0.0000000000
     58651     12325  TIP3      H2             17.8191246604        8.7473628408      -67.0538331047  TIP3      12133           0.0000000000
     58652     12326  TIP3      OH2             1.6379625599        6.4305391877      -63.2945880517  TIP3      12134           0.0000000000
     58653     12326  TIP3      H1              2.5748930110        6.2149434391      -63.1090556728  TIP3      12134           0.0000000000
     58654     12326  TIP3      H2              1.1797052530        5.6041391916      -63.0277404849  TIP3      12134           0.0000000000
     58655     12327  TIP3      OH2            19.6573597604        1.9542870521      -61.4933793887  TIP3      12135           0.0000000000
     58656     12327  TIP3      H1             20.0100798082        1.2930726902      -62.1138197722  TIP3      12135           0.0000000000
     58657     12327  TIP3      H2             19.7595715177        2.7687721024      -62.0253795460  TIP3      12135           0.0000000000
     58658     12328  TIP3      OH2            17.3498805135        3.8998991369      -75.0282085670  TIP3      12136           0.0000000000
     58659     12328  TIP3      H1             17.5667860022        3.4723652625      -74.1731162662  TIP3      12136           0.0000000000
     58660     12328  TIP3      H2             16.7398761626        3.2650623447      -75.4564821000  TIP3      12136           0.0000000000
     58661     12329  TIP3      OH2             2.8349718589        4.7173590299      -70.4529189131  TIP3      12137           0.0000000000
     58662     12329  TIP3      H1              3.2956307326        3.8915082102      -70.1954905799  TIP3      12137           0.0000000000
     58663     12329  TIP3      H2              3.3775942815        5.4052808473      -70.0476314773  TIP3      12137           0.0000000000
     58664     12330  TIP3      OH2             1.1174147003        7.7210159456      -69.4164448098  TIP3      12138           0.0000000000
     58665     12330  TIP3      H1              1.6816501661        7.4691647934      -70.1754262473  TIP3      12138           0.0000000000
     58666     12330  TIP3      H2              1.5862995839        8.5236019919      -69.1460037883  TIP3      12138           0.0000000000
     58667     12331  TIP3      OH2            19.1780563119        4.0524104318      -63.1380734818  TIP3      12139           0.0000000000
     58668     12331  TIP3      H1             18.2396779554        4.3243901108      -63.1892758456  TIP3      12139           0.0000000000
     58669     12331  TIP3      H2             19.2113158318        3.5012798775      -63.9348359633  TIP3      12139           0.0000000000
     58670     12332  TIP3      OH2            19.1871294371        3.9686986388      -78.4484736056  TIP3      12140           0.0000000000
     58671     12332  TIP3      H1             19.5767999314        3.2582422646      -78.9660863191  TIP3      12140           0.0000000000
     58672     12332  TIP3      H2             19.8950028352        4.6236875288      -78.4588927287  TIP3      12140           0.0000000000
     58673     12333  TIP3      OH2             1.4671933938        3.9873863528      -75.3457551991  TIP3      12141           0.0000000000
     58674     12333  TIP3      H1              0.5307839439        4.1755570797      -75.5101369929  TIP3      12141           0.0000000000
     58675     12333  TIP3      H2              1.9022169910        4.4716506587      -76.0652294684  TIP3      12141           0.0000000000
     58676     12334  TIP3      OH2            16.1771503571       18.9300399083      -73.2995434706  TIP3      12142           0.0000000000
     58677     12334  TIP3      H1             16.8239037928       18.6448783520      -74.0021203260  TIP3      12142           0.0000000000
     58678     12334  TIP3      H2             16.7641048832       19.4482557992      -72.7392420096  TIP3      12142           0.0000000000
     58679     12335  TIP3      OH2             1.4316753091        2.6292783429      -67.0489971935  TIP3      12143           0.0000000000
     58680     12335  TIP3      H1              0.7643647093        2.4393847798      -66.3664221364  TIP3      12143           0.0000000000
     58681     12335  TIP3      H2              0.9746046880        3.3057655098      -67.5884349604  TIP3      12143           0.0000000000
     58682     12336  TIP3      OH2             3.6729905204       15.8237870642      -62.8863162881  TIP3      12144           0.0000000000
     58683     12336  TIP3      H1              2.8374429726       16.0493350043      -63.3301046477  TIP3      12144           0.0000000000
     58684     12336  TIP3      H2              3.4017735889       15.7560586793      -61.9669770739  TIP3      12144           0.0000000000
     58685     12337  TIP3      OH2             6.5713897859       16.8400529772      -66.6049445063  TIP3      12145           0.0000000000
     58686     12337  TIP3      H1              6.2426850839       17.7071349933      -66.8794083174  TIP3      12145           0.0000000000
     58687     12337  TIP3      H2              7.4978715629       16.9228034971      -66.9111500659  TIP3      12145           0.0000000000
     58688     12338  TIP3      OH2            10.8914566580       18.2616581169      -63.7039510263  TIP3      12146           0.0000000000
     58689     12338  TIP3      H1             11.0298161437       17.9080418294      -62.7947993259  TIP3      12146           0.0000000000
     58690     12338  TIP3      H2             11.7943779226       18.5644867119      -63.9451516286  TIP3      12146           0.0000000000
     58691     12339  TIP3      OH2            13.1785964954       19.5286580793      -64.3906865949  TIP3      12147           0.0000000000
     58692     12339  TIP3      H1             13.9107139184       18.9442547610      -64.6295856058  TIP3      12147           0.0000000000
     58693     12339  TIP3      H2             13.5543698841       19.9677217507      -63.5974847922  TIP3      12147           0.0000000000
     58694     12340  TIP3      OH2            18.2011051911        2.1405037929      -65.2864573349  TIP3      12148           0.0000000000
     58695     12340  TIP3      H1             17.3714661913        2.4410205149      -65.6966214650  TIP3      12148           0.0000000000
     58696     12340  TIP3      H2             18.3665870223        1.3184270238      -65.8043325298  TIP3      12148           0.0000000000
     58697     12341  TIP3      OH2             4.0024054655       20.0830302877      -66.5977264360  TIP3      12149           0.0000000000
     58698     12341  TIP3      H1              3.2687947679       20.5676643601      -67.0193568474  TIP3      12149           0.0000000000
     58699     12341  TIP3      H2              3.6787642266       19.8836979593      -65.7088001460  TIP3      12149           0.0000000000
     58700     12342  TIP3      OH2             6.4639754237       19.6484634946      -67.5376263946  TIP3      12150           0.0000000000
     58701     12342  TIP3      H1              5.5724654134       19.7953701396      -67.1421237831  TIP3      12150           0.0000000000
     58702     12342  TIP3      H2              6.4097924049       20.2406020122      -68.3117817214  TIP3      12150           0.0000000000
     58703     12343  TIP3      OH2            11.1724412745       19.5663041299      -68.3724829679  TIP3      12151           0.0000000000
     58704     12343  TIP3      H1             10.7083807727       20.1225062165      -69.0161562782  TIP3      12151           0.0000000000
     58705     12343  TIP3      H2             11.3036739662       20.1956456994      -67.6320498335  TIP3      12151           0.0000000000
     58706     12344  TIP3      OH2            13.4573208698       18.3718484392      -67.3370205567  TIP3      12152           0.0000000000
     58707     12344  TIP3      H1             12.6050356113       18.6504030427      -67.7099029703  TIP3      12152           0.0000000000
     58708     12344  TIP3      H2             13.9446459766       19.2086669559      -67.4314841125  TIP3      12152           0.0000000000
     58709     12345  TIP3      OH2            16.0391222890       19.9434155796      -67.1162255429  TIP3      12153           0.0000000000
     58710     12345  TIP3      H1             15.9882903814       20.9037226753      -67.3470136526  TIP3      12153           0.0000000000
     58711     12345  TIP3      H2             16.2505297732       19.5696189623      -67.9934856522  TIP3      12153           0.0000000000
     58712     12346  TIP3      OH2             3.4420581096       18.7238333962      -69.6740253168  TIP3      12154           0.0000000000
     58713     12346  TIP3      H1              3.3637689392       18.2703413105      -68.8114152666  TIP3      12154           0.0000000000
     58714     12346  TIP3      H2              4.2617637438       18.3611565862      -70.0633040157  TIP3      12154           0.0000000000
     58715     12347  TIP3      OH2             5.5328026961       17.4341759919      -71.0173032539  TIP3      12155           0.0000000000
     58716     12347  TIP3      H1              5.3663718361       16.5016945611      -70.7816863629  TIP3      12155           0.0000000000
     58717     12347  TIP3      H2              6.3869154024       17.5902452729      -70.5625296635  TIP3      12155           0.0000000000
     58718     12348  TIP3      OH2             8.1407350605       17.9176550628      -70.1409152899  TIP3      12156           0.0000000000
     58719     12348  TIP3      H1              8.2920284047       16.9915446197      -70.4009760826  TIP3      12156           0.0000000000
     58720     12348  TIP3      H2              8.1805031410       17.8626480095      -69.1747965278  TIP3      12156           0.0000000000
     58721     12349  TIP3      OH2            11.5832745628        3.5717903017      -71.0099848965  TIP3      12157           0.0000000000
     58722     12349  TIP3      H1             10.9133266679        2.9298935837      -70.7186278787  TIP3      12157           0.0000000000
     58723     12349  TIP3      H2             12.1436652190        3.0338667932      -71.5807983879  TIP3      12157           0.0000000000
     58724     12350  TIP3      OH2            16.7246439486        1.6160975638      -70.9380453016  TIP3      12158           0.0000000000
     58725     12350  TIP3      H1             17.3367427270        2.2092632654      -71.4442263747  TIP3      12158           0.0000000000
     58726     12350  TIP3      H2             15.8425589716        1.9780882288      -71.1666758354  TIP3      12158           0.0000000000
     58727     12351  TIP3      OH2            18.3914678284        2.8657874727      -72.6578126990  TIP3      12159           0.0000000000
     58728     12351  TIP3      H1             19.0801792800        2.2890028685      -73.0696070468  TIP3      12159           0.0000000000
     58729     12351  TIP3      H2             18.8991828619        3.7022832104      -72.5528624545  TIP3      12159           0.0000000000
     58730     12352  TIP3      OH2             3.9563125687        2.1911335094      -73.1348268892  TIP3      12160           0.0000000000
     58731     12352  TIP3      H1              3.1664608878        2.0018442333      -73.6788929447  TIP3      12160           0.0000000000
     58732     12352  TIP3      H2              4.4166638575        1.3331229563      -73.2063728680  TIP3      12160           0.0000000000
     58733     12353  TIP3      OH2             2.7091616531        1.9560877994      -77.4206335321  TIP3      12161           0.0000000000
     58734     12353  TIP3      H1              3.2151616741        2.5965091349      -77.9617450228  TIP3      12161           0.0000000000
     58735     12353  TIP3      H2              2.1606669582        2.5231155046      -76.8524333827  TIP3      12161           0.0000000000
     58736     12354  TIP3      OH2             8.4279905362        2.1199546421      -73.3629867310  TIP3      12162           0.0000000000
     58737     12354  TIP3      H1              9.3301044855        2.4705294614      -73.4394458711  TIP3      12162           0.0000000000
     58738     12354  TIP3      H2              8.3942926708        1.9003166799      -72.4334262788  TIP3      12162           0.0000000000
     58739     12355  TIP3      OH2            14.1436353332        2.1391697806      -71.7381557836  TIP3      12163           0.0000000000
     58740     12355  TIP3      H1             14.1118423237        2.2406955247      -72.6955741981  TIP3      12163           0.0000000000
     58741     12355  TIP3      H2             13.7601670025        1.2377848738      -71.6134154447  TIP3      12163           0.0000000000
     58742     12356  TIP3      OH2            15.4092756942        2.1636264431      -76.0866596331  TIP3      12164           0.0000000000
     58743     12356  TIP3      H1             14.6689872446        2.7692552543      -76.2382705545  TIP3      12164           0.0000000000
     58744     12356  TIP3      H2             14.9689503653        1.3128393545      -75.8611959078  TIP3      12164           0.0000000000
     58745     12357  TIP3      OH2             2.6789713494       17.9217268256      -76.4407324649  TIP3      12165           0.0000000000
     58746     12357  TIP3      H1              1.9768345617       17.9039095229      -77.1233228669  TIP3      12165           0.0000000000
     58747     12357  TIP3      H2              2.6622829092       18.8668040767      -76.2483070532  TIP3      12165           0.0000000000
     58748     12358  TIP3      OH2             4.5648735716        3.8010390199      -78.8826347809  TIP3      12166           0.0000000000
     58749     12358  TIP3      H1              5.1112295354        3.2704513077      -79.4627926387  TIP3      12166           0.0000000000
     58750     12358  TIP3      H2              5.2184432855        4.2206988601      -78.2928582696  TIP3      12166           0.0000000000
     58751     12359  TIP3      OH2             9.5872513773        4.1330136600      -76.5057321213  TIP3      12167           0.0000000000
     58752     12359  TIP3      H1              9.8513349832        3.5508613167      -75.7717018969  TIP3      12167           0.0000000000
     58753     12359  TIP3      H2              9.6540177974        4.9920930494      -76.0508259878  TIP3      12167           0.0000000000
     58754     12360  TIP3      OH2            11.4879808012       19.5289738709      -78.0422291639  TIP3      12168           0.0000000000
     58755     12360  TIP3      H1             12.4547389275       19.4957281641      -78.2023475575  TIP3      12168           0.0000000000
     58756     12360  TIP3      H2             11.3091353878       18.7915637018      -78.6744342712  TIP3      12168           0.0000000000
     58757     12361  TIP3      OH2            17.6712755898       18.5025544434      -75.2978192130  TIP3      12169           0.0000000000
     58758     12361  TIP3      H1             17.9457858453       17.8209716530      -75.9438361863  TIP3      12169           0.0000000000
     58759     12361  TIP3      H2             18.0592437379       19.2896077701      -75.7541972184  TIP3      12169           0.0000000000
     58760     12362  TIP3      OH2             3.8449469773        2.7387226602      -63.7036337094  TIP3      12170           0.0000000000
     58761     12362  TIP3      H1              3.4552299663        1.9418788569      -63.2968532832  TIP3      12170           0.0000000000
     58762     12362  TIP3      H2              4.7528144718        2.6950176538      -63.3207352361  TIP3      12170           0.0000000000
     58763     12363  TIP3      OH2             5.8450072803        2.1195863156      -62.0581417755  TIP3      12171           0.0000000000
     58764     12363  TIP3      H1              6.7381552769        1.7829046122      -62.2751374361  TIP3      12171           0.0000000000
     58765     12363  TIP3      H2              5.4712076608        1.3124159839      -61.6551628327  TIP3      12171           0.0000000000
     58766     12364  TIP3      OH2             4.5077071516       18.8795042523      -79.4674110507  TIP3      12172           0.0000000000
     58767     12364  TIP3      H1              4.1773945685       19.1496298238      -78.5989004947  TIP3      12172           0.0000000000
     58768     12364  TIP3      H2              5.2421001004       18.3080747769      -79.2592314994  TIP3      12172           0.0000000000
     58769     12365  TIP3      OH2            14.2469890181        1.4055500641      -61.9095747357  TIP3      12173           0.0000000000
     58770     12365  TIP3      H1             14.3409414730        0.9335055173      -61.0595003769  TIP3      12173           0.0000000000
     58771     12365  TIP3      H2             15.1649452458        1.3728972460      -62.2523964581  TIP3      12173           0.0000000000
     58772     12366  TIP3      OH2            17.4575624786       17.4573640462      -63.2762123613  TIP3      12174           0.0000000000
     58773     12366  TIP3      H1             16.6535735251       17.3209911965      -63.8233249683  TIP3      12174           0.0000000000
     58774     12366  TIP3      H2             17.3411748869       18.4043197047      -63.0594157704  TIP3      12174           0.0000000000
     58775     12367  TIP3      OH2            31.9002877762       11.3218689551      -73.2874303541  TIP3      12175           0.0000000000
     58776     12367  TIP3      H1             31.9064797087       12.3046001781      -73.3293027081  TIP3      12175           0.0000000000
     58777     12367  TIP3      H2             31.1749025919       11.0991446426      -73.8944811628  TIP3      12175           0.0000000000
     58778     12368  TIP3      OH2            30.7614180209       10.5877414156      -69.8072835719  TIP3      12176           0.0000000000
     58779     12368  TIP3      H1             30.7406680762        9.9448545906      -69.0805061029  TIP3      12176           0.0000000000
     58780     12368  TIP3      H2             30.4257697815       10.0731430613      -70.5595409523  TIP3      12176           0.0000000000
     58781     12369  TIP3      OH2            23.1096138763       10.2664813849      -68.2431348337  TIP3      12177           0.0000000000
     58782     12369  TIP3      H1             23.1935658037        9.5787033896      -67.5496606830  TIP3      12177           0.0000000000
     58783     12369  TIP3      H2             23.8593863888       10.8365927589      -68.0193419209  TIP3      12177           0.0000000000
     58784     12370  TIP3      OH2            34.4637086381       13.5137113260      -71.5007763900  TIP3      12178           0.0000000000
     58785     12370  TIP3      H1             34.0388955356       12.8060181472      -71.0081375134  TIP3      12178           0.0000000000
     58786     12370  TIP3      H2             34.4674467506       14.2346084216      -70.8476534450  TIP3      12178           0.0000000000
     58787     12371  TIP3      OH2            24.0354743105       14.7135069868      -69.7420631794  TIP3      12179           0.0000000000
     58788     12371  TIP3      H1             23.7245257880       13.8441963906      -70.0610538038  TIP3      12179           0.0000000000
     58789     12371  TIP3      H2             24.9911205045       14.5312561328      -69.6972043837  TIP3      12179           0.0000000000
     58790     12372  TIP3      OH2            20.6755124423        8.2702188092      -74.2506050607  TIP3      12180           0.0000000000
     58791     12372  TIP3      H1             20.2396770431        9.1416870070      -74.3091345903  TIP3      12180           0.0000000000
     58792     12372  TIP3      H2             20.1104360402        7.7309475096      -74.8208599183  TIP3      12180           0.0000000000
     58793     12373  TIP3      OH2            21.3871685442       10.4953512814      -72.1018772401  TIP3      12181           0.0000000000
     58794     12373  TIP3      H1             21.6627150934        9.6736206873      -71.6519093003  TIP3      12181           0.0000000000
     58795     12373  TIP3      H2             22.0802476593       10.6027010949      -72.7709858237  TIP3      12181           0.0000000000
     58796     12374  TIP3      OH2            31.5727041877       18.6984999534      -71.2840287212  TIP3      12182           0.0000000000
     58797     12374  TIP3      H1             32.2115880805       17.9966574514      -71.5592756626  TIP3      12182           0.0000000000
     58798     12374  TIP3      H2             31.3341266566       18.3616758394      -70.4156646593  TIP3      12182           0.0000000000
     58799     12375  TIP3      OH2            29.1391240726       12.9864551435      -69.3179293820  TIP3      12183           0.0000000000
     58800     12375  TIP3      H1             29.4710590042       12.3608192375      -69.9821817281  TIP3      12183           0.0000000000
     58801     12375  TIP3      H2             29.9519948732       13.1455016786      -68.8067226444  TIP3      12183           0.0000000000
     58802     12376  TIP3      OH2            32.3122522295        7.4638629865      -69.0137801945  TIP3      12184           0.0000000000
     58803     12376  TIP3      H1             32.4763075230        6.5037888290      -69.0234945982  TIP3      12184           0.0000000000
     58804     12376  TIP3      H2             32.2101029921        7.6082329661      -69.9742445551  TIP3      12184           0.0000000000
     58805     12377  TIP3      OH2            25.4127102172        5.5478500369      -71.7940814338  TIP3      12185           0.0000000000
     58806     12377  TIP3      H1             25.5212907950        6.3816363485      -72.2883196648  TIP3      12185           0.0000000000
     58807     12377  TIP3      H2             25.0152873061        4.9734268903      -72.4843497796  TIP3      12185           0.0000000000
     58808     12378  TIP3      OH2            33.1779492237        5.6686216997      -73.4082589179  TIP3      12186           0.0000000000
     58809     12378  TIP3      H1             33.8206018314        5.3071963494      -72.7492659983  TIP3      12186           0.0000000000
     58810     12378  TIP3      H2             33.7722263563        6.1885164348      -73.9594058252  TIP3      12186           0.0000000000
     58811     12379  TIP3      OH2            22.0380662914        7.9577332733      -71.0604705671  TIP3      12187           0.0000000000
     58812     12379  TIP3      H1             22.7072716357        7.4135727181      -70.6053583026  TIP3      12187           0.0000000000
     58813     12379  TIP3      H2             22.1435435533        7.6429684672      -71.9715663728  TIP3      12187           0.0000000000
     58814     12380  TIP3      OH2            27.1941553597        9.5147207445      -71.7394010410  TIP3      12188           0.0000000000
     58815     12380  TIP3      H1             27.8673715676        8.9327610181      -71.3466650492  TIP3      12188           0.0000000000
     58816     12380  TIP3      H2             26.6809373072        8.8594739313      -72.2519372810  TIP3      12188           0.0000000000
     58817     12381  TIP3      OH2            24.3237244081        4.4467543390      -67.7547599289  TIP3      12189           0.0000000000
     58818     12381  TIP3      H1             24.0413486345        5.0179608429      -68.5004070190  TIP3      12189           0.0000000000
     58819     12381  TIP3      H2             23.6459252576        4.6746363046      -67.0725295562  TIP3      12189           0.0000000000
     58820     12382  TIP3      OH2            31.5899044145       13.9088044853      -74.2165465323  TIP3      12190           0.0000000000
     58821     12382  TIP3      H1             31.3387172792       13.6559742835      -75.1178767562  TIP3      12190           0.0000000000
     58822     12382  TIP3      H2             31.2982304229       14.8460741064      -74.1561623256  TIP3      12190           0.0000000000
     58823     12383  TIP3      OH2            26.8359880881       12.0880794780      -67.5164581647  TIP3      12191           0.0000000000
     58824     12383  TIP3      H1             26.1323362210       12.7326278441      -67.2964102909  TIP3      12191           0.0000000000
     58825     12383  TIP3      H2             27.5421126928       12.6873809942      -67.8065033956  TIP3      12191           0.0000000000
     58826     12384  TIP3      OH2            34.6607018349        4.9460686487      -71.3090917677  TIP3      12192           0.0000000000
     58827     12384  TIP3      H1             34.6909783918        4.1246914968      -70.8158029592  TIP3      12192           0.0000000000
     58828     12384  TIP3      H2             35.4287376517        5.4112136513      -70.9140236263  TIP3      12192           0.0000000000
     58829     12385  TIP3      OH2            23.8917824285        6.3028841877      -69.7180658633  TIP3      12193           0.0000000000
     58830     12385  TIP3      H1             24.5190604167        6.9922671246      -69.4056704935  TIP3      12193           0.0000000000
     58831     12385  TIP3      H2             24.4091983684        5.8936160336      -70.4568379036  TIP3      12193           0.0000000000
     58832     12386  TIP3      OH2            25.2848630612       14.0950838350      -66.6947255763  TIP3      12194           0.0000000000
     58833     12386  TIP3      H1             25.2347447657       15.0080817077      -67.0327228935  TIP3      12194           0.0000000000
     58834     12386  TIP3      H2             24.4019997526       14.0143004128      -66.2526734237  TIP3      12194           0.0000000000
     58835     12387  TIP3      OH2            21.3247640830       13.7316596673      -75.9002242456  TIP3      12195           0.0000000000
     58836     12387  TIP3      H1             21.1325184311       14.0539528545      -76.8002533365  TIP3      12195           0.0000000000
     58837     12387  TIP3      H2             21.4182941535       14.5637709451      -75.3929854854  TIP3      12195           0.0000000000
     58838     12388  TIP3      OH2            34.7730655798       15.3011047729      -69.0492556253  TIP3      12196           0.0000000000
     58839     12388  TIP3      H1             33.8152041871       15.5148055657      -69.0061548705  TIP3      12196           0.0000000000
     58840     12388  TIP3      H2             35.1566230125       16.1459060279      -69.3522747938  TIP3      12196           0.0000000000
     58841     12389  TIP3      OH2            35.0969083818        3.7896208696      -68.0041223441  TIP3      12197           0.0000000000
     58842     12389  TIP3      H1             34.4024206919        4.4678144678      -67.8942454811  TIP3      12197           0.0000000000
     58843     12389  TIP3      H2             35.8590023840        4.2842972748      -68.3262785127  TIP3      12197           0.0000000000
     58844     12390  TIP3      OH2            28.2605146515        1.7793335185      -70.2893022450  TIP3      12198           0.0000000000
     58845     12390  TIP3      H1             28.1243222713        0.8149291533      -70.3607116937  TIP3      12198           0.0000000000
     58846     12390  TIP3      H2             27.3819965817        2.0852742685      -69.9825149266  TIP3      12198           0.0000000000
     58847     12391  TIP3      OH2            33.1483752303       17.0871278677      -72.5359480392  TIP3      12199           0.0000000000
     58848     12391  TIP3      H1             33.6379472728       16.4093661312      -73.0447935608  TIP3      12199           0.0000000000
     58849     12391  TIP3      H2             33.6009408579       17.8899698927      -72.8800309749  TIP3      12199           0.0000000000
     58850     12392  TIP3      OH2            34.4278626898       15.0744007309      -74.0373718324  TIP3      12200           0.0000000000
     58851     12392  TIP3      H1             34.1773621469       14.3657011716      -74.6512803753  TIP3      12200           0.0000000000
     58852     12392  TIP3      H2             34.4917188009       14.5679363872      -73.2017434181  TIP3      12200           0.0000000000
     58853     12393  TIP3      OH2            35.8019522384       13.8190768314      -65.4212822542  TIP3      12201           0.0000000000
     58854     12393  TIP3      H1             36.0792402722       13.1216258870      -66.0472735888  TIP3      12201           0.0000000000
     58855     12393  TIP3      H2             36.2101272813       14.5783839757      -65.8782106467  TIP3      12201           0.0000000000
     58856     12394  TIP3      OH2            30.5422349999       10.5739670111      -75.8110505036  TIP3      12202           0.0000000000
     58857     12394  TIP3      H1             29.8599210661       11.1663690882      -76.1840977920  TIP3      12202           0.0000000000
     58858     12394  TIP3      H2             31.2586708445       10.6513184683      -76.4670230575  TIP3      12202           0.0000000000
     58859     12395  TIP3      OH2            30.5772395768        9.0644086478      -78.6676511499  TIP3      12203           0.0000000000
     58860     12395  TIP3      H1             31.3534409590        9.1249349855      -78.0976452839  TIP3      12203           0.0000000000
     58861     12395  TIP3      H2             30.9178839990        8.4716579313      -79.3372217020  TIP3      12203           0.0000000000
     58862     12396  TIP3      OH2            33.9731296631       10.7956236745      -74.8873282449  TIP3      12204           0.0000000000
     58863     12396  TIP3      H1             33.2531870837       11.0431265526      -74.2604857526  TIP3      12204           0.0000000000
     58864     12396  TIP3      H2             34.4582137576       10.1560709814      -74.3208171834  TIP3      12204           0.0000000000
     58865     12397  TIP3      OH2            33.9518006351        8.9619689322      -65.7634893850  TIP3      12205           0.0000000000
     58866     12397  TIP3      H1             33.9027987832        9.7602583648      -65.2128862916  TIP3      12205           0.0000000000
     58867     12397  TIP3      H2             33.3104594731        9.2297208246      -66.4475759767  TIP3      12205           0.0000000000
     58868     12398  TIP3      OH2            25.6158965058       11.4387000283      -72.9413185334  TIP3      12206           0.0000000000
     58869     12398  TIP3      H1             25.2969525165       11.0493996493      -73.7911551503  TIP3      12206           0.0000000000
     58870     12398  TIP3      H2             26.2322920432       10.7493849782      -72.6077688106  TIP3      12206           0.0000000000
     58871     12399  TIP3      OH2            26.9355258788       14.8229925719      -70.2626909083  TIP3      12207           0.0000000000
     58872     12399  TIP3      H1             26.9331526255       14.3002158957      -71.0737650382  TIP3      12207           0.0000000000
     58873     12399  TIP3      H2             27.7194064527       14.4695119832      -69.8035349634  TIP3      12207           0.0000000000
     58874     12400  TIP3      OH2            25.9450500664       10.1870282169      -69.2793308266  TIP3      12208           0.0000000000
     58875     12400  TIP3      H1             26.4954091409       10.2854840499      -70.0811033422  TIP3      12208           0.0000000000
     58876     12400  TIP3      H2             26.3357656315       10.8524525271      -68.6704486301  TIP3      12208           0.0000000000
     58877     12401  TIP3      OH2            32.2864778867       15.7766816915      -68.5889509723  TIP3      12209           0.0000000000
     58878     12401  TIP3      H1             32.0894914780       16.3999759298      -67.8865840519  TIP3      12209           0.0000000000
     58879     12401  TIP3      H2             32.1078930118       14.9073052177      -68.1561255164  TIP3      12209           0.0000000000
     58880     12402  TIP3      OH2            26.9003545639       14.6186362323      -64.5842069650  TIP3      12210           0.0000000000
     58881     12402  TIP3      H1             26.4854826550       15.3574403683      -64.0938291119  TIP3      12210           0.0000000000
     58882     12402  TIP3      H2             26.2279696533       14.4186435167      -65.2813683263  TIP3      12210           0.0000000000
     58883     12403  TIP3      OH2            32.8924693414        9.9494252641      -77.1765623158  TIP3      12211           0.0000000000
     58884     12403  TIP3      H1             33.4166195278       10.1867166017      -76.3696392101  TIP3      12211           0.0000000000
     58885     12403  TIP3      H2             33.2687885090       10.5319870426      -77.8616555278  TIP3      12211           0.0000000000
     58886     12404  TIP3      OH2            23.8424446097       10.7779174999      -65.4316501174  TIP3      12212           0.0000000000
     58887     12404  TIP3      H1             23.8952557435       11.4458170909      -64.7222377992  TIP3      12212           0.0000000000
     58888     12404  TIP3      H2             22.8997443701       10.8659066940      -65.6423077282  TIP3      12212           0.0000000000
     58889     12405  TIP3      OH2            30.5789827058       16.6999388367      -73.7194680386  TIP3      12213           0.0000000000
     58890     12405  TIP3      H1             31.0175262317       17.0079400286      -72.9153487707  TIP3      12213           0.0000000000
     58891     12405  TIP3      H2             30.0279323274       17.4493181303      -73.9716091361  TIP3      12213           0.0000000000
     58892     12406  TIP3      OH2            25.1472447785       16.6525767159      -63.8371616893  TIP3      12214           0.0000000000
     58893     12406  TIP3      H1             25.0859832028       16.5539807509      -64.8028255792  TIP3      12214           0.0000000000
     58894     12406  TIP3      H2             24.2174629772       16.5186552396      -63.5696109033  TIP3      12214           0.0000000000
     58895     12407  TIP3      OH2            24.5769441934       10.4626969525      -75.3105490711  TIP3      12215           0.0000000000
     58896     12407  TIP3      H1             24.3077020156       11.2372817892      -75.8511218622  TIP3      12215           0.0000000000
     58897     12407  TIP3      H2             23.9316200787        9.7978342888      -75.5623454719  TIP3      12215           0.0000000000
     58898     12408  TIP3      OH2            20.6720071084       12.8922189705      -66.4236643255  TIP3      12216           0.0000000000
     58899     12408  TIP3      H1             20.2325082876       12.8114574455      -67.2905741227  TIP3      12216           0.0000000000
     58900     12408  TIP3      H2             20.7578418316       11.9441832187      -66.2112020479  TIP3      12216           0.0000000000
     58901     12409  TIP3      OH2            20.4409831324       15.6104814136      -69.6257964414  TIP3      12217           0.0000000000
     58902     12409  TIP3      H1             21.3999645663       15.5270111432      -69.6865354811  TIP3      12217           0.0000000000
     58903     12409  TIP3      H2             20.3561442188       16.4405603824      -69.1417850025  TIP3      12217           0.0000000000
     58904     12410  TIP3      OH2            29.6337354390       15.8720241239      -65.1002630177  TIP3      12218           0.0000000000
     58905     12410  TIP3      H1             29.6919800731       16.7145193350      -64.5917356111  TIP3      12218           0.0000000000
     58906     12410  TIP3      H2             28.7612952031       15.5121489844      -64.8490137345  TIP3      12218           0.0000000000
     58907     12411  TIP3      OH2            30.0772197468       19.6128077374      -75.3153501741  TIP3      12219           0.0000000000
     58908     12411  TIP3      H1             29.9937585988       19.5658523590      -76.2879855445  TIP3      12219           0.0000000000
     58909     12411  TIP3      H2             30.1163670592       20.5767399548      -75.1471320971  TIP3      12219           0.0000000000
     58910     12412  TIP3      OH2            23.7124887026       18.4820958586      -73.4943272016  TIP3      12220           0.0000000000
     58911     12412  TIP3      H1             23.8388681962       18.0730854748      -72.6102531576  TIP3      12220           0.0000000000
     58912     12412  TIP3      H2             22.8491484897       18.1033451344      -73.7271694195  TIP3      12220           0.0000000000
     58913     12413  TIP3      OH2            33.0730566582       18.8104200825      -78.3614904062  TIP3      12221           0.0000000000
     58914     12413  TIP3      H1             33.5740195474       18.0605121413      -78.7582056571  TIP3      12221           0.0000000000
     58915     12413  TIP3      H2             33.1336361104       18.5906943211      -77.4090039237  TIP3      12221           0.0000000000
     58916     12414  TIP3      OH2            32.7918596840       18.7488848773      -75.5277890820  TIP3      12222           0.0000000000
     58917     12414  TIP3      H1             31.8353511657       18.8301677918      -75.3465161199  TIP3      12222           0.0000000000
     58918     12414  TIP3      H2             33.0417821763       18.0099440725      -74.9536038411  TIP3      12222           0.0000000000
     58919     12415  TIP3      OH2            35.3252269362        7.9743683638      -63.4604302534  TIP3      12223           0.0000000000
     58920     12415  TIP3      H1             35.2885035515        8.3233028853      -64.3548603748  TIP3      12223           0.0000000000
     58921     12415  TIP3      H2             35.8633807827        7.1481750055      -63.6135371536  TIP3      12223           0.0000000000
     58922     12416  TIP3      OH2            22.9601572009       14.2138524556      -65.4960463846  TIP3      12224           0.0000000000
     58923     12416  TIP3      H1             23.1803863298       13.8491224389      -64.6150079409  TIP3      12224           0.0000000000
     58924     12416  TIP3      H2             22.0923011205       13.8120089434      -65.7034333617  TIP3      12224           0.0000000000
     58925     12417  TIP3      OH2            25.6442795359        2.6833585291      -69.5383836873  TIP3      12225           0.0000000000
     58926     12417  TIP3      H1             24.7411406059        2.5565177492      -69.9052603616  TIP3      12225           0.0000000000
     58927     12417  TIP3      H2             25.5097567642        3.5136071165      -69.0524041730  TIP3      12225           0.0000000000
     58928     12418  TIP3      OH2            30.2887380565        2.3458444570      -66.1780744121  TIP3      12226           0.0000000000
     58929     12418  TIP3      H1             30.6844243552        1.9292767380      -65.3901179640  TIP3      12226           0.0000000000
     58930     12418  TIP3      H2             29.3160009979        2.2323888301      -66.0309524860  TIP3      12226           0.0000000000
     58931     12419  TIP3      OH2            33.5027874269        6.1545036675      -65.3375862619  TIP3      12227           0.0000000000
     58932     12419  TIP3      H1             33.0191956808        5.9838172380      -64.4953234014  TIP3      12227           0.0000000000
     58933     12419  TIP3      H2             33.4268438344        7.1109980384      -65.4713547457  TIP3      12227           0.0000000000
     58934     12420  TIP3      OH2            34.4968843321       10.9925527733      -79.3277934657  TIP3      12228           0.0000000000
     58935     12420  TIP3      H1             34.4173953280       10.8846200295      -80.2934194211  TIP3      12228           0.0000000000
     58936     12420  TIP3      H2             35.2608868892       11.5709577007      -79.2711584272  TIP3      12228           0.0000000000
     58937     12421  TIP3      OH2            29.9392101518        4.9066851344      -78.8291116380  TIP3      12229           0.0000000000
     58938     12421  TIP3      H1             29.6180205552        4.8717323807      -77.9084855406  TIP3      12229           0.0000000000
     58939     12421  TIP3      H2             29.6833873004        4.0268257859      -79.1197534196  TIP3      12229           0.0000000000
     58940     12422  TIP3      OH2            25.7526193804        7.6622443044      -68.2734171539  TIP3      12230           0.0000000000
     58941     12422  TIP3      H1             25.0076677242        7.6478219221      -67.6462743320  TIP3      12230           0.0000000000
     58942     12422  TIP3      H2             25.6982911287        8.5662480742      -68.6569623551  TIP3      12230           0.0000000000
     58943     12423  TIP3      OH2            25.7039433850        7.7663567694      -73.4179232680  TIP3      12231           0.0000000000
     58944     12423  TIP3      H1             24.7655664398        7.5212555442      -73.5543149104  TIP3      12231           0.0000000000
     58945     12423  TIP3      H2             26.0806603858        7.4845290253      -74.2774526727  TIP3      12231           0.0000000000
     58946     12424  TIP3      OH2            31.2470452153        8.2751989008      -74.6767133806  TIP3      12232           0.0000000000
     58947     12424  TIP3      H1             30.8210173059        9.0997729371      -75.0048637498  TIP3      12232           0.0000000000
     58948     12424  TIP3      H2             31.9264963108        8.1222194613      -75.3502968753  TIP3      12232           0.0000000000
     58949     12425  TIP3      OH2            30.2915197109        8.4878719079      -63.2072721831  TIP3      12233           0.0000000000
     58950     12425  TIP3      H1             29.7739563824        7.7058622084      -62.9041908373  TIP3      12233           0.0000000000
     58951     12425  TIP3      H2             31.1348901412        8.3641297706      -62.7372911900  TIP3      12233           0.0000000000
     58952     12426  TIP3      OH2            32.2307924167        7.7801063095      -71.7827839347  TIP3      12234           0.0000000000
     58953     12426  TIP3      H1             31.9981583742        8.3286956322      -72.5519068288  TIP3      12234           0.0000000000
     58954     12426  TIP3      H2             32.3579667404        6.9246769345      -72.2420636319  TIP3      12234           0.0000000000
     58955     12427  TIP3      OH2            23.3665960660        7.9061133714      -66.6060985222  TIP3      12235           0.0000000000
     58956     12427  TIP3      H1             23.4502850249        8.3142026927      -65.7266383750  TIP3      12235           0.0000000000
     58957     12427  TIP3      H2             22.9268237401        7.0673726155      -66.3948249559  TIP3      12235           0.0000000000
     58958     12428  TIP3      OH2            26.9628165219        5.5939163774      -79.3666527096  TIP3      12236           0.0000000000
     58959     12428  TIP3      H1             26.4010608770        4.9416398247      -78.9051900031  TIP3      12236           0.0000000000
     58960     12428  TIP3      H2             26.3999262154        5.9308593884      -80.0770562418  TIP3      12236           0.0000000000
     58961     12429  TIP3      OH2            20.0259436679        5.0153970953      -72.6136635272  TIP3      12237           0.0000000000
     58962     12429  TIP3      H1             20.7101268646        4.9762403435      -71.9152342528  TIP3      12237           0.0000000000
     58963     12429  TIP3      H2             20.4727984146        4.6416193136      -73.3964452163  TIP3      12237           0.0000000000
     58964     12430  TIP3      OH2            21.3074411882        5.7553504807      -77.2532777722  TIP3      12238           0.0000000000
     58965     12430  TIP3      H1             21.8207842095        6.3411947169      -77.8443053647  TIP3      12238           0.0000000000
     58966     12430  TIP3      H2             20.6130683664        6.3762935705      -76.9613475073  TIP3      12238           0.0000000000
     58967     12431  TIP3      OH2            31.4419340021        9.3408344866      -67.2569115093  TIP3      12239           0.0000000000
     58968     12431  TIP3      H1             31.8382078082        8.6483659611      -67.8290524343  TIP3      12239           0.0000000000
     58969     12431  TIP3      H2             30.9785154099        8.8185007833      -66.5785806785  TIP3      12239           0.0000000000
     58970     12432  TIP3      OH2            28.2524552409        5.3341376396      -72.4118931535  TIP3      12240           0.0000000000
     58971     12432  TIP3      H1             27.3159955120        5.3319298082      -72.1109719112  TIP3      12240           0.0000000000
     58972     12432  TIP3      H2             28.7516779662        5.1583786356      -71.5981624099  TIP3      12240           0.0000000000
     58973     12433  TIP3      OH2            23.0678090966        6.8765358167      -73.5449671188  TIP3      12241           0.0000000000
     58974     12433  TIP3      H1             22.1851003681        7.0344599366      -73.9378697591  TIP3      12241           0.0000000000
     58975     12433  TIP3      H2             23.3532094499        6.0439581466      -73.9561643458  TIP3      12241           0.0000000000
     58976     12434  TIP3      OH2            26.7034983885        6.9536926575      -75.9015230622  TIP3      12242           0.0000000000
     58977     12434  TIP3      H1             27.6650059941        7.0369295447      -75.7455554943  TIP3      12242           0.0000000000
     58978     12434  TIP3      H2             26.4810852396        7.5907099237      -76.6042443807  TIP3      12242           0.0000000000
     58979     12435  TIP3      OH2            32.5954494578        4.5332901181      -69.1605003251  TIP3      12243           0.0000000000
     58980     12435  TIP3      H1             31.9263566379        4.6047902527      -68.4564504345  TIP3      12243           0.0000000000
     58981     12435  TIP3      H2             32.1002003837        4.3209396896      -69.9660282491  TIP3      12243           0.0000000000
     58982     12436  TIP3      OH2            25.4184616500        8.1033205713      -78.3293226593  TIP3      12244           0.0000000000
     58983     12436  TIP3      H1             24.8487155474        7.7507172714      -79.0301470897  TIP3      12244           0.0000000000
     58984     12436  TIP3      H2             26.2358588052        8.3049706791      -78.8127544193  TIP3      12244           0.0000000000
     58985     12437  TIP3      OH2            35.7680903963       20.2494227840      -62.8183683253  TIP3      12245           0.0000000000
     58986     12437  TIP3      H1             36.1093213298       20.5791911385      -63.6637903221  TIP3      12245           0.0000000000
     58987     12437  TIP3      H2             36.5159127221       20.5061489814      -62.2509653125  TIP3      12245           0.0000000000
     58988     12438  TIP3      OH2            23.5421554369       12.6750032525      -63.2777110181  TIP3      12246           0.0000000000
     58989     12438  TIP3      H1             24.2627596270       12.9190893426      -62.6736523189  TIP3      12246           0.0000000000
     58990     12438  TIP3      H2             22.7698264979       12.7539173046      -62.6759575434  TIP3      12246           0.0000000000
     58991     12439  TIP3      OH2            29.5395841289        8.0821870127      -70.5231019695  TIP3      12247           0.0000000000
     58992     12439  TIP3      H1             30.1464860545        7.5521288077      -71.0548227862  TIP3      12247           0.0000000000
     58993     12439  TIP3      H2             29.3955304536        7.5348479640      -69.7399332063  TIP3      12247           0.0000000000
     58994     12440  TIP3      OH2            24.5502003480        4.2232612855      -74.0675515611  TIP3      12248           0.0000000000
     58995     12440  TIP3      H1             24.2390114546        3.3017311711      -74.0911822338  TIP3      12248           0.0000000000
     58996     12440  TIP3      H2             25.3364834931        4.1568154336      -74.6267743101  TIP3      12248           0.0000000000
     58997     12441  TIP3      OH2            28.1809542006        6.4077675568      -68.1071112170  TIP3      12249           0.0000000000
     58998     12441  TIP3      H1             27.3575968945        6.9289467755      -68.0202058464  TIP3      12249           0.0000000000
     58999     12441  TIP3      H2             28.7371343333        6.7621501065      -67.3868558754  TIP3      12249           0.0000000000
     59000     12442  TIP3      OH2            28.7797767254       12.6155397434      -76.3815116390  TIP3      12250           0.0000000000
     59001     12442  TIP3      H1             27.9750214828       12.1667524955      -76.7251515263  TIP3      12250           0.0000000000
     59002     12442  TIP3      H2             28.5512824167       12.7501508762      -75.4417196297  TIP3      12250           0.0000000000
     59003     12443  TIP3      OH2            35.6408920967       11.8564157643      -67.6132602322  TIP3      12251           0.0000000000
     59004     12443  TIP3      H1             36.3664004755       11.9854841187      -68.2635416674  TIP3      12251           0.0000000000
     59005     12443  TIP3      H2             34.8775222847       11.8603199652      -68.2214118044  TIP3      12251           0.0000000000
     59006     12444  TIP3      OH2            32.6430470673        5.4530614676      -78.2075795956  TIP3      12252           0.0000000000
     59007     12444  TIP3      H1             31.6960597553        5.5659474068      -78.4052161943  TIP3      12252           0.0000000000
     59008     12444  TIP3      H2             32.9233799861        6.3272588397      -77.8857632152  TIP3      12252           0.0000000000
     59009     12445  TIP3      OH2            30.2719982741       12.9027443529      -65.1673101224  TIP3      12253           0.0000000000
     59010     12445  TIP3      H1             29.9099843895       12.4770111632      -64.3841785952  TIP3      12253           0.0000000000
     59011     12445  TIP3      H2             30.0324300308       13.8285004539      -65.0597750910  TIP3      12253           0.0000000000
     59012     12446  TIP3      OH2            33.3518587595        7.3873141812      -76.6321397228  TIP3      12254           0.0000000000
     59013     12446  TIP3      H1             34.2265724866        7.2386855559      -76.2197826020  TIP3      12254           0.0000000000
     59014     12446  TIP3      H2             33.4261511675        8.2393618591      -77.0842947137  TIP3      12254           0.0000000000
     59015     12447  TIP3      OH2            23.8833819574       12.0321883180      -70.6101155866  TIP3      12255           0.0000000000
     59016     12447  TIP3      H1             24.5582406591       11.9464457256      -71.3123219076  TIP3      12255           0.0000000000
     59017     12447  TIP3      H2             23.9392631541       11.1720783621      -70.1553785953  TIP3      12255           0.0000000000
     59018     12448  TIP3      OH2            30.8545213225       14.0953162408      -77.3542120625  TIP3      12256           0.0000000000
     59019     12448  TIP3      H1             30.4980446475       14.9429353294      -77.0076567687  TIP3      12256           0.0000000000
     59020     12448  TIP3      H2             30.1225793113       13.4674410515      -77.1611690772  TIP3      12256           0.0000000000
     59021     12449  TIP3      OH2            20.8697601942       10.4305823040      -65.3491281585  TIP3      12257           0.0000000000
     59022     12449  TIP3      H1             21.0393583542        9.9865115615      -64.4954899569  TIP3      12257           0.0000000000
     59023     12449  TIP3      H2             20.2488226871        9.8219960189      -65.7879175061  TIP3      12257           0.0000000000
     59024     12450  TIP3      OH2            27.8820461665        9.9921053057      -63.1733678420  TIP3      12258           0.0000000000
     59025     12450  TIP3      H1             27.5623464089        9.6824707064      -64.0329126816  TIP3      12258           0.0000000000
     59026     12450  TIP3      H2             28.8045469235        9.6674146455      -63.1741899431  TIP3      12258           0.0000000000
     59027     12451  TIP3      OH2            32.5661005995       15.3120754569      -65.2197564925  TIP3      12259           0.0000000000
     59028     12451  TIP3      H1             31.6469000134       15.4955827430      -65.4587707638  TIP3      12259           0.0000000000
     59029     12451  TIP3      H2             32.5397090391       15.6161440473      -64.2925053675  TIP3      12259           0.0000000000
     59030     12452  TIP3      OH2            33.6760775324       11.1273286621      -69.3209776250  TIP3      12260           0.0000000000
     59031     12452  TIP3      H1             32.7401112297       10.9092542175      -69.4631086861  TIP3      12260           0.0000000000
     59032     12452  TIP3      H2             34.1558568607       10.3922197424      -69.7428089438  TIP3      12260           0.0000000000
     59033     12453  TIP3      OH2            26.2541286258       15.4856490568      -73.2263599644  TIP3      12261           0.0000000000
     59034     12453  TIP3      H1             26.7508091164       16.2915723289      -73.4313223308  TIP3      12261           0.0000000000
     59035     12453  TIP3      H2             25.3742384309       15.7160253520      -73.5558267283  TIP3      12261           0.0000000000
     59036     12454  TIP3      OH2            21.9953841821       10.3559515768      -78.7097490140  TIP3      12262           0.0000000000
     59037     12454  TIP3      H1             22.6072964804       10.9576724976      -78.2458875877  TIP3      12262           0.0000000000
     59038     12454  TIP3      H2             21.1208948327       10.6129338614      -78.3595825808  TIP3      12262           0.0000000000
     59039     12455  TIP3      OH2            27.6702284963       13.1467376317      -73.6997272286  TIP3      12263           0.0000000000
     59040     12455  TIP3      H1             27.3521729902       14.0663925183      -73.6238576750  TIP3      12263           0.0000000000
     59041     12455  TIP3      H2             26.9483933287       12.6547954063      -73.2608503072  TIP3      12263           0.0000000000
     59042     12456  TIP3      OH2            28.1154926161       17.3340051444      -67.2951403104  TIP3      12264           0.0000000000
     59043     12456  TIP3      H1             28.5789030193       18.1378263037      -67.5832753557  TIP3      12264           0.0000000000
     59044     12456  TIP3      H2             28.7297724475       16.9925005909      -66.6197407682  TIP3      12264           0.0000000000
     59045     12457  TIP3      OH2            26.3520066885       18.1450184931      -74.1930064340  TIP3      12265           0.0000000000
     59046     12457  TIP3      H1             25.3895387367       18.2736535715      -74.0345102664  TIP3      12265           0.0000000000
     59047     12457  TIP3      H2             26.7069222800       18.9770776912      -73.8280176189  TIP3      12265           0.0000000000
     59048     12458  TIP3      OH2            31.6602879227       13.3297923081      -67.6760511886  TIP3      12266           0.0000000000
     59049     12458  TIP3      H1             31.3174573270       13.1354966314      -66.7779519775  TIP3      12266           0.0000000000
     59050     12458  TIP3      H2             32.2865623391       12.6094835903      -67.8471270480  TIP3      12266           0.0000000000
     59051     12459  TIP3      OH2            33.9603352781       14.3295876467      -78.5766017816  TIP3      12267           0.0000000000
     59052     12459  TIP3      H1             34.2700705637       13.9118390101      -77.7528661353  TIP3      12267           0.0000000000
     59053     12459  TIP3      H2             32.9960758263       14.2151498289      -78.4985520979  TIP3      12267           0.0000000000
     59054     12460  TIP3      OH2            34.4659730695       17.8867738308      -65.2065111701  TIP3      12268           0.0000000000
     59055     12460  TIP3      H1             33.7403188852       17.4223513657      -65.6743897438  TIP3      12268           0.0000000000
     59056     12460  TIP3      H2             34.6688843002       18.6077041572      -65.8419344890  TIP3      12268           0.0000000000
     59057     12461  TIP3      OH2            22.5191871116        5.1668620172      -65.8029257437  TIP3      12269           0.0000000000
     59058     12461  TIP3      H1             21.6126945303        5.5186819002      -65.8207970226  TIP3      12269           0.0000000000
     59059     12461  TIP3      H2             22.4081976626        4.3227610057      -65.3374276227  TIP3      12269           0.0000000000
     59060     12462  TIP3      OH2            34.7699167688       12.9802183888      -76.3628010904  TIP3      12270           0.0000000000
     59061     12462  TIP3      H1             34.5241353992       12.2155112513      -75.7958109398  TIP3      12270           0.0000000000
     59062     12462  TIP3      H2             35.6976328642       13.1173701553      -76.1002423537  TIP3      12270           0.0000000000
     59063     12463  TIP3      OH2            22.1300763788       16.9495072773      -67.3722745953  TIP3      12271           0.0000000000
     59064     12463  TIP3      H1             22.4365061477       16.0295874290      -67.3673149017  TIP3      12271           0.0000000000
     59065     12463  TIP3      H2             22.3950533333       17.2410872390      -66.4930565998  TIP3      12271           0.0000000000
     59066     12464  TIP3      OH2            26.8838141821       15.0395420145      -77.6701114426  TIP3      12272           0.0000000000
     59067     12464  TIP3      H1             27.1347319373       14.4769537263      -76.9227000450  TIP3      12272           0.0000000000
     59068     12464  TIP3      H2             26.9712187272       15.9529000178      -77.3226300389  TIP3      12272           0.0000000000
     59069     12465  TIP3      OH2            23.3939737555       12.2444470721      -77.1337713606  TIP3      12273           0.0000000000
     59070     12465  TIP3      H1             22.7132821035       12.6630608599      -76.5681020881  TIP3      12273           0.0000000000
     59071     12465  TIP3      H2             23.9312613147       13.0098399298      -77.4086414640  TIP3      12273           0.0000000000
     59072     12466  TIP3      OH2            31.2201496081        4.9323597707      -66.8244153460  TIP3      12274           0.0000000000
     59073     12466  TIP3      H1             31.9727858176        4.9996634604      -66.2221375967  TIP3      12274           0.0000000000
     59074     12466  TIP3      H2             30.8569138596        4.0508681650      -66.6224340751  TIP3      12274           0.0000000000
     59075     12467  TIP3      OH2            32.0506771720        4.5007321477      -75.7550409423  TIP3      12275           0.0000000000
     59076     12467  TIP3      H1             32.2603880328        4.9932196481      -76.5697750797  TIP3      12275           0.0000000000
     59077     12467  TIP3      H2             32.6076355373        4.9425658098      -75.1032417972  TIP3      12275           0.0000000000
     59078     12468  TIP3      OH2            29.6679597158       16.6855414147      -76.9558894010  TIP3      12276           0.0000000000
     59079     12468  TIP3      H1             28.8541433589       17.2054417419      -76.8486724442  TIP3      12276           0.0000000000
     59080     12468  TIP3      H2             30.2244284596       17.2103924426      -77.5541666438  TIP3      12276           0.0000000000
     59081     12469  TIP3      OH2            29.2195137936        6.2528011685      -74.9392240111  TIP3      12277           0.0000000000
     59082     12469  TIP3      H1             29.9978790009        6.8415124978      -74.9130883920  TIP3      12277           0.0000000000
     59083     12469  TIP3      H2             28.9566246934        6.1431885886      -74.0079500727  TIP3      12277           0.0000000000
     59084     12470  TIP3      OH2            29.8080485580        7.2918633938      -65.7406354990  TIP3      12278           0.0000000000
     59085     12470  TIP3      H1             29.8901665090        7.8499261439      -64.9421740950  TIP3      12278           0.0000000000
     59086     12470  TIP3      H2             30.4579837480        6.5806963749      -65.6499363987  TIP3      12278           0.0000000000
     59087     12471  TIP3      OH2            30.0414114766        3.3230574348      -74.0737479285  TIP3      12279           0.0000000000
     59088     12471  TIP3      H1             29.7579779650        3.9712757900      -73.4086433586  TIP3      12279           0.0000000000
     59089     12471  TIP3      H2             30.7599379682        3.8524552460      -74.5003874487  TIP3      12279           0.0000000000
     59090     12472  TIP3      OH2            27.0395273817       17.7206134263      -76.9008525702  TIP3      12280           0.0000000000
     59091     12472  TIP3      H1             27.1944346802       18.5503762655      -77.4065615258  TIP3      12280           0.0000000000
     59092     12472  TIP3      H2             26.7859174443       18.0634484427      -76.0196850272  TIP3      12280           0.0000000000
     59093     12473  TIP3      OH2            25.7272933578        4.4169671804      -77.2946210742  TIP3      12281           0.0000000000
     59094     12473  TIP3      H1             25.6686757202        5.3292525329      -76.9474037756  TIP3      12281           0.0000000000
     59095     12473  TIP3      H2             26.6388477907        4.1917262176      -77.0211200232  TIP3      12281           0.0000000000
     59096     12474  TIP3      OH2            35.8356647467        4.9253679094      -65.0913656757  TIP3      12282           0.0000000000
     59097     12474  TIP3      H1             35.0025940339        5.4548997123      -65.0557256425  TIP3      12282           0.0000000000
     59098     12474  TIP3      H2             36.2323845587        5.2113898890      -65.9148118689  TIP3      12282           0.0000000000
     59099     12475  TIP3      OH2            34.5676056493        8.9425974474      -70.8414944130  TIP3      12283           0.0000000000
     59100     12475  TIP3      H1             33.7492480005        8.5030212129      -71.1466748465  TIP3      12283           0.0000000000
     59101     12475  TIP3      H2             34.9979441581        8.2297815908      -70.3611424617  TIP3      12283           0.0000000000
     59102     12476  TIP3      OH2            23.9762910943       14.8735367294      -78.3126402112  TIP3      12284           0.0000000000
     59103     12476  TIP3      H1             24.6346469417       15.4867574206      -77.9659125009  TIP3      12284           0.0000000000
     59104     12476  TIP3      H2             24.5141289041       14.4112925791      -78.9881425422  TIP3      12284           0.0000000000
     59105     12477  TIP3      OH2            22.3685428985        7.5601845191      -79.1020784397  TIP3      12285           0.0000000000
     59106     12477  TIP3      H1             22.3338109067        8.5231233821      -78.9792076768  TIP3      12285           0.0000000000
     59107     12477  TIP3      H2             21.4926473210        7.3511745492      -79.4426565758  TIP3      12285           0.0000000000
     59108     12478  TIP3      OH2            35.6979528006       18.2298264166      -69.2291389051  TIP3      12286           0.0000000000
     59109     12478  TIP3      H1             35.5428966806       18.9001807914      -69.9213367266  TIP3      12286           0.0000000000
     59110     12478  TIP3      H2             36.6428873481       18.3176204173      -69.0662787536  TIP3      12286           0.0000000000
     59111     12479  TIP3      OH2            23.1262502935        2.3236230216      -70.4064984362  TIP3      12287           0.0000000000
     59112     12479  TIP3      H1             22.9334243340        2.3410130004      -71.3707361717  TIP3      12287           0.0000000000
     59113     12479  TIP3      H2             22.7125418312        1.4702919342      -70.1578779603  TIP3      12287           0.0000000000
     59114     12480  TIP3      OH2            22.0869183041       16.2361435987      -74.2733098893  TIP3      12288           0.0000000000
     59115     12480  TIP3      H1             21.2281615064       16.6793220554      -74.3031492686  TIP3      12288           0.0000000000
     59116     12480  TIP3      H2             22.5423425542       16.7222391211      -74.9771752202  TIP3      12288           0.0000000000
     59117     12481  TIP3      OH2            21.2791267601       18.8982307870      -62.9766231341  TIP3      12289           0.0000000000
     59118     12481  TIP3      H1             21.8916977273       18.6958697244      -62.2431483820  TIP3      12289           0.0000000000
     59119     12481  TIP3      H2             20.8868282836       18.0272321435      -63.1635357567  TIP3      12289           0.0000000000
     59120     12482  TIP3      OH2            25.9621524160       17.8181999324      -61.3717008618  TIP3      12290           0.0000000000
     59121     12482  TIP3      H1             26.7210778456       17.3187622515      -61.0393983742  TIP3      12290           0.0000000000
     59122     12482  TIP3      H2             25.9402529328       17.5379161334      -62.3076286397  TIP3      12290           0.0000000000
     59123     12483  TIP3      OH2            30.5727766066       17.4381183572      -79.4032227725  TIP3      12291           0.0000000000
     59124     12483  TIP3      H1             29.7112863520       16.9782549054      -79.3970689490  TIP3      12291           0.0000000000
     59125     12483  TIP3      H2             31.0067066642       16.9068719826      -80.0694531024  TIP3      12291           0.0000000000
     59126     12484  TIP3      OH2            32.5280066681       16.1851565789      -62.6261966198  TIP3      12292           0.0000000000
     59127     12484  TIP3      H1             32.1778542781       15.3151654090      -62.3417718492  TIP3      12292           0.0000000000
     59128     12484  TIP3      H2             33.2810158444       16.2927733557      -62.0156767477  TIP3      12292           0.0000000000
     59129     12485  TIP3      OH2            34.6677009759       17.1143323617      -79.7651218905  TIP3      12293           0.0000000000
     59130     12485  TIP3      H1             34.9214244943       16.3047842861      -79.2838519340  TIP3      12293           0.0000000000
     59131     12485  TIP3      H2             35.4612441795       17.2942150206      -80.2842807731  TIP3      12293           0.0000000000
     59132     12486  TIP3      OH2            21.1960839186       12.6685015044      -61.9841078697  TIP3      12294           0.0000000000
     59133     12486  TIP3      H1             21.3627721084       11.7570945391      -62.2857576181  TIP3      12294           0.0000000000
     59134     12486  TIP3      H2             20.4565884468       12.9264430173      -62.5588968323  TIP3      12294           0.0000000000
     59135     12487  TIP3      OH2            25.6519617816       13.0829382498      -79.8401867809  TIP3      12295           0.0000000000
     59136     12487  TIP3      H1             25.7107400818       12.2511471238      -79.3619412676  TIP3      12295           0.0000000000
     59137     12487  TIP3      H2             26.2077915847       12.8511266655      -80.6134986087  TIP3      12295           0.0000000000
     59138     12488  TIP3      OH2            27.9137770341       12.6583260543      -62.5997620935  TIP3      12296           0.0000000000
     59139     12488  TIP3      H1             27.5789585650       12.9696340419      -63.4632290694  TIP3      12296           0.0000000000
     59140     12488  TIP3      H2             27.9884479031       11.6799002083      -62.7075426734  TIP3      12296           0.0000000000
     59141     12489  TIP3      OH2            33.5789569773       12.4775267849      -65.2079955946  TIP3      12297           0.0000000000
     59142     12489  TIP3      H1             34.3715519032       13.0725399723      -65.2610719520  TIP3      12297           0.0000000000
     59143     12489  TIP3      H2             32.9081318386       13.1686345503      -65.1629068919  TIP3      12297           0.0000000000
     59144     12490  TIP3      OH2            22.1194359168        9.8936027903      -62.6050430890  TIP3      12298           0.0000000000
     59145     12490  TIP3      H1             22.5363020053        9.0304659733      -62.6951070136  TIP3      12298           0.0000000000
     59146     12490  TIP3      H2             21.8854537269        9.8987352519      -61.6636636110  TIP3      12298           0.0000000000
     59147     12491  TIP3      OH2            26.7735465535       11.0590566090      -77.5474496161  TIP3      12299           0.0000000000
     59148     12491  TIP3      H1             26.2664382705       10.5164633604      -76.9181971123  TIP3      12299           0.0000000000
     59149     12491  TIP3      H2             27.0838111890       10.3778286038      -78.1890092377  TIP3      12299           0.0000000000
     59150     12492  TIP3      OH2            26.0164862836        8.8377974402      -65.2513030722  TIP3      12300           0.0000000000
     59151     12492  TIP3      H1             25.4202926953        9.5592709228      -64.9941777403  TIP3      12300           0.0000000000
     59152     12492  TIP3      H2             26.4143518719        9.2059840618      -66.0585984221  TIP3      12300           0.0000000000
     59153     12493  TIP3      OH2            27.8499512410        9.2198820624      -79.3438522655  TIP3      12301           0.0000000000
     59154     12493  TIP3      H1             27.7249862540        9.1198337978      -80.2977453654  TIP3      12301           0.0000000000
     59155     12493  TIP3      H2             28.8303733820        9.3054873452      -79.2526619149  TIP3      12301           0.0000000000
     59156     12494  TIP3      OH2            31.0876184302       11.4170385880      -61.9105405188  TIP3      12302           0.0000000000
     59157     12494  TIP3      H1             32.0424102154       11.4014159882      -62.0344955356  TIP3      12302           0.0000000000
     59158     12494  TIP3      H2             30.9356884248       10.6373562092      -61.3519306493  TIP3      12302           0.0000000000
     59159     12495  TIP3      OH2            26.4222816292        6.2158713908      -64.1935983541  TIP3      12303           0.0000000000
     59160     12495  TIP3      H1             26.5397567105        5.5072669756      -64.8528954885  TIP3      12303           0.0000000000
     59161     12495  TIP3      H2             26.3785631041        7.0271357269      -64.7422890939  TIP3      12303           0.0000000000
     59162     12496  TIP3      OH2            26.8269338897        4.5985089385      -66.6386372895  TIP3      12304           0.0000000000
     59163     12496  TIP3      H1             27.3354599867        5.0634014752      -67.3456689247  TIP3      12304           0.0000000000
     59164     12496  TIP3      H2             25.9334179484        4.5205890845      -67.0447183711  TIP3      12304           0.0000000000
     59165     12497  TIP3      OH2            28.3647644638       10.0892479143      -66.3967565239  TIP3      12305           0.0000000000
     59166     12497  TIP3      H1             29.1202167073        9.9229548565      -66.9689901407  TIP3      12305           0.0000000000
     59167     12497  TIP3      H2             28.0052505537       10.9252909140      -66.7325133383  TIP3      12305           0.0000000000
     59168     12498  TIP3      OH2            32.8160809900        7.8691764211      -61.4229495424  TIP3      12306           0.0000000000
     59169     12498  TIP3      H1             33.0371219578        6.9315549717      -61.5371827465  TIP3      12306           0.0000000000
     59170     12498  TIP3      H2             33.6888553712        8.2872550828      -61.4647575293  TIP3      12306           0.0000000000
     59171     12499  TIP3      OH2            34.1236886277       10.6789917104      -63.2639818293  TIP3      12307           0.0000000000
     59172     12499  TIP3      H1             33.8283454772       11.3618631772      -63.9069778560  TIP3      12307           0.0000000000
     59173     12499  TIP3      H2             35.0528398710       10.5648860979      -63.4770964470  TIP3      12307           0.0000000000
     59174     12500  TIP3      OH2            24.8861355169        7.4678446934      -62.2739810369  TIP3      12308           0.0000000000
     59175     12500  TIP3      H1             24.1152806087        6.8895688210      -62.4408499801  TIP3      12308           0.0000000000
     59176     12500  TIP3      H2             25.5388147257        7.0978284648      -62.8940882192  TIP3      12308           0.0000000000
     59177     12501  TIP3      OH2            27.6175057576        2.0350647696      -66.2533204273  TIP3      12309           0.0000000000
     59178     12501  TIP3      H1             27.4337283098        2.9979660496      -66.3455767960  TIP3      12309           0.0000000000
     59179     12501  TIP3      H2             26.8669413921        1.6685078385      -66.7528762469  TIP3      12309           0.0000000000
     59180     12502  TIP3      OH2            28.8851697745        6.3647588045      -62.6224932582  TIP3      12310           0.0000000000
     59181     12502  TIP3      H1             28.5699510890        6.1324556598      -61.7274872993  TIP3      12310           0.0000000000
     59182     12502  TIP3      H2             28.1037868062        6.1622758964      -63.1646357633  TIP3      12310           0.0000000000
     59183     12503  TIP3      OH2            31.5641292349        5.5308600928      -63.5257516037  TIP3      12311           0.0000000000
     59184     12503  TIP3      H1             30.6022572994        5.5518978470      -63.4035882040  TIP3      12311           0.0000000000
     59185     12503  TIP3      H2             31.8835195876        4.8815205325      -62.8747615013  TIP3      12311           0.0000000000
     59186     12504  TIP3      OH2            33.2823560875        4.1030231854      -61.5962471362  TIP3      12312           0.0000000000
     59187     12504  TIP3      H1             33.1303206711        3.1337873894      -61.6015952075  TIP3      12312           0.0000000000
     59188     12504  TIP3      H2             32.9232716524        4.4135104842      -60.7416689858  TIP3      12312           0.0000000000
     59189     12505  TIP3      OH2            22.9607403858        5.4049651749      -62.5166291078  TIP3      12313           0.0000000000
     59190     12505  TIP3      H1             23.2116967079        4.6689747047      -63.1017616420  TIP3      12313           0.0000000000
     59191     12505  TIP3      H2             22.8734456890        4.9563427881      -61.6525515873  TIP3      12313           0.0000000000
     59192     12506  TIP3      OH2            27.8298294400        1.4287370725      -63.5504551487  TIP3      12314           0.0000000000
     59193     12506  TIP3      H1             28.5100068233        0.7261376715      -63.5696957292  TIP3      12314           0.0000000000
     59194     12506  TIP3      H2             27.7151187144        1.5713584482      -64.5105348299  TIP3      12314           0.0000000000
     59195     12507  TIP3      OH2            28.1928412136        3.0421840201      -61.4340527896  TIP3      12315           0.0000000000
     59196     12507  TIP3      H1             28.0181029691        2.5357681692      -62.2660960667  TIP3      12315           0.0000000000
     59197     12507  TIP3      H2             27.5919902087        3.8058223214      -61.5341255289  TIP3      12315           0.0000000000
     59198     12508  TIP3      OH2            27.6518452422       19.9317596876      -78.3092108814  TIP3      12316           0.0000000000
     59199     12508  TIP3      H1             28.6222453628       20.0612969040      -78.2019798791  TIP3      12316           0.0000000000
     59200     12508  TIP3      H2             27.4605355393       20.6033443511      -78.9642851832  TIP3      12316           0.0000000000
     59201     12509  TIP3      OH2            21.2260406256       14.5492199091      -78.7918479977  TIP3      12317           0.0000000000
     59202     12509  TIP3      H1             22.1849021489       14.6661943099      -78.5872039414  TIP3      12317           0.0000000000
     59203     12509  TIP3      H2             21.2810558457       13.9677298662      -79.5582426113  TIP3      12317           0.0000000000
     59204     12510  TIP3      OH2            19.8078437327       19.8583719208      -73.1759359145  TIP3      12318           0.0000000000
     59205     12510  TIP3      H1             19.4476399427       19.6496506335      -74.0738120590  TIP3      12318           0.0000000000
     59206     12510  TIP3      H2             20.4037542214       19.1138080995      -73.0454192468  TIP3      12318           0.0000000000
     59207     12511  TIP3      OH2            20.9476474597       17.9621152648      -71.9158349317  TIP3      12319           0.0000000000
     59208     12511  TIP3      H1             20.4403370430       17.1637472578      -71.7294145042  TIP3      12319           0.0000000000
     59209     12511  TIP3      H2             21.0302916034       18.3870423172      -71.0501336922  TIP3      12319           0.0000000000
     59210     12512  TIP3      OH2            36.2811662586       16.1060700118      -66.7711536819  TIP3      12320           0.0000000000
     59211     12512  TIP3      H1             35.6200578133       16.5392810048      -66.2129971375  TIP3      12320           0.0000000000
     59212     12512  TIP3      H2             35.7539311934       15.7405163091      -67.5051638546  TIP3      12320           0.0000000000
     59213     12513  TIP3      OH2            35.3663108705        9.1123713961      -73.4189151835  TIP3      12321           0.0000000000
     59214     12513  TIP3      H1             35.6209356029        8.1841699681      -73.3881607580  TIP3      12321           0.0000000000
     59215     12513  TIP3      H2             35.4840442847        9.3594322256      -72.4790722823  TIP3      12321           0.0000000000
     59216     12514  TIP3      OH2            20.8741633134       11.1282238282      -69.4547433641  TIP3      12322           0.0000000000
     59217     12514  TIP3      H1             21.0521168806       11.0458687014      -70.4178166552  TIP3      12322           0.0000000000
     59218     12514  TIP3      H2             21.7675110554       10.9500907716      -69.1018014070  TIP3      12322           0.0000000000
     59219     12515  TIP3      OH2            35.5069471025        6.5687310357      -75.2158666171  TIP3      12323           0.0000000000
     59220     12515  TIP3      H1             35.7866299639        5.7213316561      -74.8181713773  TIP3      12323           0.0000000000
     59221     12515  TIP3      H2             36.3464133249        6.9053729543      -75.5488523431  TIP3      12323           0.0000000000
     59222     12516  TIP3      OH2           -37.0501144673        6.3324936790      -69.6125480389  TIP3      12324           0.0000000000
     59223     12516  TIP3      H1            -36.1640592033        6.6834943196      -69.7558677427  TIP3      12324           0.0000000000
     59224     12516  TIP3      H2            -37.2706474313        6.9754981095      -68.9174917792  TIP3      12324           0.0000000000
     59225     12517  TIP3      OH2            36.2594316136        7.9478299611      -66.5784918907  TIP3      12325           0.0000000000
     59226     12517  TIP3      H1             35.3237801438        8.2140730783      -66.4897826327  TIP3      12325           0.0000000000
     59227     12517  TIP3      H2             36.6200116153        8.6340439798      -67.1702389231  TIP3      12325           0.0000000000
     59228     12518  TIP3      OH2            20.4939401373        6.4305301678      -63.2945721788  TIP3      12326           0.0000000000
     59229     12518  TIP3      H1             21.4308928446        6.2149541701      -63.1090223829  TIP3      12326           0.0000000000
     59230     12518  TIP3      H2             20.0356958222        5.6041091634      -63.0277869678  TIP3      12326           0.0000000000
     59231     12519  TIP3      OH2            35.3169049020        3.6175889462      -74.3388472602  TIP3      12327           0.0000000000
     59232     12519  TIP3      H1             36.2523803650        3.4237294593      -74.1669491748  TIP3      12327           0.0000000000
     59233     12519  TIP3      H2             35.2954732898        3.1843321872      -75.2235778196  TIP3      12327           0.0000000000
     59234     12520  TIP3      OH2            21.6914649708        4.7182515131      -70.4507544856  TIP3      12328           0.0000000000
     59235     12520  TIP3      H1             22.1516768386        3.8910410645      -70.1965764292  TIP3      12328           0.0000000000
     59236     12520  TIP3      H2             22.2442676984        5.4089186735      -70.0621357540  TIP3      12328           0.0000000000
     59237     12521  TIP3      OH2            19.9740291735        7.7208644729      -69.4162983206  TIP3      12329           0.0000000000
     59238     12521  TIP3      H1             20.5378861487        7.4691081436      -70.1760003108  TIP3      12329           0.0000000000
     59239     12521  TIP3      H2             20.4425996395        8.5238285646      -69.1465612825  TIP3      12329           0.0000000000
     59240     12522  TIP3      OH2            20.3230350038        3.9862463988      -75.3469978468  TIP3      12330           0.0000000000
     59241     12522  TIP3      H1             19.3868066460        4.1753079032      -75.5108840720  TIP3      12330           0.0000000000
     59242     12522  TIP3      H2             20.7580127125        4.4726179161      -76.0650482173  TIP3      12330           0.0000000000
     59243     12523  TIP3      OH2            34.8895326965       18.7473155458      -73.2979873005  TIP3      12331           0.0000000000
     59244     12523  TIP3      H1             35.5666987844       18.4201949632      -73.9081729857  TIP3      12331           0.0000000000
     59245     12523  TIP3      H2             35.4128722197       19.3291371065      -72.7201688659  TIP3      12331           0.0000000000
     59246     12524  TIP3      OH2            20.2877703361        2.6298652176      -67.0474504389  TIP3      12332           0.0000000000
     59247     12524  TIP3      H1             19.6204775162        2.4393548725      -66.3665124107  TIP3      12332           0.0000000000
     59248     12524  TIP3      H2             19.8310139634        3.3053548537      -67.5883515814  TIP3      12332           0.0000000000
     59249     12525  TIP3      OH2            22.5296430277       15.8239911181      -62.8850781183  TIP3      12333           0.0000000000
     59250     12525  TIP3      H1             21.6927348973       16.0485432140      -63.3258309253  TIP3      12333           0.0000000000
     59251     12525  TIP3      H2             22.2585494871       15.7554738738      -61.9661431443  TIP3      12333           0.0000000000
     59252     12526  TIP3      OH2            25.4287245925       16.8387798633      -66.6055721666  TIP3      12334           0.0000000000
     59253     12526  TIP3      H1             25.0985919619       17.7071037871      -66.8791775893  TIP3      12334           0.0000000000
     59254     12526  TIP3      H2             26.3537524042       16.9229485583      -66.9114747738  TIP3      12334           0.0000000000
     59255     12527  TIP3      OH2            29.7492821446       18.2620511458      -63.7049894497  TIP3      12335           0.0000000000
     59256     12527  TIP3      H1             29.8862957278       17.9088811553      -62.7955171701  TIP3      12335           0.0000000000
     59257     12527  TIP3      H2             30.6513079351       18.5692051785      -63.9485524114  TIP3      12335           0.0000000000
     59258     12528  TIP3      OH2            32.0567912826       19.5270219131      -64.3851546431  TIP3      12336           0.0000000000
     59259     12528  TIP3      H1             32.7982894828       18.9537638406      -64.6254387115  TIP3      12336           0.0000000000
     59260     12528  TIP3      H2             32.4380629619       19.9789816556      -63.6016350533  TIP3      12336           0.0000000000
     59261     12529  TIP3      OH2            22.8510042333       20.0736398191      -66.6135150594  TIP3      12337           0.0000000000
     59262     12529  TIP3      H1             22.1203433428       20.5742349277      -67.0090364050  TIP3      12337           0.0000000000
     59263     12529  TIP3      H2             22.5413510519       19.8838449816      -65.7164312559  TIP3      12337           0.0000000000
     59264     12530  TIP3      OH2            25.3194334926       19.6505758041      -67.5375588605  TIP3      12338           0.0000000000
     59265     12530  TIP3      H1             24.4268750069       19.8009749374      -67.1456926169  TIP3      12338           0.0000000000
     59266     12530  TIP3      H2             25.2649874837       20.2406909575      -68.3118470721  TIP3      12338           0.0000000000
     59267     12531  TIP3      OH2            29.9880107171       19.5464656821      -68.3608505963  TIP3      12339           0.0000000000
     59268     12531  TIP3      H1             29.5590051804       20.1189513762      -69.0180689861  TIP3      12339           0.0000000000
     59269     12531  TIP3      H2             30.1557316941       20.1877350405      -67.6366420135  TIP3      12339           0.0000000000
     59270     12532  TIP3      OH2            32.3105327965       18.3663432782      -67.3443165205  TIP3      12340           0.0000000000
     59271     12532  TIP3      H1             31.4545017447       18.6422842703      -67.7086267921  TIP3      12340           0.0000000000
     59272     12532  TIP3      H2             32.7721263337       19.2232057394      -67.4099082530  TIP3      12340           0.0000000000
     59273     12533  TIP3      OH2            34.7601845591       19.9416786750      -67.1291735657  TIP3      12341           0.0000000000
     59274     12533  TIP3      H1             34.7565684816       20.8923024390      -67.3446784527  TIP3      12341           0.0000000000
     59275     12533  TIP3      H2             35.1037424009       19.5708849870      -67.9640770799  TIP3      12341           0.0000000000
     59276     12534  TIP3      OH2            22.3184605689       18.7333620436      -69.6595203317  TIP3      12342           0.0000000000
     59277     12534  TIP3      H1             22.2286623458       18.2631390160      -68.8046187961  TIP3      12342           0.0000000000
     59278     12534  TIP3      H2             23.1243082351       18.3417556195      -70.0576325030  TIP3      12342           0.0000000000
     59279     12535  TIP3      OH2            24.3889947821       17.4334358182      -71.0190736564  TIP3      12343           0.0000000000
     59280     12535  TIP3      H1             24.2227995934       16.5011172472      -70.7827953168  TIP3      12343           0.0000000000
     59281     12535  TIP3      H2             25.2431468798       17.5901366671      -70.5632952999  TIP3      12343           0.0000000000
     59282     12536  TIP3      OH2            26.9721737914       17.9225302613      -70.1396829507  TIP3      12344           0.0000000000
     59283     12536  TIP3      H1             27.1429232431       17.0008396233      -70.4016826172  TIP3      12344           0.0000000000
     59284     12536  TIP3      H2             27.0343297944       17.8667623230      -69.1738936611  TIP3      12344           0.0000000000
     59285     12537  TIP3      OH2            30.4236847294        3.5729845213      -71.0010459064  TIP3      12345           0.0000000000
     59286     12537  TIP3      H1             29.7612300009        2.9229690686      -70.7181392069  TIP3      12345           0.0000000000
     59287     12537  TIP3      H2             30.9913538948        3.0459597596      -71.5791073129  TIP3      12345           0.0000000000
     59288     12538  TIP3      OH2            35.5902132394        1.6087919242      -70.9209822285  TIP3      12346           0.0000000000
     59289     12538  TIP3      H1             36.1676244404        2.2317457312      -71.3706019068  TIP3      12346           0.0000000000
     59290     12538  TIP3      H2             34.6986210118        1.9652632874      -71.1404927087  TIP3      12346           0.0000000000
     59291     12539  TIP3      OH2            22.8109814654        2.1901990035      -73.1373471383  TIP3      12347           0.0000000000
     59292     12539  TIP3      H1             22.0212309039        2.0010553130      -73.6798031782  TIP3      12347           0.0000000000
     59293     12539  TIP3      H2             23.2732809211        1.3327931056      -73.2087149244  TIP3      12347           0.0000000000
     59294     12540  TIP3      OH2            21.5681305890        1.9495524771      -77.4209962834  TIP3      12348           0.0000000000
     59295     12540  TIP3      H1             22.0715954174        2.5911811843      -77.9646689705  TIP3      12348           0.0000000000
     59296     12540  TIP3      H2             21.0187153659        2.5196375491      -76.8537457328  TIP3      12348           0.0000000000
     59297     12541  TIP3      OH2            27.2823526559        2.1193534385      -73.3663037084  TIP3      12349           0.0000000000
     59298     12541  TIP3      H1             28.1860436126        2.4690972132      -73.4464595088  TIP3      12349           0.0000000000
     59299     12541  TIP3      H2             27.2489439465        1.9001710680      -72.4365994282  TIP3      12349           0.0000000000
     59300     12542  TIP3      OH2            33.0206420206        2.0929987870      -71.7553192526  TIP3      12350           0.0000000000
     59301     12542  TIP3      H1             32.9685002730        2.2631863580      -72.7044216062  TIP3      12350           0.0000000000
     59302     12542  TIP3      H2             32.5884711520        1.2138287378      -71.6319581484  TIP3      12350           0.0000000000
     59303     12543  TIP3      OH2            34.2540145274        2.1431179544      -76.1191809439  TIP3      12351           0.0000000000
     59304     12543  TIP3      H1             33.5184195270        2.7450101045      -76.2678872687  TIP3      12351           0.0000000000
     59305     12543  TIP3      H2             33.7989342749        1.2876041273      -75.9399292070  TIP3      12351           0.0000000000
     59306     12544  TIP3      OH2            21.6256669576       17.8518799275      -76.5109110390  TIP3      12352           0.0000000000
     59307     12544  TIP3      H1             20.8492605103       17.8805124270      -77.1034892443  TIP3      12352           0.0000000000
     59308     12544  TIP3      H2             21.4962744923       18.7862233436      -76.2303643727  TIP3      12352           0.0000000000
     59309     12545  TIP3      OH2            23.4148835563        3.7948114574      -78.8832865639  TIP3      12353           0.0000000000
     59310     12545  TIP3      H1             23.9676087691        3.2704270490      -79.4628276334  TIP3      12353           0.0000000000
     59311     12545  TIP3      H2             24.0651342274        4.2259096231      -78.2973882145  TIP3      12353           0.0000000000
     59312     12546  TIP3      OH2            28.4399453758        4.1230379525      -76.5149829491  TIP3      12354           0.0000000000
     59313     12546  TIP3      H1             28.7035686670        3.5622992588      -75.7647911454  TIP3      12354           0.0000000000
     59314     12546  TIP3      H2             28.5058871825        4.9951336835      -76.0566565028  TIP3      12354           0.0000000000
     59315     12547  TIP3      OH2            30.3322935243       19.5317354896      -78.0492605230  TIP3      12355           0.0000000000
     59316     12547  TIP3      H1             31.2985836257       19.4851327739      -78.1841611916  TIP3      12355           0.0000000000
     59317     12547  TIP3      H2             30.1503596468       18.7837948166      -78.6667394836  TIP3      12355           0.0000000000
     59318     12548  TIP3      OH2            22.7000445764        2.7374745025      -63.7034867622  TIP3      12356           0.0000000000
     59319     12548  TIP3      H1             22.3114088785        1.9422011193      -63.2970503970  TIP3      12356           0.0000000000
     59320     12548  TIP3      H2             23.6088928196        2.6952614473      -63.3204750776  TIP3      12356           0.0000000000
     59321     12549  TIP3      OH2            24.7008202321        2.1198742359      -62.0578987661  TIP3      12357           0.0000000000
     59322     12549  TIP3      H1             25.5934938790        1.7825984555      -62.2756635480  TIP3      12357           0.0000000000
     59323     12549  TIP3      H2             24.3269587620        1.3123938805      -61.6553333022  TIP3      12357           0.0000000000
     59324     12550  TIP3      OH2            23.3833091236       18.8828747665      -79.4963534656  TIP3      12358           0.0000000000
     59325     12550  TIP3      H1             23.0389655223       19.1729985959      -78.6323484632  TIP3      12358           0.0000000000
     59326     12550  TIP3      H2             24.0961337172       18.3046875262      -79.2458930092  TIP3      12358           0.0000000000
     59327     12551  TIP3      OH2            33.1031829585        1.4361053400      -61.9190896918  TIP3      12359           0.0000000000
     59328     12551  TIP3      H1             33.1927692960        0.9546179546      -61.0706176634  TIP3      12359           0.0000000000
     59329     12551  TIP3      H2             34.0225778654        1.4076327944      -62.2689842799  TIP3      12359           0.0000000000
     59330     12552  TIP3      OH2            36.0977500191       17.3378794821      -63.1379932174  TIP3      12360           0.0000000000
     59331     12552  TIP3      H1             35.4527766987       17.2798913403      -63.8742963505  TIP3      12360           0.0000000000
     59332     12552  TIP3      H2             36.1225645007       18.3201985785      -63.0540978347  TIP3      12360           0.0000000000
     59333     12553  TIP3      OH2           -24.6746093913       30.1701927976      -73.2943184225  TIP3      12361           0.0000000000
     59334     12553  TIP3      H1            -24.6813482040       31.1550424054      -73.3275952077  TIP3      12361           0.0000000000
     59335     12553  TIP3      H2            -25.3996828262       29.9492570664      -73.9004204820  TIP3      12361           0.0000000000
     59336     12554  TIP3      OH2           -25.8238709884       29.4437752748      -69.7977943713  TIP3      12362           0.0000000000
     59337     12554  TIP3      H1            -25.8232202422       28.7957673751      -69.0788725771  TIP3      12362           0.0000000000
     59338     12554  TIP3      H2            -26.1610557033       28.9330380684      -70.5510264811  TIP3      12362           0.0000000000
     59339     12555  TIP3      OH2           -33.4061861732       29.1103575902      -68.2786536970  TIP3      12363           0.0000000000
     59340     12555  TIP3      H1            -33.3484055563       28.4370168185      -67.5664689498  TIP3      12363           0.0000000000
     59341     12555  TIP3      H2            -32.7039896646       29.7151610980      -68.0018897140  TIP3      12363           0.0000000000
     59342     12556  TIP3      OH2           -22.1266185859       32.3804062116      -71.5006653971  TIP3      12364           0.0000000000
     59343     12556  TIP3      H1            -22.5452096359       31.6674874275      -71.0106167093  TIP3      12364           0.0000000000
     59344     12556  TIP3      H2            -22.0856656265       33.0992774419      -70.8445521356  TIP3      12364           0.0000000000
     59345     12557  TIP3      OH2           -32.4791651252       33.6074487032      -69.7145229173  TIP3      12365           0.0000000000
     59346     12557  TIP3      H1            -32.8818743486       32.7692414353      -70.0483994968  TIP3      12365           0.0000000000
     59347     12557  TIP3      H2            -31.5656792804       33.2987855758      -69.7077708075  TIP3      12365           0.0000000000
     59348     12558  TIP3      OH2           -35.6227649925       27.1258365457      -74.6715696815  TIP3      12366           0.0000000000
     59349     12558  TIP3      H1            -36.0759501601       27.9251991542      -74.3134786647  TIP3      12366           0.0000000000
     59350     12558  TIP3      H2            -36.4079564575       26.5792726298      -74.6594053958  TIP3      12366           0.0000000000
     59351     12559  TIP3      OH2           -35.2090324394       29.2799563888      -72.1468775408  TIP3      12367           0.0000000000
     59352     12559  TIP3      H1            -34.9133632784       28.5185178936      -71.6265642205  TIP3      12367           0.0000000000
     59353     12559  TIP3      H2            -34.4783769656       29.4532518307      -72.7550368977  TIP3      12367           0.0000000000
     59354     12560  TIP3      OH2           -27.4540176196       31.8531428072      -69.3229217440  TIP3      12368           0.0000000000
     59355     12560  TIP3      H1            -27.1083605237       31.2260077308      -69.9792619855  TIP3      12368           0.0000000000
     59356     12560  TIP3      H2            -26.6344698858       32.0062148184      -68.8166322831  TIP3      12368           0.0000000000
     59357     12561  TIP3      OH2           -18.8372938971       23.5077820283      -68.5939986680  TIP3      12369           0.0000000000
     59358     12561  TIP3      H1            -18.6591117205       24.0974977640      -67.8315213394  TIP3      12369           0.0000000000
     59359     12561  TIP3      H2            -18.2723402855       23.9276469784      -69.2584162549  TIP3      12369           0.0000000000
     59360     12562  TIP3      OH2           -24.2681849010       26.3128234889      -69.0090708742  TIP3      12370           0.0000000000
     59361     12562  TIP3      H1            -24.1002732360       25.3543646264      -69.0041689727  TIP3      12370           0.0000000000
     59362     12562  TIP3      H2            -24.3709779969       26.4533644625      -69.9702792538  TIP3      12370           0.0000000000
     59363     12563  TIP3      OH2           -31.1519681110       24.4046876769      -71.7861428535  TIP3      12371           0.0000000000
     59364     12563  TIP3      H1            -31.0371264493       25.2326424035      -72.2877613181  TIP3      12371           0.0000000000
     59365     12563  TIP3      H2            -31.5349513633       23.8274049533      -72.4818481910  TIP3      12371           0.0000000000
     59366     12564  TIP3      OH2           -23.4132670519       24.4796214291      -73.4298166311  TIP3      12372           0.0000000000
     59367     12564  TIP3      H1            -22.7649179117       24.1712940672      -72.7546886334  TIP3      12372           0.0000000000
     59368     12564  TIP3      H2            -22.8509675739       25.0576535470      -73.9716880432  TIP3      12372           0.0000000000
     59369     12565  TIP3      OH2           -34.5632033813       26.7279020808      -71.1189235740  TIP3      12373           0.0000000000
     59370     12565  TIP3      H1            -33.8356791365       26.2618059452      -70.6549124542  TIP3      12373           0.0000000000
     59371     12565  TIP3      H2            -34.3802757612       26.4512005316      -72.0282343902  TIP3      12373           0.0000000000
     59372     12566  TIP3      OH2           -29.3782779403       28.3682848311      -71.7405919890  TIP3      12374           0.0000000000
     59373     12566  TIP3      H1            -28.7020073664       27.7897761129      -71.3469620162  TIP3      12374           0.0000000000
     59374     12566  TIP3      H2            -29.8883670227       27.7103284665      -72.2509142016  TIP3      12374           0.0000000000
     59375     12567  TIP3      OH2           -18.3395729668       24.9542501227      -66.3043173824  TIP3      12375           0.0000000000
     59376     12567  TIP3      H1            -19.0155841426       25.6558284830      -66.4520681382  TIP3      12375           0.0000000000
     59377     12567  TIP3      H2            -18.3946234463       24.8213588598      -65.3521857245  TIP3      12375           0.0000000000
     59378     12568  TIP3      OH2           -32.2038752574       23.3040148471      -67.7594864870  TIP3      12376           0.0000000000
     59379     12568  TIP3      H1            -32.5140880031       23.8720480917      -68.4957249582  TIP3      12376           0.0000000000
     59380     12568  TIP3      H2            -32.8883257827       23.5250196011      -67.0786010779  TIP3      12376           0.0000000000
     59381     12569  TIP3      OH2           -24.9807275089       32.7528539852      -74.2053943984  TIP3      12377           0.0000000000
     59382     12569  TIP3      H1            -25.2113225523       32.5255186202      -75.1201004848  TIP3      12377           0.0000000000
     59383     12569  TIP3      H2            -25.2595873427       33.6892999225      -74.1497010950  TIP3      12377           0.0000000000
     59384     12570  TIP3      OH2           -29.7143804638       30.9311156468      -67.5179534101  TIP3      12378           0.0000000000
     59385     12570  TIP3      H1            -30.4305533021       31.5613253302      -67.2853542680  TIP3      12378           0.0000000000
     59386     12570  TIP3      H2            -29.0035835973       31.5197791047      -67.8033269203  TIP3      12378           0.0000000000
     59387     12571  TIP3      OH2           -21.6105112425       23.8360126129      -71.4268632210  TIP3      12379           0.0000000000
     59388     12571  TIP3      H1            -21.8322836085       23.0673579520      -70.8938276439  TIP3      12379           0.0000000000
     59389     12571  TIP3      H2            -20.9344144793       24.2661177380      -70.8762541709  TIP3      12379           0.0000000000
     59390     12572  TIP3      OH2           -32.6984642755       25.1403096165      -69.7200317252  TIP3      12380           0.0000000000
     59391     12572  TIP3      H1            -32.0814373550       25.8373428281      -69.3949054834  TIP3      12380           0.0000000000
     59392     12572  TIP3      H2            -32.1521814907       24.7530208658      -70.4546987037  TIP3      12380           0.0000000000
     59393     12573  TIP3      OH2           -31.2760676840       32.9328105609      -66.7390402225  TIP3      12381           0.0000000000
     59394     12573  TIP3      H1            -31.3547957349       33.8529107326      -67.0256281346  TIP3      12381           0.0000000000
     59395     12573  TIP3      H2            -32.1521837525       32.8260008719      -66.2826461373  TIP3      12381           0.0000000000
     59396     12574  TIP3      OH2           -35.2376060529       32.6257947392      -75.9201382261  TIP3      12382           0.0000000000
     59397     12574  TIP3      H1            -35.4279274387       32.9480466830      -76.8256814719  TIP3      12382           0.0000000000
     59398     12574  TIP3      H2            -35.1255041605       33.4438606239      -75.3950328183  TIP3      12382           0.0000000000
     59399     12575  TIP3      OH2           -21.5864465414       34.2511503525      -69.0931209660  TIP3      12383           0.0000000000
     59400     12575  TIP3      H1            -22.5648776427       34.3308310538      -69.0046516724  TIP3      12383           0.0000000000
     59401     12575  TIP3      H2            -21.3057492648       35.1440184948      -69.3631033980  TIP3      12383           0.0000000000
     59402     12576  TIP3      OH2           -21.2676788132       22.5166460664      -67.7567235649  TIP3      12384           0.0000000000
     59403     12576  TIP3      H1            -21.9968879954       23.1473856219      -67.8472292869  TIP3      12384           0.0000000000
     59404     12576  TIP3      H2            -20.5567833858       22.9355230847      -68.2806200021  TIP3      12384           0.0000000000
     59405     12577  TIP3      OH2           -28.3043410967       20.6416426637      -70.2952479554  TIP3      12385           0.0000000000
     59406     12577  TIP3      H1            -28.4335310767       19.6767015653      -70.3639554088  TIP3      12385           0.0000000000
     59407     12577  TIP3      H2            -29.1842088435       20.9405342764      -69.9832426438  TIP3      12385           0.0000000000
     59408     12578  TIP3      OH2           -23.3028594724       35.7050708541      -72.7295848776  TIP3      12386           0.0000000000
     59409     12578  TIP3      H1            -22.7391342827       35.0958294811      -73.2423690764  TIP3      12386           0.0000000000
     59410     12578  TIP3      H2            -22.9090504525       36.5385389483      -72.9748775575  TIP3      12386           0.0000000000
     59411     12579  TIP3      OH2           -22.0857145442       33.8493743465      -74.0681547467  TIP3      12387           0.0000000000
     59412     12579  TIP3      H1            -22.4364825834       33.1876433339      -74.6744938860  TIP3      12387           0.0000000000
     59413     12579  TIP3      H2            -22.0920764946       33.3987696525      -73.1997219234  TIP3      12387           0.0000000000
     59414     12580  TIP3      OH2           -20.4986589291       32.5766900974      -65.5312724406  TIP3      12388           0.0000000000
     59415     12580  TIP3      H1            -20.3735367853       31.8989895626      -66.2326644261  TIP3      12388           0.0000000000
     59416     12580  TIP3      H2            -20.2794742122       33.3996097380      -66.0027528570  TIP3      12388           0.0000000000
     59417     12581  TIP3      OH2           -26.0194294040       29.4319801688      -75.8047160825  TIP3      12389           0.0000000000
     59418     12581  TIP3      H1            -26.7066477832       30.0165555170      -76.1782225791  TIP3      12389           0.0000000000
     59419     12581  TIP3      H2            -25.3082321239       29.5096249053      -76.4666336288  TIP3      12389           0.0000000000
     59420     12582  TIP3      OH2           -26.0064926431       27.9185942816      -78.6634747216  TIP3      12390           0.0000000000
     59421     12582  TIP3      H1            -25.2245562957       27.9838020250      -78.0984959344  TIP3      12390           0.0000000000
     59422     12582  TIP3      H2            -25.6571632688       27.3313183425      -79.3343618330  TIP3      12390           0.0000000000
     59423     12583  TIP3      OH2           -18.6250563875       28.8499678586      -67.5058560917  TIP3      12391           0.0000000000
     59424     12583  TIP3      H1            -19.2787391458       29.5751228456      -67.4624504602  TIP3      12391           0.0000000000
     59425     12583  TIP3      H2            -18.1247138414       29.0852545318      -68.3073006257  TIP3      12391           0.0000000000
     59426     12584  TIP3      OH2           -22.5657707685       29.6430957294      -74.8337690056  TIP3      12392           0.0000000000
     59427     12584  TIP3      H1            -23.3143822322       29.8789791596      -74.2348549742  TIP3      12392           0.0000000000
     59428     12584  TIP3      H2            -22.0897400601       28.9633936247      -74.3216772270  TIP3      12392           0.0000000000
     59429     12585  TIP3      OH2           -22.6294613650       27.8051769160      -65.7341848919  TIP3      12393           0.0000000000
     59430     12585  TIP3      H1            -22.6305744759       28.6249613258      -65.2135281647  TIP3      12393           0.0000000000
     59431     12585  TIP3      H2            -23.2608648636       28.0929279650      -66.4256605318  TIP3      12393           0.0000000000
     59432     12586  TIP3      OH2           -30.9307666526       30.2995783680      -72.9416052631  TIP3      12394           0.0000000000
     59433     12586  TIP3      H1            -31.2855204667       29.9023260369      -73.7719063572  TIP3      12394           0.0000000000
     59434     12586  TIP3      H2            -30.3265670782       29.6024345028      -72.6083346724  TIP3      12394           0.0000000000
     59435     12587  TIP3      OH2           -29.6129825170       33.7684971767      -70.2484167910  TIP3      12395           0.0000000000
     59436     12587  TIP3      H1            -29.6405451877       33.1871375883      -71.0388641733  TIP3      12395           0.0000000000
     59437     12587  TIP3      H2            -28.8590689720       33.3240806958      -69.7997552902  TIP3      12395           0.0000000000
     59438     12588  TIP3      OH2           -30.5907927373       29.0361056073      -69.2814971205  TIP3      12396           0.0000000000
     59439     12588  TIP3      H1            -30.0576246740       29.1496761596      -70.0895858031  TIP3      12396           0.0000000000
     59440     12588  TIP3      H2            -30.2327688235       29.7201382051      -68.6713033044  TIP3      12396           0.0000000000
     59441     12589  TIP3      OH2           -24.1739459499       34.6121675095      -68.5533063087  TIP3      12397           0.0000000000
     59442     12589  TIP3      H1            -24.5420244360       35.2424042477      -67.9392086578  TIP3      12397           0.0000000000
     59443     12589  TIP3      H2            -24.4713346525       33.7557095068      -68.1592080620  TIP3      12397           0.0000000000
     59444     12590  TIP3      OH2           -29.6602077791       33.5024453717      -64.6097434740  TIP3      12398           0.0000000000
     59445     12590  TIP3      H1            -30.1042190046       34.2111547263      -64.0874196601  TIP3      12398           0.0000000000
     59446     12590  TIP3      H2            -30.3453883768       33.2339437393      -65.2700640244  TIP3      12398           0.0000000000
     59447     12591  TIP3      OH2           -23.6820036136       28.8156439269      -77.1754003107  TIP3      12399           0.0000000000
     59448     12591  TIP3      H1            -23.1394480818       29.0151617638      -76.3745558945  TIP3      12399           0.0000000000
     59449     12591  TIP3      H2            -23.2693257508       29.3694031487      -77.8683267093  TIP3      12399           0.0000000000
     59450     12592  TIP3      OH2           -32.7324266251       29.6458630190      -65.4040191757  TIP3      12400           0.0000000000
     59451     12592  TIP3      H1            -32.6843400406       30.3293776435      -64.7137627306  TIP3      12400           0.0000000000
     59452     12592  TIP3      H2            -33.6718014529       29.7338534215      -65.6387827810  TIP3      12400           0.0000000000
     59453     12593  TIP3      OH2           -26.0156731635       35.5295067003      -73.7031704325  TIP3      12401           0.0000000000
     59454     12593  TIP3      H1            -25.5214072691       35.8569203089      -72.9444945552  TIP3      12401           0.0000000000
     59455     12593  TIP3      H2            -26.5132308697       36.3009137501      -73.9927309503  TIP3      12401           0.0000000000
     59456     12594  TIP3      OH2           -31.4351842535       35.4299225306      -63.8844287580  TIP3      12402           0.0000000000
     59457     12594  TIP3      H1            -31.5411034345       35.3812104359      -64.8463722145  TIP3      12402           0.0000000000
     59458     12594  TIP3      H2            -32.3705503539       35.3568059489      -63.5964751922  TIP3      12402           0.0000000000
     59459     12595  TIP3      OH2           -19.9285526942       20.6023116680      -77.2447302792  TIP3      12403           0.0000000000
     59460     12595  TIP3      H1            -20.9041451019       20.6624510629      -77.0866942250  TIP3      12403           0.0000000000
     59461     12595  TIP3      H2            -19.7826614070       21.4255929369      -77.7445950609  TIP3      12403           0.0000000000
     59462     12596  TIP3      OH2           -31.9557554666       29.3199804014      -75.3283490533  TIP3      12404           0.0000000000
     59463     12596  TIP3      H1            -32.2486939374       30.0915996417      -75.8571037841  TIP3      12404           0.0000000000
     59464     12596  TIP3      H2            -32.6168026808       28.6584374443      -75.5534991200  TIP3      12404           0.0000000000
     59465     12597  TIP3      OH2           -18.8470102669       34.8775441519      -78.9051705101  TIP3      12405           0.0000000000
     59466     12597  TIP3      H1            -18.7906640430       35.8324743683      -78.7725892643  TIP3      12405           0.0000000000
     59467     12597  TIP3      H2            -17.9155212827       34.6269049173      -78.9891772275  TIP3      12405           0.0000000000
     59468     12598  TIP3      OH2           -35.2863938315       31.6068157151      -66.6814869960  TIP3      12406           0.0000000000
     59469     12598  TIP3      H1            -36.0564170279       31.7338408797      -67.2758056618  TIP3      12406           0.0000000000
     59470     12598  TIP3      H2            -35.6667649374       30.8274018348      -66.2159045410  TIP3      12406           0.0000000000
     59471     12599  TIP3      OH2           -35.8174523585       34.7146599089      -69.8951282493  TIP3      12407           0.0000000000
     59472     12599  TIP3      H1            -34.9966918316       34.3371914245      -69.5963942547  TIP3      12407           0.0000000000
     59473     12599  TIP3      H2            -36.0899217449       35.2468114329      -69.1389744032  TIP3      12407           0.0000000000
     59474     12600  TIP3      OH2           -17.9139169273       35.1800319793      -63.8886454332  TIP3      12408           0.0000000000
     59475     12600  TIP3      H1            -18.0174880510       34.2241908845      -64.0141873097  TIP3      12408           0.0000000000
     59476     12600  TIP3      H2            -18.8027640432       35.4442687579      -63.5695337079  TIP3      12408           0.0000000000
     59477     12601  TIP3      OH2           -26.9834074891       34.7553445783      -65.1451413693  TIP3      12409           0.0000000000
     59478     12601  TIP3      H1            -26.8398928598       35.5384978446      -64.5991842320  TIP3      12409           0.0000000000
     59479     12601  TIP3      H2            -27.7899952266       34.3313979522      -64.7995514897  TIP3      12409           0.0000000000
     59480     12602  TIP3      OH2           -20.6993425442       26.6548287327      -63.5021917734  TIP3      12410           0.0000000000
     59481     12602  TIP3      H1            -21.2011111793       27.1125510895      -64.1974737242  TIP3      12410           0.0000000000
     59482     12602  TIP3      H2            -20.7816456761       25.7337166388      -63.7956509340  TIP3      12410           0.0000000000
     59483     12603  TIP3      OH2           -33.5470041015       33.1370312066      -65.4384231151  TIP3      12411           0.0000000000
     59484     12603  TIP3      H1            -33.4050411181       32.6981846294      -64.5766332424  TIP3      12411           0.0000000000
     59485     12603  TIP3      H2            -34.3915762777       32.7231823238      -65.7314742403  TIP3      12411           0.0000000000
     59486     12604  TIP3      OH2           -30.9160499856       21.5495017892      -69.5385332356  TIP3      12412           0.0000000000
     59487     12604  TIP3      H1            -31.8176682361       21.4251346770      -69.9091542675  TIP3      12412           0.0000000000
     59488     12604  TIP3      H2            -31.0570983355       22.3750260782      -69.0469930219  TIP3      12412           0.0000000000
     59489     12605  TIP3      OH2           -26.2801189543       21.2041556194      -66.1779398216  TIP3      12413           0.0000000000
     59490     12605  TIP3      H1            -25.8874431645       20.7832519901      -65.3905260334  TIP3      12413           0.0000000000
     59491     12605  TIP3      H2            -27.2521850856       21.0893272223      -66.0306615028  TIP3      12413           0.0000000000
     59492     12606  TIP3      OH2           -22.9910348934       25.0535107139      -65.2732412907  TIP3      12414           0.0000000000
     59493     12606  TIP3      H1            -23.5586811147       24.8378900299      -64.4942922639  TIP3      12414           0.0000000000
     59494     12606  TIP3      H2            -23.1780895044       25.9796773722      -65.5044799579  TIP3      12414           0.0000000000
     59495     12607  TIP3      OH2           -22.1408417323       29.9393790359      -79.3104370794  TIP3      12415           0.0000000000
     59496     12607  TIP3      H1            -22.1583865196       29.7353700837      -80.2637146864  TIP3      12415           0.0000000000
     59497     12607  TIP3      H2            -21.2566186637       30.3475071525      -79.2401056223  TIP3      12415           0.0000000000
     59498     12608  TIP3      OH2           -26.6549680493       23.7912247841      -78.8359144281  TIP3      12416           0.0000000000
     59499     12608  TIP3      H1            -26.9510509148       23.7321892594      -77.9078017942  TIP3      12416           0.0000000000
     59500     12608  TIP3      H2            -26.8810706665       22.9021142018      -79.1305420888  TIP3      12416           0.0000000000
     59501     12609  TIP3      OH2           -30.8372121713       26.5132294762      -68.2877492009  TIP3      12417           0.0000000000
     59502     12609  TIP3      H1            -31.5641533808       26.5124916200      -67.6349067161  TIP3      12417           0.0000000000
     59503     12609  TIP3      H2            -30.8566933430       27.4248713939      -68.6541401543  TIP3      12417           0.0000000000
     59504     12610  TIP3      OH2           -30.8437906850       26.6329970538      -73.4188253019  TIP3      12418           0.0000000000
     59505     12610  TIP3      H1            -31.7818552792       26.3871875117      -73.5623193047  TIP3      12418           0.0000000000
     59506     12610  TIP3      H2            -30.4686897679       26.3394112671      -74.2734183332  TIP3      12418           0.0000000000
     59507     12611  TIP3      OH2           -25.3336098332       27.1231334378      -74.6873647864  TIP3      12419           0.0000000000
     59508     12611  TIP3      H1            -25.7430888371       27.9584950683      -75.0083589739  TIP3      12419           0.0000000000
     59509     12611  TIP3      H2            -24.6418638900       26.9747443204      -75.3577428624  TIP3      12419           0.0000000000
     59510     12612  TIP3      OH2           -26.2881988964       27.3421016476      -63.2138790623  TIP3      12420           0.0000000000
     59511     12612  TIP3      H1            -26.8132896714       26.5661761563      -62.9031405455  TIP3      12420           0.0000000000
     59512     12612  TIP3      H2            -25.4503037706       27.2209833570      -62.7370949412  TIP3      12420           0.0000000000
     59513     12613  TIP3      OH2           -24.3054434683       26.6214374890      -71.8012448327  TIP3      12421           0.0000000000
     59514     12613  TIP3      H1            -24.5895478779       27.1852637683      -72.5414799760  TIP3      12421           0.0000000000
     59515     12613  TIP3      H2            -24.2123619680       25.7731111992      -72.2739055371  TIP3      12421           0.0000000000
     59516     12614  TIP3      OH2           -33.1846160461       26.7473353115      -66.6028519897  TIP3      12422           0.0000000000
     59517     12614  TIP3      H1            -33.1671686333       27.1701823220      -65.7291116395  TIP3      12422           0.0000000000
     59518     12614  TIP3      H2            -33.6731064131       25.9341266050      -66.4087433529  TIP3      12422           0.0000000000
     59519     12615  TIP3      OH2           -29.6063593726       24.4535777606      -79.3737657419  TIP3      12423           0.0000000000
     59520     12615  TIP3      H1            -30.1575379828       23.8020183297      -78.9016518099  TIP3      12423           0.0000000000
     59521     12615  TIP3      H2            -30.1719718972       24.7870112569      -80.0791798313  TIP3      12423           0.0000000000
     59522     12616  TIP3      OH2           -36.1676516359       24.1927144188      -72.8094256254  TIP3      12424           0.0000000000
     59523     12616  TIP3      H1            -35.8331425031       23.8459746981      -71.9544924196  TIP3      12424           0.0000000000
     59524     12616  TIP3      H2            -36.0283303471       23.4393695278      -73.3816850070  TIP3      12424           0.0000000000
     59525     12617  TIP3      OH2           -35.2668495710       24.7525666475      -77.2655665108  TIP3      12425           0.0000000000
     59526     12617  TIP3      H1            -34.7287687939       25.2716555130      -77.8918530791  TIP3      12425           0.0000000000
     59527     12617  TIP3      H2            -36.0006279027       25.3030243700      -77.0432328042  TIP3      12425           0.0000000000
     59528     12618  TIP3      OH2           -25.1116187824       28.2056047773      -67.2519263718  TIP3      12426           0.0000000000
     59529     12618  TIP3      H1            -24.7304437994       27.5194844899      -67.8361197625  TIP3      12426           0.0000000000
     59530     12618  TIP3      H2            -25.5786004722       27.6780221224      -66.5791578782  TIP3      12426           0.0000000000
     59531     12619  TIP3      OH2           -28.3054577529       24.1877828859      -72.4159793086  TIP3      12427           0.0000000000
     59532     12619  TIP3      H1            -29.2387501056       24.1870738893      -72.1258357910  TIP3      12427           0.0000000000
     59533     12619  TIP3      H2            -27.8254354039       24.0145168206      -71.5947527253  TIP3      12427           0.0000000000
     59534     12620  TIP3      OH2           -33.4855832666       25.7310831871      -73.5483912797  TIP3      12428           0.0000000000
     59535     12620  TIP3      H1            -34.3565892265       25.9008711485      -73.9510159850  TIP3      12428           0.0000000000
     59536     12620  TIP3      H2            -33.2472292419       24.8792556584      -73.9617777742  TIP3      12428           0.0000000000
     59537     12621  TIP3      OH2           -29.8691648098       25.8076892204      -75.8973016476  TIP3      12429           0.0000000000
     59538     12621  TIP3      H1            -28.9049711063       25.8952444598      -75.7487047268  TIP3      12429           0.0000000000
     59539     12621  TIP3      H2            -30.1041638441       26.4482046629      -76.5956385219  TIP3      12429           0.0000000000
     59540     12622  TIP3      OH2           -23.9031717136       23.4041472973      -69.1706814276  TIP3      12430           0.0000000000
     59541     12622  TIP3      H1            -24.5870183657       23.4674227836      -68.4685682943  TIP3      12430           0.0000000000
     59542     12622  TIP3      H2            -24.4120206001       23.1633563882      -69.9576125381  TIP3      12430           0.0000000000
     59543     12623  TIP3      OH2           -31.1326447000       26.9500662923      -78.3363109459  TIP3      12431           0.0000000000
     59544     12623  TIP3      H1            -31.7095474280       26.6098833916      -79.0334586890  TIP3      12431           0.0000000000
     59545     12623  TIP3      H2            -30.3204124656       27.1636592543      -78.8209124522  TIP3      12431           0.0000000000
     59546     12624  TIP3      OH2           -33.0460898536       31.5448869962      -63.2741995972  TIP3      12432           0.0000000000
     59547     12624  TIP3      H1            -32.3061032235       31.7611609147      -62.6749273832  TIP3      12432           0.0000000000
     59548     12624  TIP3      H2            -33.7955040500       31.6201890881      -62.6579922638  TIP3      12432           0.0000000000
     59549     12625  TIP3      OH2           -27.0344731967       26.9368823852      -70.5234486946  TIP3      12433           0.0000000000
     59550     12625  TIP3      H1            -26.4271404919       26.4082990838      -71.0552285739  TIP3      12433           0.0000000000
     59551     12625  TIP3      H2            -27.1714453145       26.3899309527      -69.7385079848  TIP3      12433           0.0000000000
     59552     12626  TIP3      OH2           -32.0277886403       23.0894426542      -74.0725753814  TIP3      12434           0.0000000000
     59553     12626  TIP3      H1            -32.3395447095       22.1685748371      -74.0909147463  TIP3      12434           0.0000000000
     59554     12626  TIP3      H2            -31.2342920733       23.0114858486      -74.6200826264  TIP3      12434           0.0000000000
     59555     12627  TIP3      OH2           -28.3877124031       25.2669181983      -68.1084667405  TIP3      12435           0.0000000000
     59556     12627  TIP3      H1            -29.2125768652       25.7856725156      -68.0195065561  TIP3      12435           0.0000000000
     59557     12627  TIP3      H2            -27.8325547862       25.6195838443      -67.3859650561  TIP3      12435           0.0000000000
     59558     12628  TIP3      OH2           -27.7935346140       31.4900477936      -76.3899916761  TIP3      12436           0.0000000000
     59559     12628  TIP3      H1            -28.5905311735       31.0249891647      -76.7284794335  TIP3      12436           0.0000000000
     59560     12628  TIP3      H2            -28.0141655025       31.5966036656      -75.4459088778  TIP3      12436           0.0000000000
     59561     12629  TIP3      OH2           -20.6072672929       30.6901089166      -67.6057461228  TIP3      12437           0.0000000000
     59562     12629  TIP3      H1            -20.0482580229       31.1879094693      -68.2321540383  TIP3      12437           0.0000000000
     59563     12629  TIP3      H2            -21.4685187209       30.7383612123      -68.0691495399  TIP3      12437           0.0000000000
     59564     12630  TIP3      OH2           -23.9437539594       24.3243908993      -78.2229220300  TIP3      12438           0.0000000000
     59565     12630  TIP3      H1            -24.8870653535       24.4569375078      -78.4078051408  TIP3      12438           0.0000000000
     59566     12630  TIP3      H2            -23.6348868218       25.1765725343      -77.8660596883  TIP3      12438           0.0000000000
     59567     12631  TIP3      OH2           -26.3323662556       31.7765946527      -65.1764375807  TIP3      12439           0.0000000000
     59568     12631  TIP3      H1            -26.6598196102       31.3385023056      -64.3832698163  TIP3      12439           0.0000000000
     59569     12631  TIP3      H2            -26.5547307264       32.7014256112      -65.0546822424  TIP3      12439           0.0000000000
     59570     12632  TIP3      OH2           -23.2369456366       26.2391271028      -76.5619747024  TIP3      12440           0.0000000000
     59571     12632  TIP3      H1            -22.3330637431       26.0862396697      -76.2238772175  TIP3      12440           0.0000000000
     59572     12632  TIP3      H2            -23.1463603244       27.0461016424      -77.0929529713  TIP3      12440           0.0000000000
     59573     12633  TIP3      OH2           -32.6734325051       30.9079568124      -70.6096026670  TIP3      12441           0.0000000000
     59574     12633  TIP3      H1            -32.0233568560       30.7970644877      -71.3238366025  TIP3      12441           0.0000000000
     59575     12633  TIP3      H2            -32.6025873476       30.0577750917      -70.1429377554  TIP3      12441           0.0000000000
     59576     12634  TIP3      OH2           -25.6932494438       32.9359416140      -77.3663027808  TIP3      12442           0.0000000000
     59577     12634  TIP3      H1            -26.0395202045       33.7850012385      -77.0286175402  TIP3      12442           0.0000000000
     59578     12634  TIP3      H2            -26.4446469007       32.3382300287      -77.1710753230  TIP3      12442           0.0000000000
     59579     12635  TIP3      OH2           -35.7301876644       29.2663116443      -65.3465949530  TIP3      12443           0.0000000000
     59580     12635  TIP3      H1            -35.4709597151       28.8272585380      -64.5138586313  TIP3      12443           0.0000000000
     59581     12635  TIP3      H2            -36.3183330000       28.6261655209      -65.7709463883  TIP3      12443           0.0000000000
     59582     12636  TIP3      OH2           -28.6868540323       28.8560098379      -63.1775336825  TIP3      12444           0.0000000000
     59583     12636  TIP3      H1            -29.0067391248       28.5354906221      -64.0332510308  TIP3      12444           0.0000000000
     59584     12636  TIP3      H2            -27.7656639874       28.5247817425      -63.1743303449  TIP3      12444           0.0000000000
     59585     12637  TIP3      OH2           -24.0164518095       34.2448820638      -65.2924561718  TIP3      12445           0.0000000000
     59586     12637  TIP3      H1            -24.9559998861       34.3155983860      -65.4706256795  TIP3      12445           0.0000000000
     59587     12637  TIP3      H2            -24.0378155429       34.4255484228      -64.3207400590  TIP3      12445           0.0000000000
     59588     12638  TIP3      OH2           -18.3378718061       26.3694625188      -76.7968524514  TIP3      12446           0.0000000000
     59589     12638  TIP3      H1            -18.9126827656       26.0543485112      -77.5092266627  TIP3      12446           0.0000000000
     59590     12638  TIP3      H2            -18.2447060192       27.3013790142      -77.0883639506  TIP3      12446           0.0000000000
     59591     12639  TIP3      OH2           -18.3240711256       32.2051111869      -64.0327613830  TIP3      12447           0.0000000000
     59592     12639  TIP3      H1            -19.2179450323       32.4469628355      -64.3790963976  TIP3      12447           0.0000000000
     59593     12639  TIP3      H2            -17.7949154505       32.1552811803      -64.8551721660  TIP3      12447           0.0000000000
     59594     12640  TIP3      OH2           -19.8504223707       34.9066791079      -76.2527751767  TIP3      12448           0.0000000000
     59595     12640  TIP3      H1            -20.4814375251       34.2156897653      -76.1070051193  TIP3      12448           0.0000000000
     59596     12640  TIP3      H2            -19.7982382337       35.0067804602      -77.2239217254  TIP3      12448           0.0000000000
     59597     12641  TIP3      OH2           -22.8325759923       30.0049921055      -69.3202918948  TIP3      12449           0.0000000000
     59598     12641  TIP3      H1            -23.7731135689       29.7991127284      -69.4360688539  TIP3      12449           0.0000000000
     59599     12641  TIP3      H2            -22.4014132593       29.2494070225      -69.7617268611  TIP3      12449           0.0000000000
     59600     12642  TIP3      OH2           -30.3059162082       34.3354731544      -73.2275448694  TIP3      12450           0.0000000000
     59601     12642  TIP3      H1            -29.8118755433       35.1380638481      -73.4394540602  TIP3      12450           0.0000000000
     59602     12642  TIP3      H2            -31.1996147662       34.5308737777      -73.5483466527  TIP3      12450           0.0000000000
     59603     12643  TIP3      OH2           -34.6098028793       29.1461569540      -78.6289533889  TIP3      12451           0.0000000000
     59604     12643  TIP3      H1            -33.9550855455       29.7903794868      -78.2815353547  TIP3      12451           0.0000000000
     59605     12643  TIP3      H2            -35.4472773641       29.5129979917      -78.3304955382  TIP3      12451           0.0000000000
     59606     12644  TIP3      OH2           -28.8703659570       31.9785580938      -73.7032587439  TIP3      12452           0.0000000000
     59607     12644  TIP3      H1            -29.1883948582       32.8979937537      -73.6389645743  TIP3      12452           0.0000000000
     59608     12644  TIP3      H2            -29.6126635866       31.4994923470      -73.2815850206  TIP3      12452           0.0000000000
     59609     12645  TIP3      OH2           -28.2172619021       35.8977661211      -67.6442417941  TIP3      12453           0.0000000000
     59610     12645  TIP3      H1            -27.9511105198       36.8317983553      -67.6672645732  TIP3      12453           0.0000000000
     59611     12645  TIP3      H2            -27.8434864726       35.6959511153      -66.7556552280  TIP3      12453           0.0000000000
     59612     12646  TIP3      OH2           -24.9234946009       32.1876610336      -67.6771238077  TIP3      12454           0.0000000000
     59613     12646  TIP3      H1            -25.2645359262       31.9711964330      -66.7867505787  TIP3      12454           0.0000000000
     59614     12646  TIP3      H2            -24.2886101084       31.4762184962      -67.8490533049  TIP3      12454           0.0000000000
     59615     12647  TIP3      OH2           -22.6156874201       33.1808163381      -78.5642843090  TIP3      12455           0.0000000000
     59616     12647  TIP3      H1            -22.3143640098       32.7764004466      -77.7310149483  TIP3      12455           0.0000000000
     59617     12647  TIP3      H2            -23.5742101582       33.0818180283      -78.4812791501  TIP3      12455           0.0000000000
     59618     12648  TIP3      OH2           -34.0465278835       24.0269751798      -65.8349023343  TIP3      12456           0.0000000000
     59619     12648  TIP3      H1            -34.9347051540       24.3987730818      -65.7510332041  TIP3      12456           0.0000000000
     59620     12648  TIP3      H2            -34.1616937307       23.1890485996      -65.3554569860  TIP3      12456           0.0000000000
     59621     12649  TIP3      OH2           -21.8053103070       31.8152309089      -76.3487891009  TIP3      12457           0.0000000000
     59622     12649  TIP3      H1            -22.0428134230       31.0522075072      -75.7880868839  TIP3      12457           0.0000000000
     59623     12649  TIP3      H2            -20.8686578352       31.9575226544      -76.1280377939  TIP3      12457           0.0000000000
     59624     12650  TIP3      OH2           -34.1405027105       35.8120154830      -67.4484914957  TIP3      12458           0.0000000000
     59625     12650  TIP3      H1            -34.1949062334       34.8625080680      -67.3405983192  TIP3      12458           0.0000000000
     59626     12650  TIP3      H2            -34.2845767050       36.1194426816      -66.5363170510  TIP3      12458           0.0000000000
     59627     12651  TIP3      OH2           -29.6816352255       33.8531581879      -77.7010436828  TIP3      12459           0.0000000000
     59628     12651  TIP3      H1            -29.4406779260       33.3072649559      -76.9393777893  TIP3      12459           0.0000000000
     59629     12651  TIP3      H2            -29.5835578607       34.7548316718      -77.3485866342  TIP3      12459           0.0000000000
     59630     12652  TIP3      OH2           -33.2130117418       31.1180111226      -77.1377167568  TIP3      12460           0.0000000000
     59631     12652  TIP3      H1            -33.9077810700       31.5250305380      -76.5767016845  TIP3      12460           0.0000000000
     59632     12652  TIP3      H2            -32.6828890192       31.8927636928      -77.4108666438  TIP3      12460           0.0000000000
     59633     12653  TIP3      OH2           -25.3166832323       23.7959559377      -66.8353388824  TIP3      12461           0.0000000000
     59634     12653  TIP3      H1            -24.6026372329       23.8560065002      -66.1928306153  TIP3      12461           0.0000000000
     59635     12653  TIP3      H2            -25.6995628598       22.9193051124      -66.6323806850  TIP3      12461           0.0000000000
     59636     12654  TIP3      OH2           -24.5860410116       23.3909585140      -75.7459744706  TIP3      12462           0.0000000000
     59637     12654  TIP3      H1            -24.3199771365       23.8410632009      -76.5708337613  TIP3      12462           0.0000000000
     59638     12654  TIP3      H2            -23.9926149925       23.8032124452      -75.1063961162  TIP3      12462           0.0000000000
     59639     12655  TIP3      OH2           -26.8676151434       35.5408360334      -76.9085909322  TIP3      12463           0.0000000000
     59640     12655  TIP3      H1            -27.7061022597       36.0244705034      -76.8675956508  TIP3      12463           0.0000000000
     59641     12655  TIP3      H2            -26.3351016363       36.0463648823      -77.5545909960  TIP3      12463           0.0000000000
     59642     12656  TIP3      OH2           -27.3513340337       25.1085093661      -74.9391361527  TIP3      12464           0.0000000000
     59643     12656  TIP3      H1            -26.5682921002       25.6927680619      -74.9143713284  TIP3      12464           0.0000000000
     59644     12656  TIP3      H2            -27.6104375114       24.9987836480      -74.0071569811  TIP3      12464           0.0000000000
     59645     12657  TIP3      OH2           -26.7871282107       26.1444878805      -65.7393475570  TIP3      12465           0.0000000000
     59646     12657  TIP3      H1            -26.7136394347       26.7002107516      -64.9397597946  TIP3      12465           0.0000000000
     59647     12657  TIP3      H2            -26.1264796102       25.4471452720      -65.6437226954  TIP3      12465           0.0000000000
     59648     12658  TIP3      OH2           -26.4948455978       22.1723849079      -74.0604523953  TIP3      12466           0.0000000000
     59649     12658  TIP3      H1            -26.8162072662       22.8164389957      -73.4065038716  TIP3      12466           0.0000000000
     59650     12658  TIP3      H2            -25.7993931943       22.7217673426      -74.5011152407  TIP3      12466           0.0000000000
     59651     12659  TIP3      OH2           -29.4773961334      -36.4492618243      -76.9427195110  TIP3      12467           0.0000000000
     59652     12659  TIP3      H1            -29.3642718864      -35.6013977375      -77.3812791297  TIP3      12467           0.0000000000
     59653     12659  TIP3      H2            -29.7191945497      -36.1455285520      -76.0519922272  TIP3      12467           0.0000000000
     59654     12660  TIP3      OH2           -30.8350699795       23.2712976297      -77.3058566237  TIP3      12468           0.0000000000
     59655     12660  TIP3      H1            -30.9031006214       24.1806569028      -76.9495316767  TIP3      12468           0.0000000000
     59656     12660  TIP3      H2            -29.9305692456       23.0462561213      -77.0177255623  TIP3      12468           0.0000000000
     59657     12661  TIP3      OH2           -20.6073703507       24.0116720907      -64.9000033584  TIP3      12469           0.0000000000
     59658     12661  TIP3      H1            -21.5370771889       24.3260389526      -65.0238500479  TIP3      12469           0.0000000000
     59659     12661  TIP3      H2            -20.3134503324       23.9944980868      -65.8233659257  TIP3      12469           0.0000000000
     59660     12662  TIP3      OH2           -21.9947686918       27.7976699605      -70.8912533018  TIP3      12470           0.0000000000
     59661     12662  TIP3      H1            -22.8204877268       27.3487209399      -71.1551582161  TIP3      12470           0.0000000000
     59662     12662  TIP3      H2            -21.5142910681       27.1117408620      -70.3749249375  TIP3      12470           0.0000000000
     59663     12663  TIP3      OH2           -32.5843348938       33.7043484325      -78.2674325952  TIP3      12471           0.0000000000
     59664     12663  TIP3      H1            -31.9396968597       34.3708393037      -78.0243467825  TIP3      12471           0.0000000000
     59665     12663  TIP3      H2            -32.0838757422       33.2805446725      -78.9908408173  TIP3      12471           0.0000000000
     59666     12664  TIP3      OH2           -34.2079019388       26.4060551205      -79.0845809561  TIP3      12472           0.0000000000
     59667     12664  TIP3      H1            -34.2046937125       27.3726573974      -78.9694863670  TIP3      12472           0.0000000000
     59668     12664  TIP3      H2            -35.0666096267       26.1856674028      -79.4447552789  TIP3      12472           0.0000000000
     59669     12665  TIP3      OH2           -33.4131020228       21.1634713348      -70.4293639309  TIP3      12473           0.0000000000
     59670     12665  TIP3      H1            -33.6338733256       21.1996335409      -71.3863375616  TIP3      12473           0.0000000000
     59671     12665  TIP3      H2            -33.8617979179       20.3342231803      -70.1629733217  TIP3      12473           0.0000000000
     59672     12666  TIP3      OH2           -34.4454750212       35.1016005806      -74.3290775783  TIP3      12474           0.0000000000
     59673     12666  TIP3      H1            -35.3104076293       35.5117623731      -74.2903879522  TIP3      12474           0.0000000000
     59674     12666  TIP3      H2            -33.9708096431       35.6109707100      -74.9916106213  TIP3      12474           0.0000000000
     59675     12667  TIP3      OH2           -30.3163527764       36.3504236728      -61.1539377194  TIP3      12475           0.0000000000
     59676     12667  TIP3      H1            -29.4621459461       35.9492439172      -60.9777652757  TIP3      12475           0.0000000000
     59677     12667  TIP3      H2            -30.3893855211       36.2130369960      -62.1149516921  TIP3      12475           0.0000000000
     59678     12668  TIP3      OH2           -26.0731325464       36.4617621879      -79.3124844845  TIP3      12476           0.0000000000
     59679     12668  TIP3      H1            -26.8921363360       35.9394273715      -79.3761404418  TIP3      12476           0.0000000000
     59680     12668  TIP3      H2            -25.5816409433       35.9686390723      -79.9921928803  TIP3      12476           0.0000000000
     59681     12669  TIP3      OH2           -24.0069982140       34.6752204568      -62.7709299832  TIP3      12477           0.0000000000
     59682     12669  TIP3      H1            -24.4844041159       34.0008974257      -62.2572636665  TIP3      12477           0.0000000000
     59683     12669  TIP3      H2            -23.3984297429       35.0454130592      -62.1151700593  TIP3      12477           0.0000000000
     59684     12670  TIP3      OH2           -21.9692124922       35.8889759902      -79.7049500391  TIP3      12478           0.0000000000
     59685     12670  TIP3      H1            -21.6661326617       35.1128868544      -79.2145234783  TIP3      12478           0.0000000000
     59686     12670  TIP3      H2            -21.1791616231       36.0397205032      -80.2630244490  TIP3      12478           0.0000000000
     59687     12671  TIP3      OH2           -35.3879725366       31.5077931600      -61.9900752063  TIP3      12479           0.0000000000
     59688     12671  TIP3      H1            -35.1864765189       30.6160319175      -62.3230136328  TIP3      12479           0.0000000000
     59689     12671  TIP3      H2            -36.1075953774       31.8000012924      -62.5650276107  TIP3      12479           0.0000000000
     59690     12672  TIP3      OH2           -30.9308332078       31.9019013299      -79.8301196310  TIP3      12480           0.0000000000
     59691     12672  TIP3      H1            -30.8509519359       31.0800432187      -79.3458759424  TIP3      12480           0.0000000000
     59692     12672  TIP3      H2            -30.3592124780       31.6869219474      -80.5933802877  TIP3      12480           0.0000000000
     59693     12673  TIP3      OH2           -28.6376513886       31.5122395725      -62.6103942664  TIP3      12481           0.0000000000
     59694     12673  TIP3      H1            -28.9951122349       31.8110565512      -63.4669801673  TIP3      12481           0.0000000000
     59695     12673  TIP3      H2            -28.5792147455       30.5278664943      -62.7063955096  TIP3      12481           0.0000000000
     59696     12674  TIP3      OH2           -22.9533246832       31.3753975970      -65.2061392526  TIP3      12482           0.0000000000
     59697     12674  TIP3      H1            -22.1681211400       31.9572956910      -65.2793883250  TIP3      12482           0.0000000000
     59698     12674  TIP3      H2            -23.6555672257       32.0379266583      -65.1640072309  TIP3      12482           0.0000000000
     59699     12675  TIP3      OH2           -34.5050096641       28.7626451882      -62.6113474160  TIP3      12483           0.0000000000
     59700     12675  TIP3      H1            -34.0342821431       27.9127520999      -62.6995261865  TIP3      12483           0.0000000000
     59701     12675  TIP3      H2            -34.6904412658       28.7546216694      -61.6610586917  TIP3      12483           0.0000000000
     59702     12676  TIP3      OH2           -29.8021575693       29.9187139453      -77.5535434488  TIP3      12484           0.0000000000
     59703     12676  TIP3      H1            -30.3024847166       29.3740441453      -76.9191443502  TIP3      12484           0.0000000000
     59704     12676  TIP3      H2            -29.4878554492       29.2382104028      -78.1951413612  TIP3      12484           0.0000000000
     59705     12677  TIP3      OH2           -30.5527096289       27.6936100552      -65.2484471871  TIP3      12485           0.0000000000
     59706     12677  TIP3      H1            -31.1588382084       28.4057314660      -64.9873312194  TIP3      12485           0.0000000000
     59707     12677  TIP3      H2            -30.1558033817       28.0633847678      -66.0563247953  TIP3      12485           0.0000000000
     59708     12678  TIP3      OH2           -28.7313062928       28.0811021806      -79.3394016545  TIP3      12486           0.0000000000
     59709     12678  TIP3      H1            -28.8470150572       27.9699041616      -80.2941143519  TIP3      12486           0.0000000000
     59710     12678  TIP3      H2            -27.7508047202       28.1623141005      -79.2481804333  TIP3      12486           0.0000000000
     59711     12679  TIP3      OH2           -25.4793111462       30.2627670058      -61.9144094166  TIP3      12487           0.0000000000
     59712     12679  TIP3      H1            -24.5213546749       30.2510612596      -62.0381888510  TIP3      12487           0.0000000000
     59713     12679  TIP3      H2            -25.6494322882       29.4952210511      -61.3434074361  TIP3      12487           0.0000000000
     59714     12680  TIP3      OH2           -19.5988549644       30.6254196068       80.1765018241  TIP3      12488           0.0000000000
     59715     12680  TIP3      H1            -19.6574157603       30.0942319301       79.3635790637  TIP3      12488           0.0000000000
     59716     12680  TIP3      H2            -19.3543606871       31.5131342163       79.8788796582  TIP3      12488           0.0000000000
     59717     12681  TIP3      OH2           -30.1155113829       25.0767330121      -64.1934627611  TIP3      12489           0.0000000000
     59718     12681  TIP3      H1            -30.0276316203       24.3648530459      -64.8531806445  TIP3      12489           0.0000000000
     59719     12681  TIP3      H2            -30.2119949500       25.8834224213      -64.7405924072  TIP3      12489           0.0000000000
     59720     12682  TIP3      OH2           -29.7366554881       23.4550221458      -66.6384509440  TIP3      12490           0.0000000000
     59721     12682  TIP3      H1            -29.2276327358       23.9202526454      -67.3424629442  TIP3      12490           0.0000000000
     59722     12682  TIP3      H2            -30.6314319654       23.3760536714      -67.0444453224  TIP3      12490           0.0000000000
     59723     12683  TIP3      OH2           -28.2031122731       28.9426192494      -66.3940104081  TIP3      12491           0.0000000000
     59724     12683  TIP3      H1            -27.4501791357       28.7767595365      -66.9682131342  TIP3      12491           0.0000000000
     59725     12683  TIP3      H2            -28.5686210047       29.7743926321      -66.7337791874  TIP3      12491           0.0000000000
     59726     12684  TIP3      OH2           -23.8080537218       26.6951672198      -61.4371511078  TIP3      12492           0.0000000000
     59727     12684  TIP3      H1            -23.5725080087       25.7598367345      -61.5261090333  TIP3      12492           0.0000000000
     59728     12684  TIP3      H2            -22.9435359963       27.1391581438      -61.4018447671  TIP3      12492           0.0000000000
     59729     12685  TIP3      OH2           -22.4562410104       29.4876576313      -63.2726423244  TIP3      12493           0.0000000000
     59730     12685  TIP3      H1            -22.7152653489       30.2108919790      -63.8846088026  TIP3      12493           0.0000000000
     59731     12685  TIP3      H2            -21.4968293766       29.4805641809      -63.4546098008  TIP3      12493           0.0000000000
     59732     12686  TIP3      OH2           -31.7117300363       26.3369586348      -62.2843251443  TIP3      12494           0.0000000000
     59733     12686  TIP3      H1            -32.4702032737       25.7347800905      -62.4367355971  TIP3      12494           0.0000000000
     59734     12686  TIP3      H2            -31.0460470941       25.9540349264      -62.8871937355  TIP3      12494           0.0000000000
     59735     12687  TIP3      OH2           -28.9535437411       20.8924037758      -66.2514919163  TIP3      12495           0.0000000000
     59736     12687  TIP3      H1            -29.1370804624       21.8545930447      -66.3485637146  TIP3      12495           0.0000000000
     59737     12687  TIP3      H2            -29.7015407493       20.5234042415      -66.7530422344  TIP3      12495           0.0000000000
     59738     12688  TIP3      OH2           -27.6749016742       25.2199858080      -62.6218613617  TIP3      12496           0.0000000000
     59739     12688  TIP3      H1            -27.9965570132       24.9878433163      -61.7279341468  TIP3      12496           0.0000000000
     59740     12688  TIP3      H2            -28.4612072465       25.0187991310      -63.1629104845  TIP3      12496           0.0000000000
     59741     12689  TIP3      OH2           -24.9604215999       24.3656551536      -63.5312973805  TIP3      12497           0.0000000000
     59742     12689  TIP3      H1            -25.9258577936       24.4174846043      -63.4237565486  TIP3      12497           0.0000000000
     59743     12689  TIP3      H2            -24.6971851331       23.7235639843      -62.8442493971  TIP3      12497           0.0000000000
     59744     12690  TIP3      OH2           -23.3787597336       22.9834014487      -61.6331713537  TIP3      12498           0.0000000000
     59745     12690  TIP3      H1            -23.4275742543       22.0055263486      -61.6024505807  TIP3      12498           0.0000000000
     59746     12690  TIP3      H2            -23.6281039033       23.2755094647      -60.7339565681  TIP3      12498           0.0000000000
     59747     12691  TIP3      OH2           -33.4547750472       24.2343076328      -62.4830986790  TIP3      12499           0.0000000000
     59748     12691  TIP3      H1            -33.3527883421       23.5014406165      -63.1166072120  TIP3      12499           0.0000000000
     59749     12691  TIP3      H2            -33.6722849865       23.7773816777      -61.6500753698  TIP3      12499           0.0000000000
     59750     12692  TIP3      OH2           -28.7380782590       20.2847534526      -63.5503671140  TIP3      12500           0.0000000000
     59751     12692  TIP3      H1            -28.0587540044       19.5810146653      -63.5674723149  TIP3      12500           0.0000000000
     59752     12692  TIP3      H2            -28.8527751453       20.4272170349      -64.5105415596  TIP3      12500           0.0000000000
     59753     12693  TIP3      OH2           -28.3762986734       21.8972812967      -61.4333517253  TIP3      12501           0.0000000000
     59754     12693  TIP3      H1            -28.5497511628       21.3922500235      -62.2664242334  TIP3      12501           0.0000000000
     59755     12693  TIP3      H2            -28.9755749962       22.6621635578      -61.5344201201  TIP3      12501           0.0000000000
     59756     12694  TIP3      OH2           -35.2614496150       33.3229541772      -78.7339412491  TIP3      12502           0.0000000000
     59757     12694  TIP3      H1            -34.3182369353       33.5483071629      -78.5849550028  TIP3      12502           0.0000000000
     59758     12694  TIP3      H2            -35.2590800039       32.8361458054      -79.5616556466  TIP3      12502           0.0000000000
     59759     12695  TIP3      OH2           -20.1962511368       33.0173205283      -61.4134238215  TIP3      12503           0.0000000000
     59760     12695  TIP3      H1            -21.0938064304       32.9755312541      -61.0253138223  TIP3      12503           0.0000000000
     59761     12695  TIP3      H2            -19.8051364031       33.8076719428      -60.9713288027  TIP3      12503           0.0000000000
     59762     12696  TIP3      OH2           -18.8598521153       31.3123546839      -75.9860560100  TIP3      12504           0.0000000000
     59763     12696  TIP3      H1            -18.0366490530       31.7690297525      -75.7529895717  TIP3      12504           0.0000000000
     59764     12696  TIP3      H2            -18.8952185598       30.6266646341      -75.2863433770  TIP3      12504           0.0000000000
     59765     12697  TIP3      OH2           -18.5235687069       29.4258213338      -74.0872012091  TIP3      12505           0.0000000000
     59766     12697  TIP3      H1            -19.2719305638       28.9118423097      -73.7056534897  TIP3      12505           0.0000000000
     59767     12697  TIP3      H2            -17.9259490518       29.5528059376      -73.3222423797  TIP3      12505           0.0000000000
     59768     12698  TIP3      OH2           -18.7525708392       32.1108116475      -69.0675567373  TIP3      12506           0.0000000000
     59769     12698  TIP3      H1            -17.9519438612       31.7397643581      -69.4746081524  TIP3      12506           0.0000000000
     59770     12698  TIP3      H2            -18.6166202055       33.0653152676      -69.2494179903  TIP3      12506           0.0000000000
     59771     12699  TIP3      OH2           -20.2681724590       34.9985380290      -66.7776493550  TIP3      12507           0.0000000000
     59772     12699  TIP3      H1            -20.9644421096       35.3804471127      -66.2445552442  TIP3      12507           0.0000000000
     59773     12699  TIP3      H2            -20.7669778628       34.6426435874      -67.5506192415  TIP3      12507           0.0000000000
     59774     12700  TIP3      OH2           -18.2072739428       29.2696145777      -77.6908739345  TIP3      12508           0.0000000000
     59775     12700  TIP3      H1            -18.8152251555       29.6236880221      -78.3660327254  TIP3      12508           0.0000000000
     59776     12700  TIP3      H2            -18.2972860193       29.9660372434      -77.0123620067  TIP3      12508           0.0000000000
     59777     12701  TIP3      OH2           -20.2835291594       26.4949835229      -79.0578532248  TIP3      12509           0.0000000000
     59778     12701  TIP3      H1            -19.8366883968       27.1040649202      -79.6720288514  TIP3      12509           0.0000000000
     59779     12701  TIP3      H2            -20.0565354201       25.6753619586      -79.5086129667  TIP3      12509           0.0000000000
     59780     12702  TIP3      OH2           -20.6948569786       27.8983281209      -73.5121959385  TIP3      12510           0.0000000000
     59781     12702  TIP3      H1            -20.8505039633       26.9438756940      -73.5591052008  TIP3      12510           0.0000000000
     59782     12702  TIP3      H2            -21.0289613863       28.1120973135      -72.6218888711  TIP3      12510           0.0000000000
     59783     12703  TIP3      OH2           -35.6778771326       29.9696542864      -69.5347687829  TIP3      12511           0.0000000000
     59784     12703  TIP3      H1            -35.4763674422       29.9254738493      -70.4919452442  TIP3      12511           0.0000000000
     59785     12703  TIP3      H2            -34.7970540597       29.8567939656      -69.1146979068  TIP3      12511           0.0000000000
     59786     12704  TIP3      OH2           -19.8356445759       29.8660417308      -63.8236958312  TIP3      12512           0.0000000000
     59787     12704  TIP3      H1            -19.2279499478       29.1131468222      -63.6914339757  TIP3      12512           0.0000000000
     59788     12704  TIP3      H2            -19.2449369590       30.6482692043      -63.8205782234  TIP3      12512           0.0000000000
     59789     12705  TIP3      OH2           -18.3127868580       27.7343696596      -63.1867588064  TIP3      12513           0.0000000000
     59790     12705  TIP3      H1            -19.2229329731       27.3819011237      -63.3232411190  TIP3      12513           0.0000000000
     59791     12705  TIP3      H2            -17.8161985210       26.9142844393      -63.2659265567  TIP3      12513           0.0000000000
     59792     12706  TIP3      OH2           -21.0479780350       25.4891393524      -75.0509616116  TIP3      12514           0.0000000000
     59793     12706  TIP3      H1            -20.7551559254       24.5576752636      -74.9425101537  TIP3      12514           0.0000000000
     59794     12706  TIP3      H2            -20.2528003903       25.8849562364      -75.4301611763  TIP3      12514           0.0000000000
     59795     12707  TIP3      OH2           -20.3932354827       26.0260019593      -69.6129164892  TIP3      12515           0.0000000000
     59796     12707  TIP3      H1            -19.4324038843       26.2554914233      -69.6256427582  TIP3      12515           0.0000000000
     59797     12707  TIP3      H2            -20.5808452772       26.1659409749      -68.6732768217  TIP3      12515           0.0000000000
     59798     12708  TIP3      OH2           -20.3243364157       26.7416160069      -66.8286397482  TIP3      12516           0.0000000000
     59799     12708  TIP3      H1            -21.2074088255       27.0345053281      -66.5152783275  TIP3      12516           0.0000000000
     59800     12708  TIP3      H2            -19.8911660262       27.6015412271      -67.0528779370  TIP3      12516           0.0000000000
     59801     12709  TIP3      OH2           -35.8029065244       25.1536516217      -63.3230930969  TIP3      12517           0.0000000000
     59802     12709  TIP3      H1            -34.9172896123       24.9681901504      -62.9840318454  TIP3      12517           0.0000000000
     59803     12709  TIP3      H2            -36.3809456397       24.4705058323      -62.9016908013  TIP3      12517           0.0000000000
     59804     12710  TIP3      OH2           -18.0651178882       20.8030426503      -61.4943163612  TIP3      12518           0.0000000000
     59805     12710  TIP3      H1            -17.7005444014       20.1456713883      -62.1127483923  TIP3      12518           0.0000000000
     59806     12710  TIP3      H2            -17.9662184559       21.6125786044      -62.0260948037  TIP3      12518           0.0000000000
     59807     12711  TIP3      OH2           -20.3115926962       22.7263421875      -75.0489067084  TIP3      12519           0.0000000000
     59808     12711  TIP3      H1            -20.1752707920       22.3380496754      -74.1606454796  TIP3      12519           0.0000000000
     59809     12711  TIP3      H2            -20.9870041272       22.1389979924      -75.4551889933  TIP3      12519           0.0000000000
     59810     12712  TIP3      OH2           -34.8336634221       23.5285003130      -70.4938012793  TIP3      12520           0.0000000000
     59811     12712  TIP3      H1            -34.3746395511       22.7344228853      -70.1664796753  TIP3      12520           0.0000000000
     59812     12712  TIP3      H2            -34.3335138273       24.2367764161      -70.0508063220  TIP3      12520           0.0000000000
     59813     12713  TIP3      OH2           -36.0164187438       27.3305846737      -69.0562888079  TIP3      12521           0.0000000000
     59814     12713  TIP3      H1            -35.9824250190       26.9009889202      -69.9367059406  TIP3      12521           0.0000000000
     59815     12713  TIP3      H2            -35.9394233683       28.2456021944      -69.3359533992  TIP3      12521           0.0000000000
     59816     12714  TIP3      OH2           -18.5173480888       22.9460957755      -63.1595978837  TIP3      12522           0.0000000000
     59817     12714  TIP3      H1            -19.4730846387       23.1676055550      -63.1807896350  TIP3      12522           0.0000000000
     59818     12714  TIP3      H2            -18.5080998353       22.3460283930      -63.9247783119  TIP3      12522           0.0000000000
     59819     12715  TIP3      OH2           -18.4795177345       22.7833900578      -78.3717176090  TIP3      12523           0.0000000000
     59820     12715  TIP3      H1            -18.1509011979       22.1264794857      -78.9922054761  TIP3      12523           0.0000000000
     59821     12715  TIP3      H2            -17.8341131553       23.4934511752      -78.4851104940  TIP3      12523           0.0000000000
     59822     12716  TIP3      OH2           -35.7400580952       22.8049691096      -75.7265453004  TIP3      12524           0.0000000000
     59823     12716  TIP3      H1            -36.6936068899       22.9671487471      -75.6719939929  TIP3      12524           0.0000000000
     59824     12716  TIP3      H2            -35.5249897422       23.5245824538      -76.3602890593  TIP3      12524           0.0000000000
     59825     12717  TIP3      OH2            37.0297913682       21.4556080394      -66.8331838167  TIP3      12525           0.0000000000
     59826     12717  TIP3      H1             36.2416203671       21.2455686107      -66.3076927597  TIP3      12525           0.0000000000
     59827     12717  TIP3      H2             36.5482524734       21.9703545112      -67.5044956838  TIP3      12525           0.0000000000
     59828     12718  TIP3      OH2           -34.0959506073       34.7567791008      -62.8768839810  TIP3      12526           0.0000000000
     59829     12718  TIP3      H1            -34.9600371509       34.8937781018      -63.2805740532  TIP3      12526           0.0000000000
     59830     12718  TIP3      H2            -34.3166070228       34.5828536361      -61.9561584378  TIP3      12526           0.0000000000
     59831     12719  TIP3      OH2           -31.0872966743       35.6697049252      -66.6399399003  TIP3      12527           0.0000000000
     59832     12719  TIP3      H1            -31.5526583435       36.5048336075      -66.8314808938  TIP3      12527           0.0000000000
     59833     12719  TIP3      H2            -30.1624037709       35.7220992256      -66.8801571905  TIP3      12527           0.0000000000
     59834     12720  TIP3      OH2           -19.5092641457       20.9931964802      -65.2867700586  TIP3      12528           0.0000000000
     59835     12720  TIP3      H1            -20.3390666775       21.2960618645      -65.6967717690  TIP3      12528           0.0000000000
     59836     12720  TIP3      H2            -19.3440087296       20.1740562827      -65.8064684508  TIP3      12528           0.0000000000
     59837     12721  TIP3      OH2           -31.9183257136       35.9597148904      -71.3031304286  TIP3      12529           0.0000000000
     59838     12721  TIP3      H1            -32.4220048806       35.2814554795      -70.8051292143  TIP3      12529           0.0000000000
     59839     12721  TIP3      H2            -31.5105115890       36.5394128665      -70.6679210739  TIP3      12529           0.0000000000
     59840     12722  TIP3      OH2           -26.1257674045       22.4285917236      -71.0032278757  TIP3      12530           0.0000000000
     59841     12722  TIP3      H1            -26.7998404450       21.7880944934      -70.7194779490  TIP3      12530           0.0000000000
     59842     12722  TIP3      H2            -25.5747636078       21.8915718652      -71.5831175965  TIP3      12530           0.0000000000
     59843     12723  TIP3      OH2           -20.9926194393       20.4670358678      -70.9319814040  TIP3      12531           0.0000000000
     59844     12723  TIP3      H1            -20.3888034624       21.0704911361      -71.4285433645  TIP3      12531           0.0000000000
     59845     12723  TIP3      H2            -21.8730691894       20.8296829694      -71.1650595902  TIP3      12531           0.0000000000
     59846     12724  TIP3      OH2           -19.3277532709       21.7321288809      -72.6713752248  TIP3      12532           0.0000000000
     59847     12724  TIP3      H1            -18.6538678588       21.1364561043      -73.0526161586  TIP3      12532           0.0000000000
     59848     12724  TIP3      H2            -18.8241473208       22.5701764550      -72.5327791677  TIP3      12532           0.0000000000
     59849     12725  TIP3      OH2           -33.7480869155       21.0450402372      -73.1267289482  TIP3      12533           0.0000000000
     59850     12725  TIP3      H1            -34.5270896564       20.8446873300      -73.6897738643  TIP3      12533           0.0000000000
     59851     12725  TIP3      H2            -33.2564679368       20.2054178418      -73.2241564366  TIP3      12533           0.0000000000
     59852     12726  TIP3      OH2           -34.9543320240       20.7754428638      -77.4290645368  TIP3      12534           0.0000000000
     59853     12726  TIP3      H1            -34.4767168845       21.4403767980      -77.9618568152  TIP3      12534           0.0000000000
     59854     12726  TIP3      H2            -35.5195723192       21.3516906939      -76.8774199963  TIP3      12534           0.0000000000
     59855     12727  TIP3      OH2           -29.2841085009       20.9766045786      -73.3652869632  TIP3      12535           0.0000000000
     59856     12727  TIP3      H1            -28.3841402277       21.3356914184      -73.4418945153  TIP3      12535           0.0000000000
     59857     12727  TIP3      H2            -29.3158309482       20.7576408066      -72.4351334063  TIP3      12535           0.0000000000
     59858     12728  TIP3      OH2           -23.5626534820       20.9931216150      -71.7424956887  TIP3      12536           0.0000000000
     59859     12728  TIP3      H1            -23.6118576916       21.1089616383      -72.6991315708  TIP3      12536           0.0000000000
     59860     12728  TIP3      H2            -23.9528176958       20.0932131936      -71.6147124443  TIP3      12536           0.0000000000
     59861     12729  TIP3      OH2           -22.2805035230       21.0233386234      -76.0805077202  TIP3      12537           0.0000000000
     59862     12729  TIP3      H1            -23.0272991555       21.6224204609      -76.2366493686  TIP3      12537           0.0000000000
     59863     12729  TIP3      H2            -22.7229214348       20.1741062390      -75.8585735921  TIP3      12537           0.0000000000
     59864     12730  TIP3      OH2           -33.1739367789       22.7019723755      -78.8651549785  TIP3      12538           0.0000000000
     59865     12730  TIP3      H1            -32.6473339800       22.1402344790      -79.4481860881  TIP3      12538           0.0000000000
     59866     12730  TIP3      H2            -32.4816873002       23.0711547129      -78.2938135405  TIP3      12538           0.0000000000
     59867     12731  TIP3      OH2           -28.1286841620       22.9779038932      -76.5153492035  TIP3      12539           0.0000000000
     59868     12731  TIP3      H1            -27.8623080953       22.4158750915      -75.7683128880  TIP3      12539           0.0000000000
     59869     12731  TIP3      H2            -28.0608957553       23.8508943545      -76.0576115790  TIP3      12539           0.0000000000
     59870     12732  TIP3      OH2           -33.9228719192       21.6130691202      -63.6604301529  TIP3      12540           0.0000000000
     59871     12732  TIP3      H1            -34.2578345904       20.7619222331      -63.3176060266  TIP3      12540           0.0000000000
     59872     12732  TIP3      H2            -32.9944256012       21.5503413211      -63.3284876579  TIP3      12540           0.0000000000
     59873     12733  TIP3      OH2           -31.8645631479       20.9669285171      -62.0670244637  TIP3      12541           0.0000000000
     59874     12733  TIP3      H1            -30.9720937250       20.6275407440      -62.2746933602  TIP3      12541           0.0000000000
     59875     12733  TIP3      H2            -32.2543961141       20.1659810998      -61.6681132016  TIP3      12541           0.0000000000
     59876     12734  TIP3      OH2           -23.4664228911       20.2614198317      -61.9090435606  TIP3      12542           0.0000000000
     59877     12734  TIP3      H1            -23.3713717987       19.7894332067      -61.0590481948  TIP3      12542           0.0000000000
     59878     12734  TIP3      H2            -22.5490798181       20.2288554022      -62.2513686602  TIP3      12542           0.0000000000
     59879     12735  TIP3      OH2           -20.4319875130      -36.7605075311      -63.1088228499  TIP3      12543           0.0000000000
     59880     12735  TIP3      H1            -21.0566723086      -36.8883044523      -63.8271673283  TIP3      12543           0.0000000000
     59881     12735  TIP3      H2            -20.2934501244      -35.8007717548      -63.1141936670  TIP3      12543           0.0000000000
     59882     12736  TIP3      OH2            -5.8185015026       30.1703354410      -73.2951374249  TIP3      12544           0.0000000000
     59883     12736  TIP3      H1             -5.8249405865       31.1551598766      -73.3279430773  TIP3      12544           0.0000000000
     59884     12736  TIP3      H2             -6.5439996352       29.9495142972      -73.9009112077  TIP3      12544           0.0000000000
     59885     12737  TIP3      OH2            -6.9553392737       29.4422893908      -69.7960733294  TIP3      12545           0.0000000000
     59886     12737  TIP3      H1             -6.9680071904       28.7979398207      -69.0685077723  TIP3      12545           0.0000000000
     59887     12737  TIP3      H2             -7.3036205478       28.9318152509      -70.5463773518  TIP3      12545           0.0000000000
     59888     12738  TIP3      OH2           -14.6114941999       29.1259685191      -68.2204649974  TIP3      12546           0.0000000000
     59889     12738  TIP3      H1            -14.5103200215       28.4263366641      -67.5493955829  TIP3      12546           0.0000000000
     59890     12738  TIP3      H2            -13.8509561374       29.6887419028      -68.0192967279  TIP3      12546           0.0000000000
     59891     12739  TIP3      OH2            -3.2704812486       32.3803265454      -71.5005560062  TIP3      12547           0.0000000000
     59892     12739  TIP3      H1             -3.6905114809       31.6678508442      -71.0111182350  TIP3      12547           0.0000000000
     59893     12739  TIP3      H2             -3.2296290203       33.0993631336      -70.8445624738  TIP3      12547           0.0000000000
     59894     12740  TIP3      OH2           -13.6580659336       33.5744059935      -69.7119098854  TIP3      12548           0.0000000000
     59895     12740  TIP3      H1            -13.9911587053       32.7184224498      -70.0512132341  TIP3      12548           0.0000000000
     59896     12740  TIP3      H2            -12.7055858493       33.3819932980      -69.7082412752  TIP3      12548           0.0000000000
     59897     12741  TIP3      OH2           -17.0364380703       27.1307781434      -74.2493747252  TIP3      12549           0.0000000000
     59898     12741  TIP3      H1            -17.4678161775       28.0039289449      -74.3049184401  TIP3      12549           0.0000000000
     59899     12741  TIP3      H2            -17.6080225323       26.6070015441      -74.8246529068  TIP3      12549           0.0000000000
     59900     12742  TIP3      OH2           -16.3253068792       29.3512834649      -72.1027896986  TIP3      12550           0.0000000000
     59901     12742  TIP3      H1            -16.0496825877       28.5304903063      -71.6530601621  TIP3      12550           0.0000000000
     59902     12742  TIP3      H2            -15.6314777203       29.4590080233      -72.7708072950  TIP3      12550           0.0000000000
     59903     12743  TIP3      OH2            -8.5969834296       31.8206811731      -69.3107384921  TIP3      12551           0.0000000000
     59904     12743  TIP3      H1             -8.2442518092       31.2153650192      -69.9823006545  TIP3      12551           0.0000000000
     59905     12743  TIP3      H2             -7.7810362790       32.0207154568      -68.8184149325  TIP3      12551           0.0000000000
     59906     12744  TIP3      OH2            -0.0958201099       23.6202750475      -68.4460563724  TIP3      12552           0.0000000000
     59907     12744  TIP3      H1              0.2388669736       24.2124463482      -67.7575951865  TIP3      12552           0.0000000000
     59908     12744  TIP3      H2              0.5099472167       23.8028225609      -69.1973847038  TIP3      12552           0.0000000000
     59909     12745  TIP3      OH2            -5.4179723885       26.3180916548      -69.0087095975  TIP3      12553           0.0000000000
     59910     12745  TIP3      H1             -5.2497926757       25.3580493079      -69.0020853163  TIP3      12553           0.0000000000
     59911     12745  TIP3      H2             -5.5146446401       26.4545670848      -69.9700731600  TIP3      12553           0.0000000000
     59912     12746  TIP3      OH2           -12.2922076653       24.4099268875      -71.7904844803  TIP3      12554           0.0000000000
     59913     12746  TIP3      H1            -12.1895146496       25.2427254106      -72.2868216124  TIP3      12554           0.0000000000
     59914     12746  TIP3      H2            -12.6850064906       23.8362119514      -72.4769196535  TIP3      12554           0.0000000000
     59915     12747  TIP3      OH2            -4.5505294794       24.4779827675      -73.4230216168  TIP3      12555           0.0000000000
     59916     12747  TIP3      H1             -3.8931259669       24.1682110904      -72.7536885863  TIP3      12555           0.0000000000
     59917     12747  TIP3      H2             -3.9929318944       25.0536332258      -73.9730518316  TIP3      12555           0.0000000000
     59918     12748  TIP3      OH2           -15.6786552992       26.8159003782      -71.0473828826  TIP3      12556           0.0000000000
     59919     12748  TIP3      H1            -15.0044163390       26.2706508757      -70.6023094329  TIP3      12556           0.0000000000
     59920     12748  TIP3      H2            -15.5716060656       26.5030367004      -71.9629259250  TIP3      12556           0.0000000000
     59921     12749  TIP3      OH2           -10.5179934037       28.3700177916      -71.7389805336  TIP3      12557           0.0000000000
     59922     12749  TIP3      H1             -9.8444133659       27.7889070630      -71.3460646907  TIP3      12557           0.0000000000
     59923     12749  TIP3      H2            -11.0314261594       27.7130413441      -72.2485865833  TIP3      12557           0.0000000000
     59924     12750  TIP3      OH2             0.4964739819       24.9442375450      -66.2859592402  TIP3      12558           0.0000000000
     59925     12750  TIP3      H1             -0.1499324248       25.6677948541      -66.4378929816  TIP3      12558           0.0000000000
     59926     12750  TIP3      H2              0.4771447586       24.8409072190      -65.3326886581  TIP3      12558           0.0000000000
     59927     12751  TIP3      OH2           -13.3894639368       23.2968549720      -67.7614370749  TIP3      12559           0.0000000000
     59928     12751  TIP3      H1            -13.6668269800       23.8796871543      -68.4993964577  TIP3      12559           0.0000000000
     59929     12751  TIP3      H2            -14.0674121903       23.5216004738      -67.0853131761  TIP3      12559           0.0000000000
     59930     12752  TIP3      OH2            -6.1236124685       32.7534391638      -74.2001969381  TIP3      12560           0.0000000000
     59931     12752  TIP3      H1             -6.3569772456       32.5213751249      -75.1107339129  TIP3      12560           0.0000000000
     59932     12752  TIP3      H2             -6.4041912252       33.6901546573      -74.1498606395  TIP3      12560           0.0000000000
     59933     12753  TIP3      OH2           -10.8810030380       30.9245766106      -67.5028106271  TIP3      12561           0.0000000000
     59934     12753  TIP3      H1            -11.5822162723       31.5743007895      -67.2901426261  TIP3      12561           0.0000000000
     59935     12753  TIP3      H2            -10.1707445405       31.5174433601      -67.8027157210  TIP3      12561           0.0000000000
     59936     12754  TIP3      OH2            -2.7873669384       23.8520984012      -71.4165806677  TIP3      12562           0.0000000000
     59937     12754  TIP3      H1             -2.9643310976       23.0607710844      -70.8990271259  TIP3      12562           0.0000000000
     59938     12754  TIP3      H2             -2.0519529156       24.2399979688      -70.9134590276  TIP3      12562           0.0000000000
     59939     12755  TIP3      OH2           -13.8201464387       25.1573495644      -69.7164723340  TIP3      12563           0.0000000000
     59940     12755  TIP3      H1            -13.1929584430       25.8477209781      -69.4050805468  TIP3      12563           0.0000000000
     59941     12755  TIP3      H2            -13.3040997885       24.7500874965      -70.4573297878  TIP3      12563           0.0000000000
     59942     12756  TIP3      OH2           -12.4146772972       32.9503360315      -66.7115883818  TIP3      12564           0.0000000000
     59943     12756  TIP3      H1            -12.4792933885       33.8548997780      -67.0587004552  TIP3      12564           0.0000000000
     59944     12756  TIP3      H2            -13.3012738295       32.8633694426      -66.2785960770  TIP3      12564           0.0000000000
     59945     12757  TIP3      OH2           -16.3770698252       32.6168063679      -75.9051675650  TIP3      12565           0.0000000000
     59946     12757  TIP3      H1            -16.5937472806       32.9348389812      -76.8048609508  TIP3      12565           0.0000000000
     59947     12757  TIP3      H2            -16.2905611589       33.4448372646      -75.3910334050  TIP3      12565           0.0000000000
     59948     12758  TIP3      OH2            -2.7320606396       34.2524114936      -69.0926325253  TIP3      12566           0.0000000000
     59949     12758  TIP3      H1             -3.7136483829       34.3326501335      -69.0029353176  TIP3      12566           0.0000000000
     59950     12758  TIP3      H2             -2.4502197659       35.1435606958      -69.3629203504  TIP3      12566           0.0000000000
     59951     12759  TIP3      OH2            -2.4313904462       22.5177944670      -67.7381042166  TIP3      12567           0.0000000000
     59952     12759  TIP3      H1             -3.1370278859       23.1616605391      -67.8650308958  TIP3      12567           0.0000000000
     59953     12759  TIP3      H2             -1.6958746454       22.9074696034      -68.2737979498  TIP3      12567           0.0000000000
     59954     12760  TIP3      OH2            -9.4531498584       20.6367524500      -70.2909546220  TIP3      12568           0.0000000000
     59955     12760  TIP3      H1             -9.5924001274       19.6727393501      -70.3650166228  TIP3      12568           0.0000000000
     59956     12760  TIP3      H2            -10.3310249752       20.9409188752      -69.9825061077  TIP3      12568           0.0000000000
     59957     12761  TIP3      OH2            -4.4497654586       35.7039129831      -72.7252431494  TIP3      12569           0.0000000000
     59958     12761  TIP3      H1             -3.8845766305       35.0961176561      -73.2407336248  TIP3      12569           0.0000000000
     59959     12761  TIP3      H2             -4.0555042733       36.5375635362      -72.9740940824  TIP3      12569           0.0000000000
     59960     12762  TIP3      OH2            -3.2324394441       33.8456358873      -74.0560360668  TIP3      12570           0.0000000000
     59961     12762  TIP3      H1             -3.5778098044       33.1876774105      -74.6705903308  TIP3      12570           0.0000000000
     59962     12762  TIP3      H2             -3.2387471793       33.3906108210      -73.1919190448  TIP3      12570           0.0000000000
     59963     12763  TIP3      OH2            -1.6414169434       32.5752478148      -65.5312732704  TIP3      12571           0.0000000000
     59964     12763  TIP3      H1             -1.5176157239       31.8975709495      -66.2326694429  TIP3      12571           0.0000000000
     59965     12763  TIP3      H2             -1.4169436526       33.3958932330      -66.0022900337  TIP3      12571           0.0000000000
     59966     12764  TIP3      OH2            -7.1656835477       29.4306217224      -75.8042638572  TIP3      12572           0.0000000000
     59967     12764  TIP3      H1             -7.8497572760       30.0185270231      -76.1781491234  TIP3      12572           0.0000000000
     59968     12764  TIP3      H2             -6.4525500457       29.5077661568      -76.4646796208  TIP3      12572           0.0000000000
     59969     12765  TIP3      OH2            -7.1439618243       27.9385170444      -78.6784491978  TIP3      12573           0.0000000000
     59970     12765  TIP3      H1             -6.3706986073       27.9833196998      -78.1000246725  TIP3      12573           0.0000000000
     59971     12765  TIP3      H2             -6.8031626303       27.3306059517      -79.3363012890  TIP3      12573           0.0000000000
     59972     12766  TIP3      OH2             0.2399650268       28.8505444027      -67.4981406155  TIP3      12574           0.0000000000
     59973     12766  TIP3      H1             -0.4219692017       29.5693263194      -67.4628427076  TIP3      12574           0.0000000000
     59974     12766  TIP3      H2              0.7313430332       29.0822181898      -68.3072248947  TIP3      12574           0.0000000000
     59975     12767  TIP3      OH2            -3.7149530625       29.6437333272      -74.8386970654  TIP3      12575           0.0000000000
     59976     12767  TIP3      H1             -4.4591641127       29.8791557299      -74.2344019828  TIP3      12575           0.0000000000
     59977     12767  TIP3      H2             -3.2312071791       28.9702666473      -74.3301149231  TIP3      12575           0.0000000000
     59978     12768  TIP3      OH2            -3.7737845382       27.8007918124      -65.7337276677  TIP3      12576           0.0000000000
     59979     12768  TIP3      H1             -3.7804461621       28.5985376338      -65.1785907333  TIP3      12576           0.0000000000
     59980     12768  TIP3      H2             -4.4034956640       28.0985911400      -66.4236017964  TIP3      12576           0.0000000000
     59981     12769  TIP3      OH2           -12.0959212625       30.2962579651      -72.9426172311  TIP3      12577           0.0000000000
     59982     12769  TIP3      H1            -12.4149617483       29.9060759776      -73.7913113565  TIP3      12577           0.0000000000
     59983     12769  TIP3      H2            -11.4798209978       29.6065249167      -72.6080667778  TIP3      12577           0.0000000000
     59984     12770  TIP3      OH2           -10.7704777430       33.6990121187      -70.2744259836  TIP3      12578           0.0000000000
     59985     12770  TIP3      H1            -10.7697742929       33.1543639823      -71.0692981673  TIP3      12578           0.0000000000
     59986     12770  TIP3      H2            -10.0028548902       33.3321827159      -69.7974105173  TIP3      12578           0.0000000000
     59987     12771  TIP3      OH2           -11.7687194518       29.0456950519      -69.2794624371  TIP3      12579           0.0000000000
     59988     12771  TIP3      H1            -11.2170959173       29.1433410326      -70.0806657311  TIP3      12579           0.0000000000
     59989     12771  TIP3      H2            -11.3741415799       29.7074333477      -68.6687049590  TIP3      12579           0.0000000000
     59990     12772  TIP3      OH2            -5.3149757730       34.6135159905      -68.5506318776  TIP3      12580           0.0000000000
     59991     12772  TIP3      H1             -5.6860386933       35.2423410197      -67.9387977380  TIP3      12580           0.0000000000
     59992     12772  TIP3      H2             -5.6110053763       33.7560222621      -68.1581642169  TIP3      12580           0.0000000000
     59993     12773  TIP3      OH2           -10.8150636206       33.4794237947      -64.5815701974  TIP3      12581           0.0000000000
     59994     12773  TIP3      H1            -11.2474455008       34.2226395234      -64.1030105369  TIP3      12581           0.0000000000
     59995     12773  TIP3      H2            -11.4792629116       33.2478105513      -65.2826922717  TIP3      12581           0.0000000000
     59996     12774  TIP3      OH2            -4.8392227991       28.8424051308      -77.1905876432  TIP3      12582           0.0000000000
     59997     12774  TIP3      H1             -4.2892248446       29.0172385226      -76.3867515707  TIP3      12582           0.0000000000
     59998     12774  TIP3      H2             -4.4130569638       29.3905806369      -77.8805340908  TIP3      12582           0.0000000000
     59999     12775  TIP3      OH2           -13.8951493141       29.5765234044      -65.3708140698  TIP3      12583           0.0000000000
     60000     12775  TIP3      H1            -13.8142322153       30.3151592574      -64.7358147656  TIP3      12583           0.0000000000
     60001     12775  TIP3      H2            -14.8068546320       29.7318865329      -65.6644519412  TIP3      12583           0.0000000000
     60002     12776  TIP3      OH2            -7.1653026672       35.5264683578      -73.6991672588  TIP3      12584           0.0000000000
     60003     12776  TIP3      H1             -6.6639668852       35.8560686987      -72.9465681290  TIP3      12584           0.0000000000
     60004     12776  TIP3      H2             -7.6628104245       36.2979407363      -73.9886610800  TIP3      12584           0.0000000000
     60005     12777  TIP3      OH2           -12.5829468626       35.4238628424      -63.8499137088  TIP3      12585           0.0000000000
     60006     12777  TIP3      H1            -12.6568288580       35.3963155290      -64.8268482040  TIP3      12585           0.0000000000
     60007     12777  TIP3      H2            -13.5226100716       35.3590636036      -63.5812093820  TIP3      12585           0.0000000000
     60008     12778  TIP3      OH2            -1.0988886144       20.5846678124      -77.2835223288  TIP3      12586           0.0000000000
     60009     12778  TIP3      H1             -2.0570219840       20.6781815197      -77.0797287003  TIP3      12586           0.0000000000
     60010     12778  TIP3      H2             -0.9072513706       21.4317454946      -77.7217552736  TIP3      12586           0.0000000000
     60011     12779  TIP3      OH2           -13.1366696528       29.3188021648      -75.3109120266  TIP3      12587           0.0000000000
     60012     12779  TIP3      H1            -13.4040523536       30.0940984578      -75.8518668800  TIP3      12587           0.0000000000
     60013     12779  TIP3      H2            -13.7816177860       28.6541759941      -75.5633780134  TIP3      12587           0.0000000000
     60014     12780  TIP3      OH2             0.0327353714       34.8734153303      -78.8984879183  TIP3      12588           0.0000000000
     60015     12780  TIP3      H1              0.0551263555       35.8316382918      -78.7771343138  TIP3      12588           0.0000000000
     60016     12780  TIP3      H2              0.9642554918       34.6295829733      -78.9831036374  TIP3      12588           0.0000000000
     60017     12781  TIP3      OH2           -17.0462210063       31.7539274969      -66.4291304569  TIP3      12589           0.0000000000
     60018     12781  TIP3      H1            -17.4779670952       31.6703886058      -67.2976387486  TIP3      12589           0.0000000000
     60019     12781  TIP3      H2            -16.9653264286       30.8046689491      -66.2251643474  TIP3      12589           0.0000000000
     60020     12782  TIP3      OH2           -17.2415744585       34.4412777047      -69.6108197259  TIP3      12590           0.0000000000
     60021     12782  TIP3      H1            -16.2854744351       34.3958804658      -69.7017193531  TIP3      12590           0.0000000000
     60022     12782  TIP3      H2            -17.3360447555       35.2734804400      -69.1219657871  TIP3      12590           0.0000000000
     60023     12783  TIP3      OH2             0.9407199461       35.1792612802      -63.8885231849  TIP3      12591           0.0000000000
     60024     12783  TIP3      H1              0.8388863607       34.2231677278      -64.0143328221  TIP3      12591           0.0000000000
     60025     12783  TIP3      H2              0.0481786697       35.4409521457      -63.5788432857  TIP3      12591           0.0000000000
     60026     12784  TIP3      OH2            -8.0956262684       34.7467160522      -65.1130910255  TIP3      12592           0.0000000000
     60027     12784  TIP3      H1             -7.9921005619       35.5540790716      -64.5984265934  TIP3      12592           0.0000000000
     60028     12784  TIP3      H2             -8.9364136805       34.3448928621      -64.8258384454  TIP3      12592           0.0000000000
     60029     12785  TIP3      OH2            -1.8115356446       26.6483667074      -63.5266332679  TIP3      12593           0.0000000000
     60030     12785  TIP3      H1             -2.3860826642       27.1059972690      -64.1692617955  TIP3      12593           0.0000000000
     60031     12785  TIP3      H2             -1.9388893119       25.7322943139      -63.8084245002  TIP3      12593           0.0000000000
     60032     12786  TIP3      OH2           -14.7407382960       33.0740628837      -65.4867982556  TIP3      12594           0.0000000000
     60033     12786  TIP3      H1            -14.5337295818       32.6961853964      -64.6091949493  TIP3      12594           0.0000000000
     60034     12786  TIP3      H2            -15.6121224181       32.6868777485      -65.7113539143  TIP3      12594           0.0000000000
     60035     12787  TIP3      OH2           -12.0687866508       21.5389457844      -69.5379401639  TIP3      12595           0.0000000000
     60036     12787  TIP3      H1            -12.9714344436       21.4154699183      -69.9063216278  TIP3      12595           0.0000000000
     60037     12787  TIP3      H2            -12.1991116902       22.3688953172      -69.0491439147  TIP3      12595           0.0000000000
     60038     12788  TIP3      OH2            -7.4262940638       21.2021913938      -66.1805250202  TIP3      12596           0.0000000000
     60039     12788  TIP3      H1             -7.0368821599       20.7796593524      -65.3924093353  TIP3      12596           0.0000000000
     60040     12788  TIP3      H2             -8.3977620555       21.0869861306      -66.0378815756  TIP3      12596           0.0000000000
     60041     12789  TIP3      OH2            -4.1291859951       25.0471737262      -65.2952567115  TIP3      12597           0.0000000000
     60042     12789  TIP3      H1             -4.6881164283       24.8370681427      -64.4987488341  TIP3      12597           0.0000000000
     60043     12789  TIP3      H2             -4.3279899913       25.9802883529      -65.4806960548  TIP3      12597           0.0000000000
     60044     12790  TIP3      OH2            -3.2678084474       29.9287114046      -79.3052606122  TIP3      12598           0.0000000000
     60045     12790  TIP3      H1             -3.3109877942       29.7655540457      -80.2667543041  TIP3      12598           0.0000000000
     60046     12790  TIP3      H2             -2.4032152656       30.3745841197      -79.2462419960  TIP3      12598           0.0000000000
     60047     12791  TIP3      OH2            -7.8003643419       23.7914527649      -78.8361949691  TIP3      12599           0.0000000000
     60048     12791  TIP3      H1             -8.0948199902       23.7318071652      -77.9076630373  TIP3      12599           0.0000000000
     60049     12791  TIP3      H2             -8.0246475038       22.9016660539      -79.1303968330  TIP3      12599           0.0000000000
     60050     12792  TIP3      OH2           -11.9619554387       26.5143893176      -68.2822579469  TIP3      12600           0.0000000000
     60051     12792  TIP3      H1            -12.7121248189       26.4959628818      -67.6615688229  TIP3      12600           0.0000000000
     60052     12792  TIP3      H2            -12.0121943068       27.4216415025      -68.6574994070  TIP3      12600           0.0000000000
     60053     12793  TIP3      OH2           -12.0090396694       26.6218958939      -73.4171890351  TIP3      12601           0.0000000000
     60054     12793  TIP3      H1            -12.9467080544       26.3770865718      -73.5543057887  TIP3      12601           0.0000000000
     60055     12793  TIP3      H2            -11.6322092256       26.3413181122      -74.2763090886  TIP3      12601           0.0000000000
     60056     12794  TIP3      OH2            -6.4763817486       27.1211353646      -74.6898927314  TIP3      12602           0.0000000000
     60057     12794  TIP3      H1             -6.8830120913       27.9573423582      -75.0113118736  TIP3      12602           0.0000000000
     60058     12794  TIP3      H2             -5.7777719620       26.9648976522      -75.3538765305  TIP3      12602           0.0000000000
     60059     12795  TIP3      OH2            -7.4548866713       27.3770747663      -63.4056249289  TIP3      12603           0.0000000000
     60060     12795  TIP3      H1             -7.9445665749       26.6355941776      -62.9582979177  TIP3      12603           0.0000000000
     60061     12795  TIP3      H2             -6.6799760411       27.2698563684      -62.8041192978  TIP3      12603           0.0000000000
     60062     12796  TIP3      OH2            -5.4500157159       26.6212966655      -71.8014892595  TIP3      12604           0.0000000000
     60063     12796  TIP3      H1             -5.7328200733       27.1851494783      -72.5413924522  TIP3      12604           0.0000000000
     60064     12796  TIP3      H2             -5.3550487711       25.7725083390      -72.2733316677  TIP3      12604           0.0000000000
     60065     12797  TIP3      OH2           -14.3376827963       26.7510637903      -66.6009969964  TIP3      12605           0.0000000000
     60066     12797  TIP3      H1            -14.2475174085       27.1888296768      -65.7458445914  TIP3      12605           0.0000000000
     60067     12797  TIP3      H2            -14.7863772323       25.9128327463      -66.4052727889  TIP3      12605           0.0000000000
     60068     12798  TIP3      OH2           -10.7531436425       24.4494274998      -79.3624650416  TIP3      12606           0.0000000000
     60069     12798  TIP3      H1            -11.3132990481       23.7948102148      -78.9061337174  TIP3      12606           0.0000000000
     60070     12798  TIP3      H2            -11.3108841719       24.7872374685      -80.0767321620  TIP3      12606           0.0000000000
     60071     12799  TIP3      OH2           -17.6930874704       23.8347942929      -72.6089717547  TIP3      12607           0.0000000000
     60072     12799  TIP3      H1            -17.0138817215       23.8540401074      -71.9008585364  TIP3      12607           0.0000000000
     60073     12799  TIP3      H2            -17.2150130446       23.5381655732      -73.3930663236  TIP3      12607           0.0000000000
     60074     12800  TIP3      OH2           -16.4050539397       24.5996992526      -77.2145402987  TIP3      12608           0.0000000000
     60075     12800  TIP3      H1            -15.8991347911       25.1758690195      -77.8301987056  TIP3      12608           0.0000000000
     60076     12800  TIP3      H2            -17.1011113936       25.2393995860      -76.9633885113  TIP3      12608           0.0000000000
     60077     12801  TIP3      OH2            -6.2594128362       28.2040534770      -67.2589838299  TIP3      12609           0.0000000000
     60078     12801  TIP3      H1             -5.8847554588       27.5158343135      -67.8493347016  TIP3      12609           0.0000000000
     60079     12801  TIP3      H2             -6.7069130557       27.6799223757      -66.5652178916  TIP3      12609           0.0000000000
     60080     12802  TIP3      OH2            -9.4498654026       24.1881146120      -72.4183141213  TIP3      12610           0.0000000000
     60081     12802  TIP3      H1            -10.3818467854       24.1860885939      -72.1255591037  TIP3      12610           0.0000000000
     60082     12802  TIP3      H2             -8.9696743387       24.0143038594      -71.5954215262  TIP3      12610           0.0000000000
     60083     12803  TIP3      OH2           -14.6581152768       25.7124807028      -73.5334109817  TIP3      12611           0.0000000000
     60084     12803  TIP3      H1            -15.5242285715       25.9026423953      -73.9488806028  TIP3      12611           0.0000000000
     60085     12803  TIP3      H2            -14.3412745203       24.9066996219      -73.9705621137  TIP3      12611           0.0000000000
     60086     12804  TIP3      OH2           -11.0085111676       25.8098231872      -75.9017116982  TIP3      12612           0.0000000000
     60087     12804  TIP3      H1            -10.0467427529       25.8928751509      -75.7458139017  TIP3      12612           0.0000000000
     60088     12804  TIP3      H2            -11.2309841501       26.4467630205      -76.6043908159  TIP3      12612           0.0000000000
     60089     12805  TIP3      OH2            -5.0367628631       23.4148834554      -69.1851251588  TIP3      12613           0.0000000000
     60090     12805  TIP3      H1             -5.7122843306       23.4691641781      -68.4709461449  TIP3      12613           0.0000000000
     60091     12805  TIP3      H2             -5.5642477427       23.1670572042      -69.9576846319  TIP3      12613           0.0000000000
     60092     12806  TIP3      OH2           -12.2934241508       26.9581616791      -78.3291728475  TIP3      12614           0.0000000000
     60093     12806  TIP3      H1            -12.8631246223       26.6069398138      -79.0307978324  TIP3      12614           0.0000000000
     60094     12806  TIP3      H2            -11.4760954577       27.1615377528      -78.8123215603  TIP3      12614           0.0000000000
     60095     12807  TIP3      OH2           -14.1662498817       31.5498646111      -63.2813042975  TIP3      12615           0.0000000000
     60096     12807  TIP3      H1            -13.4454946968       31.7990990513      -62.6754279313  TIP3      12615           0.0000000000
     60097     12807  TIP3      H2            -14.9421147797       31.6195197770      -62.6785657155  TIP3      12615           0.0000000000
     60098     12808  TIP3      OH2            -8.1717268797       26.9398177410      -70.5233079731  TIP3      12616           0.0000000000
     60099     12808  TIP3      H1             -7.5692081403       26.4071045418      -71.0558237481  TIP3      12616           0.0000000000
     60100     12808  TIP3      H2             -8.3160423471       26.3910321053      -69.7405953482  TIP3      12616           0.0000000000
     60101     12809  TIP3      OH2           -13.1934080770       23.0679392130      -74.1058551885  TIP3      12617           0.0000000000
     60102     12809  TIP3      H1            -13.4141291040       22.1254787979      -74.0829769094  TIP3      12617           0.0000000000
     60103     12809  TIP3      H2            -12.3688782859       23.0357861302      -74.6180500251  TIP3      12617           0.0000000000
     60104     12810  TIP3      OH2            -9.5311378261       25.2653587976      -68.1087477257  TIP3      12618           0.0000000000
     60105     12810  TIP3      H1            -10.3554175861       25.7860500445      -68.0191190172  TIP3      12618           0.0000000000
     60106     12810  TIP3      H2             -8.9742715063       25.6195881429      -67.3873745309  TIP3      12618           0.0000000000
     60107     12811  TIP3      OH2            -8.9342378094       31.4864649697      -76.3927625847  TIP3      12619           0.0000000000
     60108     12811  TIP3      H1             -9.7350039864       31.0264946852      -76.7265329707  TIP3      12619           0.0000000000
     60109     12811  TIP3      H2             -9.1513912270       31.5982417941      -75.4473357464  TIP3      12619           0.0000000000
     60110     12812  TIP3      OH2            -1.7505146603       30.6896767774      -67.6058007987  TIP3      12620           0.0000000000
     60111     12812  TIP3      H1             -1.1916104511       31.1874522522      -68.2320843023  TIP3      12620           0.0000000000
     60112     12812  TIP3      H2             -2.6121956848       30.7380664661      -68.0689294267  TIP3      12620           0.0000000000
     60113     12813  TIP3      OH2            -5.0890770957       24.3154570266      -78.2205243913  TIP3      12621           0.0000000000
     60114     12813  TIP3      H1             -6.0324334119       24.4544221325      -78.4084672648  TIP3      12621           0.0000000000
     60115     12813  TIP3      H2             -4.7778063569       25.1692678047      -77.8684977229  TIP3      12621           0.0000000000
     60116     12814  TIP3      OH2            -7.4765654292       31.7805318679      -65.1773873744  TIP3      12622           0.0000000000
     60117     12814  TIP3      H1             -7.8020054238       31.3414916627      -64.3842275570  TIP3      12622           0.0000000000
     60118     12814  TIP3      H2             -7.6991694623       32.7059893576      -65.0539306995  TIP3      12622           0.0000000000
     60119     12815  TIP3      OH2            -4.3808661540       26.2421064934      -76.5619670343  TIP3      12623           0.0000000000
     60120     12815  TIP3      H1             -3.4761829000       26.0835263943      -76.2249751041  TIP3      12623           0.0000000000
     60121     12815  TIP3      H2             -4.2878589971       27.0454042551      -77.0960374904  TIP3      12623           0.0000000000
     60122     12816  TIP3      OH2           -13.8361469137       30.8813214578      -70.6092164822  TIP3      12624           0.0000000000
     60123     12816  TIP3      H1            -13.1509412356       30.8124511899      -71.3051918734  TIP3      12624           0.0000000000
     60124     12816  TIP3      H2            -13.7713284703       30.0219314326      -70.1562818485  TIP3      12624           0.0000000000
     60125     12817  TIP3      OH2            -6.8337862542       32.9264381884      -77.3434538294  TIP3      12625           0.0000000000
     60126     12817  TIP3      H1             -7.1747842385       33.7911797096      -77.0513761554  TIP3      12625           0.0000000000
     60127     12817  TIP3      H2             -7.5940537140       32.3401709573      -77.1792274393  TIP3      12625           0.0000000000
     60128     12818  TIP3      OH2           -16.8315061818       29.2694331475      -65.3627502371  TIP3      12626           0.0000000000
     60129     12818  TIP3      H1            -16.7175149946       28.8671686520      -64.4896582449  TIP3      12626           0.0000000000
     60130     12818  TIP3      H2            -17.4829367595       28.6907729112      -65.8035085139  TIP3      12626           0.0000000000
     60131     12819  TIP3      OH2            -9.8501333826       28.8414058993      -63.1748507697  TIP3      12627           0.0000000000
     60132     12819  TIP3      H1            -10.1206465482       28.5302990814      -64.0470116761  TIP3      12627           0.0000000000
     60133     12819  TIP3      H2             -8.9230033188       28.5217762031      -63.1605537825  TIP3      12627           0.0000000000
     60134     12820  TIP3      OH2            -5.1618860986       34.2441392570      -65.2911292625  TIP3      12628           0.0000000000
     60135     12820  TIP3      H1             -6.1014977596       34.3154781987      -65.4685486089  TIP3      12628           0.0000000000
     60136     12820  TIP3      H2             -5.1828183652       34.4256561539      -64.3200227015  TIP3      12628           0.0000000000
     60137     12821  TIP3      OH2             0.5204568332       26.3582157852      -76.7976203000  TIP3      12629           0.0000000000
     60138     12821  TIP3      H1             -0.0578048328       26.0506058637      -77.5124939924  TIP3      12629           0.0000000000
     60139     12821  TIP3      H2              0.6141130871       27.2931062681      -77.0862442319  TIP3      12629           0.0000000000
     60140     12822  TIP3      OH2             0.5276556607       32.2103260211      -64.0249649397  TIP3      12630           0.0000000000
     60141     12822  TIP3      H1             -0.3656086601       32.4474279741      -64.3779399650  TIP3      12630           0.0000000000
     60142     12822  TIP3      H2              1.0578214621       32.1574440767      -64.8484534816  TIP3      12630           0.0000000000
     60143     12823  TIP3      OH2            -0.9896632952       34.8963978546      -76.2543925288  TIP3      12631           0.0000000000
     60144     12823  TIP3      H1             -1.6429756295       34.2227365835      -76.1269530292  TIP3      12631           0.0000000000
     60145     12823  TIP3      H2             -0.9512227744       35.0194744951      -77.2230805928  TIP3      12631           0.0000000000
     60146     12824  TIP3      OH2            -3.9774044743       30.0044807293      -69.3198858346  TIP3      12632           0.0000000000
     60147     12824  TIP3      H1             -4.9186046301       29.7970794926      -69.4344157278  TIP3      12632           0.0000000000
     60148     12824  TIP3      H2             -3.5455720595       29.2488400835      -69.7612814055  TIP3      12632           0.0000000000
     60149     12825  TIP3      OH2           -11.4193747481       34.3028414431      -73.3195723333  TIP3      12633           0.0000000000
     60150     12825  TIP3      H1            -10.9582488942       35.1464466321      -73.3930598229  TIP3      12633           0.0000000000
     60151     12825  TIP3      H2            -12.3345745402       34.5390285600      -73.5108779422  TIP3      12633           0.0000000000
     60152     12826  TIP3      OH2           -15.7145969615       29.2098623639      -78.7059145035  TIP3      12634           0.0000000000
     60153     12826  TIP3      H1            -15.1048182218       29.8153556880      -78.2472076503  TIP3      12634           0.0000000000
     60154     12826  TIP3      H2            -16.5914818974       29.4688333628      -78.3608499240  TIP3      12634           0.0000000000
     60155     12827  TIP3      OH2           -10.0184083320       31.9895811511      -73.6901230662  TIP3      12635           0.0000000000
     60156     12827  TIP3      H1            -10.3394172086       32.9118966857      -73.6265618473  TIP3      12635           0.0000000000
     60157     12827  TIP3      H2            -10.7607173815       31.5133557960      -73.2689618364  TIP3      12635           0.0000000000
     60158     12828  TIP3      OH2            -9.2857890425       35.8685201833      -67.6123566673  TIP3      12636           0.0000000000
     60159     12828  TIP3      H1             -9.1410549090       36.8199967781      -67.6847757510  TIP3      12636           0.0000000000
     60160     12828  TIP3      H2             -8.9757410925       35.7163857660      -66.7077978093  TIP3      12636           0.0000000000
     60161     12829  TIP3      OH2            -6.0718943718       32.1881776900      -67.6871585792  TIP3      12637           0.0000000000
     60162     12829  TIP3      H1             -6.4076087184       31.9714112800      -66.7934639005  TIP3      12637           0.0000000000
     60163     12829  TIP3      H2             -5.4324977838       31.4791015194      -67.8526057264  TIP3      12637           0.0000000000
     60164     12830  TIP3      OH2            -3.6607410703       33.1313792144      -78.4549048357  TIP3      12638           0.0000000000
     60165     12830  TIP3      H1             -3.4944226825       32.7128440220      -77.5986829407  TIP3      12638           0.0000000000
     60166     12830  TIP3      H2             -4.6315716234       33.1205251079      -78.5296397257  TIP3      12638           0.0000000000
     60167     12831  TIP3      OH2           -15.1845789279       24.0596063887      -65.7404411594  TIP3      12639           0.0000000000
     60168     12831  TIP3      H1            -16.1062874221       24.3521599528      -65.8562373692  TIP3      12639           0.0000000000
     60169     12831  TIP3      H2            -15.2957251637       23.1658171185      -65.3664276582  TIP3      12639           0.0000000000
     60170     12832  TIP3      OH2            -2.9425101167       31.7981189274      -76.3135698788  TIP3      12640           0.0000000000
     60171     12832  TIP3      H1             -3.1780041233       31.0295158390      -75.7649495803  TIP3      12640           0.0000000000
     60172     12832  TIP3      H2             -2.0033617568       31.9498083061      -76.1208662921  TIP3      12640           0.0000000000
     60173     12833  TIP3      OH2           -15.5785977943       35.7718500396      -67.3801557016  TIP3      12641           0.0000000000
     60174     12833  TIP3      H1            -15.2880296439       34.8581894256      -67.3353691589  TIP3      12641           0.0000000000
     60175     12833  TIP3      H2            -15.3780252805       36.1162110031      -66.5012196046  TIP3      12641           0.0000000000
     60176     12834  TIP3      OH2           -10.8263524027       33.8551659126      -77.7014445374  TIP3      12642           0.0000000000
     60177     12834  TIP3      H1            -10.5896751147       33.3093696259      -76.9387200157  TIP3      12642           0.0000000000
     60178     12834  TIP3      H2            -10.7297919415       34.7568030185      -77.3478993394  TIP3      12642           0.0000000000
     60179     12835  TIP3      OH2           -14.3268381986       31.1263542660      -77.1359865274  TIP3      12643           0.0000000000
     60180     12835  TIP3      H1            -15.0111883048       31.5415905271      -76.5719696868  TIP3      12643           0.0000000000
     60181     12835  TIP3      H2            -13.7901200822       31.8935703789      -77.4157778953  TIP3      12643           0.0000000000
     60182     12836  TIP3      OH2            -6.4500648701       23.7918991795      -66.8517960827  TIP3      12644           0.0000000000
     60183     12836  TIP3      H1             -5.7607004369       23.8696273166      -66.1794618696  TIP3      12644           0.0000000000
     60184     12836  TIP3      H2             -6.8424855566       22.9226845830      -66.6334328142  TIP3      12644           0.0000000000
     60185     12837  TIP3      OH2            -5.7310189535       23.3923452750      -75.7442990105  TIP3      12645           0.0000000000
     60186     12837  TIP3      H1             -5.4634631082       23.8399151802      -76.5700916018  TIP3      12645           0.0000000000
     60187     12837  TIP3      H2             -5.1326335640       23.8009951925      -75.1070059508  TIP3      12645           0.0000000000
     60188     12838  TIP3      OH2            -8.0053033830       35.5573372538      -76.8850104507  TIP3      12646           0.0000000000
     60189     12838  TIP3      H1             -8.8494367021       36.0284504195      -76.8901401560  TIP3      12646           0.0000000000
     60190     12838  TIP3      H2             -7.4720005223       36.0121472557      -77.5739579238  TIP3      12646           0.0000000000
     60191     12839  TIP3      OH2            -8.4952387307       25.1080936312      -74.9390993694  TIP3      12647           0.0000000000
     60192     12839  TIP3      H1             -7.7122886218       25.6925379979      -74.9144287691  TIP3      12647           0.0000000000
     60193     12839  TIP3      H2             -8.7542742349       24.9989093395      -74.0070237474  TIP3      12647           0.0000000000
     60194     12840  TIP3      OH2            -7.9266956149       26.1507719393      -65.7779033591  TIP3      12648           0.0000000000
     60195     12840  TIP3      H1             -7.8692170957       26.6881048157      -64.9502327869  TIP3      12648           0.0000000000
     60196     12840  TIP3      H2             -7.2791919977       25.4474136780      -65.6339337920  TIP3      12648           0.0000000000
     60197     12841  TIP3      OH2            -7.6343962422       22.1708371036      -74.0602843971  TIP3      12649           0.0000000000
     60198     12841  TIP3      H1             -7.9603809504       22.8211756933      -73.4157772930  TIP3      12649           0.0000000000
     60199     12841  TIP3      H2             -6.9408790971       22.7212773905      -74.5019502927  TIP3      12649           0.0000000000
     60200     12842  TIP3      OH2           -10.6209975946      -36.4514076099      -76.9453773494  TIP3      12650           0.0000000000
     60201     12842  TIP3      H1            -10.5083577133      -35.6071188418      -77.3900086550  TIP3      12650           0.0000000000
     60202     12842  TIP3      H2            -10.8668050749      -36.1470398060      -76.0553315228  TIP3      12650           0.0000000000
     60203     12843  TIP3      OH2           -12.0008633361       23.2637470681      -77.2682189899  TIP3      12651           0.0000000000
     60204     12843  TIP3      H1            -12.0371501680       24.1895909048      -76.9515863721  TIP3      12651           0.0000000000
     60205     12843  TIP3      H2            -11.0797602862       23.0431958626      -77.0199717267  TIP3      12651           0.0000000000
     60206     12844  TIP3      OH2            -1.7452471434       24.0118981711      -64.8679684901  TIP3      12652           0.0000000000
     60207     12844  TIP3      H1             -2.6753387593       24.3225014064      -65.0106109885  TIP3      12652           0.0000000000
     60208     12844  TIP3      H2             -1.4557064582       23.9947265476      -65.7980621575  TIP3      12652           0.0000000000
     60209     12845  TIP3      OH2            -3.1386916104       27.7984635161      -70.8942262564  TIP3      12653           0.0000000000
     60210     12845  TIP3      H1             -3.9619863021       27.3438226576      -71.1527845881  TIP3      12653           0.0000000000
     60211     12845  TIP3      H2             -2.6559616466       27.1148592197      -70.3743792586  TIP3      12653           0.0000000000
     60212     12846  TIP3      OH2           -13.7254526427       33.6982533653      -78.2682975879  TIP3      12654           0.0000000000
     60213     12846  TIP3      H1            -13.0868429870       34.3668742503      -78.0104798549  TIP3      12654           0.0000000000
     60214     12846  TIP3      H2            -13.2251835633       33.2899686798      -78.9991579614  TIP3      12654           0.0000000000
     60215     12847  TIP3      OH2           -15.3461850494       26.4119502465      -79.0992235760  TIP3      12655           0.0000000000
     60216     12847  TIP3      H1            -15.3776001997       27.3757568449      -78.9785398034  TIP3      12655           0.0000000000
     60217     12847  TIP3      H2            -16.2212394866       26.2081797408      -79.4433769991  TIP3      12655           0.0000000000
     60218     12848  TIP3      OH2           -14.5913489408       21.1712507166      -70.4090049596  TIP3      12656           0.0000000000
     60219     12848  TIP3      H1            -14.7728811970       21.2003266735      -71.3656260961  TIP3      12656           0.0000000000
     60220     12848  TIP3      H2            -14.9930993547       20.3154294976      -70.1507999768  TIP3      12656           0.0000000000
     60221     12849  TIP3      OH2           -15.6102314863       35.1069951255      -74.3035324385  TIP3      12657           0.0000000000
     60222     12849  TIP3      H1            -16.4818377887       35.5251471754      -74.3007051252  TIP3      12657           0.0000000000
     60223     12849  TIP3      H2            -15.1288386591       35.5913505365      -74.9820794589  TIP3      12657           0.0000000000
     60224     12850  TIP3      OH2           -11.4581096888       36.3496055530      -61.1556750410  TIP3      12658           0.0000000000
     60225     12850  TIP3      H1            -10.6037790176       35.9485819445      -60.9846176537  TIP3      12658           0.0000000000
     60226     12850  TIP3      H2            -11.5353075915       36.2091052049      -62.1162981297  TIP3      12658           0.0000000000
     60227     12851  TIP3      OH2            -7.2253947209       36.4550013708      -79.3376608177  TIP3      12659           0.0000000000
     60228     12851  TIP3      H1             -8.0249137547       35.9120415075      -79.3967767641  TIP3      12659           0.0000000000
     60229     12851  TIP3      H2             -6.6771324920       35.9354026610      -79.9795953677  TIP3      12659           0.0000000000
     60230     12852  TIP3      OH2            -5.1511210929       34.6745757421      -62.7698746007  TIP3      12660           0.0000000000
     60231     12852  TIP3      H1             -5.6288514956       33.9995885767      -62.2579907081  TIP3      12660           0.0000000000
     60232     12852  TIP3      H2             -4.5428570527       35.0438283064      -62.1148825830  TIP3      12660           0.0000000000
     60233     12853  TIP3      OH2            -2.9542461768       36.0282886241      -79.5557942105  TIP3      12661           0.0000000000
     60234     12853  TIP3      H1             -2.8760712218       35.1108754410      -79.2516630044  TIP3      12661           0.0000000000
     60235     12853  TIP3      H2             -2.3054185629       36.0244330026      -80.2773162327  TIP3      12661           0.0000000000
     60236     12854  TIP3      OH2           -16.5009449610       31.5091325845      -61.9926628232  TIP3      12662           0.0000000000
     60237     12854  TIP3      H1            -16.3691025923       30.6020085222      -62.3080199093  TIP3      12662           0.0000000000
     60238     12854  TIP3      H2            -17.2462112018       31.8135058384      -62.5456943930  TIP3      12662           0.0000000000
     60239     12855  TIP3      OH2           -12.0723226425       31.8966550748      -79.8272957658  TIP3      12663           0.0000000000
     60240     12855  TIP3      H1            -11.9915856447       31.0729095129      -79.3505855659  TIP3      12663           0.0000000000
     60241     12855  TIP3      H2            -11.5054969473       31.7000084681      -80.6015986533  TIP3      12663           0.0000000000
     60242     12856  TIP3      OH2            -9.7700123568       31.5010193779      -62.6039115059  TIP3      12664           0.0000000000
     60243     12856  TIP3      H1            -10.1328638175       31.7987047372      -63.4574654766  TIP3      12664           0.0000000000
     60244     12856  TIP3      H2             -9.7082294449       30.5168810053      -62.6977435030  TIP3      12664           0.0000000000
     60245     12857  TIP3      OH2            -4.1000599154       31.3895771867      -65.2368783949  TIP3      12665           0.0000000000
     60246     12857  TIP3      H1             -3.3081105638       31.9605392066      -65.2959563580  TIP3      12665           0.0000000000
     60247     12857  TIP3      H2             -4.8013337998       32.0499204987      -65.1656662963  TIP3      12665           0.0000000000
     60248     12858  TIP3      OH2           -15.7372733022       28.8598580566      -62.5693490429  TIP3      12666           0.0000000000
     60249     12858  TIP3      H1            -15.0444876192       28.2387215415      -62.6485575043  TIP3      12666           0.0000000000
     60250     12858  TIP3      H2            -15.8875111149       28.8823560618      -61.5986615993  TIP3      12666           0.0000000000
     60251     12859  TIP3      OH2           -10.9607882312       29.9048643773      -77.5365881050  TIP3      12667           0.0000000000
     60252     12859  TIP3      H1            -11.4599550581       29.3571929696      -76.9074225929  TIP3      12667           0.0000000000
     60253     12859  TIP3      H2            -10.6374216190       29.2340428535      -78.1838338999  TIP3      12667           0.0000000000
     60254     12860  TIP3      OH2           -11.7275715258       27.6919250694      -65.2496329692  TIP3      12668           0.0000000000
     60255     12860  TIP3      H1            -12.2764078013       28.4520290670      -65.0076995037  TIP3      12668           0.0000000000
     60256     12860  TIP3      H2            -11.2860657560       28.0474441643      -66.0471276677  TIP3      12668           0.0000000000
     60257     12861  TIP3      OH2            -9.8619723986       28.0734087446      -79.3422757301  TIP3      12669           0.0000000000
     60258     12861  TIP3      H1             -9.9834353099       27.9631563987      -80.2958617871  TIP3      12669           0.0000000000
     60259     12861  TIP3      H2             -8.8818488597       28.1603808240      -79.2518670273  TIP3      12669           0.0000000000
     60260     12862  TIP3      OH2            -6.6146830807       30.2756077267      -61.9208362594  TIP3      12670           0.0000000000
     60261     12862  TIP3      H1             -5.6543255922       30.2448951812      -62.0117642818  TIP3      12670           0.0000000000
     60262     12862  TIP3      H2             -6.7984140276       29.5150452401      -61.3439908290  TIP3      12670           0.0000000000
     60263     12863  TIP3      OH2            -0.7092807772       30.6189905370       80.1794761100  TIP3      12671           0.0000000000
     60264     12863  TIP3      H1             -0.8106322624       30.0966145633       79.3648988638  TIP3      12671           0.0000000000
     60265     12863  TIP3      H2             -0.5248665952       31.5182481957       79.8798774400  TIP3      12671           0.0000000000
     60266     12864  TIP3      OH2           -11.3994913393       25.0692516707      -64.2130261177  TIP3      12672           0.0000000000
     60267     12864  TIP3      H1            -11.1405617923       24.3686509527      -64.8454651425  TIP3      12672           0.0000000000
     60268     12864  TIP3      H2            -11.2956078535       25.8878333728      -64.7388519497  TIP3      12672           0.0000000000
     60269     12865  TIP3      OH2           -10.8827831997       23.4537420612      -66.6395212569  TIP3      12673           0.0000000000
     60270     12865  TIP3      H1            -10.3764153437       23.9204723471      -67.3468876263  TIP3      12673           0.0000000000
     60271     12865  TIP3      H2            -11.7779006232       23.3788013787      -67.0420341881  TIP3      12673           0.0000000000
     60272     12866  TIP3      OH2            -9.3431264207       28.9476078903      -66.4015385015  TIP3      12674           0.0000000000
     60273     12866  TIP3      H1             -8.5882488316       28.7776785543      -66.9730135495  TIP3      12674           0.0000000000
     60274     12866  TIP3      H2             -9.7102969035       29.7798493263      -66.7383341011  TIP3      12674           0.0000000000
     60275     12867  TIP3      OH2            -4.3385595390       26.7672203630      -61.8057463489  TIP3      12675           0.0000000000
     60276     12867  TIP3      H1             -4.6693480103       25.9240610198      -61.4398302670  TIP3      12675           0.0000000000
     60277     12867  TIP3      H2             -3.7262495110       27.1521919713      -61.1977866493  TIP3      12675           0.0000000000
     60278     12868  TIP3      OH2            -3.5921268730       29.5197389334      -63.2795084112  TIP3      12676           0.0000000000
     60279     12868  TIP3      H1             -3.8554497522       30.2273126954      -63.9016096323  TIP3      12676           0.0000000000
     60280     12868  TIP3      H2             -2.6348980033       29.4813862827      -63.4694797616  TIP3      12676           0.0000000000
     60281     12869  TIP3      OH2           -12.9006638562       26.3499112228      -62.3526759046  TIP3      12677           0.0000000000
     60282     12869  TIP3      H1            -13.4847164449       25.5760192786      -62.3944759682  TIP3      12677           0.0000000000
     60283     12869  TIP3      H2            -12.1314619785       25.9873963262      -62.8537109695  TIP3      12677           0.0000000000
     60284     12870  TIP3      OH2           -10.1062820513       20.8980905566      -66.2507398908  TIP3      12678           0.0000000000
     60285     12870  TIP3      H1            -10.2851196965       21.8614947124      -66.3488567629  TIP3      12678           0.0000000000
     60286     12870  TIP3      H2            -10.8508358507       20.5278482882      -66.7554907352  TIP3      12678           0.0000000000
     60287     12871  TIP3      OH2            -8.9433428765       25.1452871235      -62.8131944081  TIP3      12679           0.0000000000
     60288     12871  TIP3      H1             -9.0628337358       25.0387417256      -61.8339374239  TIP3      12679           0.0000000000
     60289     12871  TIP3      H2             -9.7972306255       24.9675934454      -63.1955070356  TIP3      12679           0.0000000000
     60290     12872  TIP3      OH2            -6.1161964125       24.2451972994      -63.6354586852  TIP3      12680           0.0000000000
     60291     12872  TIP3      H1             -7.0388691355       24.4664493689      -63.3981151890  TIP3      12680           0.0000000000
     60292     12872  TIP3      H2             -5.8416367027       23.7837876540      -62.8247163440  TIP3      12680           0.0000000000
     60293     12873  TIP3      OH2            -4.4073476305       22.9900659201      -61.5819263510  TIP3      12681           0.0000000000
     60294     12873  TIP3      H1             -4.6122654296       22.0330413130      -61.6030636329  TIP3      12681           0.0000000000
     60295     12873  TIP3      H2             -4.8136052926       23.3053945609      -60.7486109654  TIP3      12681           0.0000000000
     60296     12874  TIP3      OH2           -14.7521859065       24.2927504338      -62.5233082001  TIP3      12682           0.0000000000
     60297     12874  TIP3      H1            -14.5078163765       23.5322496620      -63.1004457338  TIP3      12682           0.0000000000
     60298     12874  TIP3      H2            -14.8384539662       23.8119305314      -61.6638305649  TIP3      12682           0.0000000000
     60299     12875  TIP3      OH2            -9.8810162298       20.2824979182      -63.5494063323  TIP3      12683           0.0000000000
     60300     12875  TIP3      H1             -9.2076504569       19.5714183311      -63.5631798814  TIP3      12683           0.0000000000
     60301     12875  TIP3      H2             -9.9920739837       20.4334071388      -64.5070038779  TIP3      12683           0.0000000000
     60302     12876  TIP3      OH2            -9.5583811154       21.8623286521      -61.4152199520  TIP3      12684           0.0000000000
     60303     12876  TIP3      H1             -9.6911289590       21.4052063772      -62.2791591486  TIP3      12684           0.0000000000
     60304     12876  TIP3      H2            -10.0797937899       22.6811491612      -61.5321299074  TIP3      12684           0.0000000000
     60305     12877  TIP3      OH2           -16.4650163212       33.3683201248      -78.7791252025  TIP3      12685           0.0000000000
     60306     12877  TIP3      H1            -15.5172043939       33.5312624553      -78.5729955348  TIP3      12685           0.0000000000
     60307     12877  TIP3      H2            -16.4083995362       32.8168398944      -79.5638627617  TIP3      12685           0.0000000000
     60308     12878  TIP3      OH2            -1.3466941184       33.0253842419      -61.4081390936  TIP3      12686           0.0000000000
     60309     12878  TIP3      H1             -2.2395076578       32.9940676976      -61.0091586113  TIP3      12686           0.0000000000
     60310     12878  TIP3      H2             -0.9442497021       33.8120815231      -60.9697581851  TIP3      12686           0.0000000000
     60311     12879  TIP3      OH2            -0.0035461904       31.3118338326      -75.9865319429  TIP3      12687           0.0000000000
     60312     12879  TIP3      H1              0.8185363094       31.7702543881      -75.7526893211  TIP3      12687           0.0000000000
     60313     12879  TIP3      H2             -0.0390250890       30.6268438737      -75.2864250014  TIP3      12687           0.0000000000
     60314     12880  TIP3      OH2             0.3303209594       29.4276082756      -74.0867842413  TIP3      12688           0.0000000000
     60315     12880  TIP3      H1             -0.4155187919       28.9113042868      -73.7050717582  TIP3      12688           0.0000000000
     60316     12880  TIP3      H2              0.9304851647       29.5540155269      -73.3237114846  TIP3      12688           0.0000000000
     60317     12881  TIP3      OH2             0.1008361688       32.1128545095      -69.0728231808  TIP3      12689           0.0000000000
     60318     12881  TIP3      H1              0.9037268772       31.7401067976      -69.4745649371  TIP3      12689           0.0000000000
     60319     12881  TIP3      H2              0.2398804729       33.0668657424      -69.2500605345  TIP3      12689           0.0000000000
     60320     12882  TIP3      OH2            -1.4119509240       34.9983292566      -66.7783762494  TIP3      12690           0.0000000000
     60321     12882  TIP3      H1             -2.1081951684       35.3800525211      -66.2448243389  TIP3      12690           0.0000000000
     60322     12882  TIP3      H2             -1.9105291184       34.6415543672      -67.5512529979  TIP3      12690           0.0000000000
     60323     12883  TIP3      OH2             0.6506859385       29.2699378885      -77.6903280045  TIP3      12691           0.0000000000
     60324     12883  TIP3      H1              0.0422937908       29.6236243645      -78.3664313643  TIP3      12691           0.0000000000
     60325     12883  TIP3      H2              0.5587536989       29.9668759927      -77.0125082018  TIP3      12691           0.0000000000
     60326     12884  TIP3      OH2            -1.4272590305       26.4928489968      -79.0573666831  TIP3      12692           0.0000000000
     60327     12884  TIP3      H1             -0.9795626233       27.1014846183      -79.6707536083  TIP3      12692           0.0000000000
     60328     12884  TIP3      H2             -1.1949023126       25.6705078771      -79.5031352593  TIP3      12692           0.0000000000
     60329     12885  TIP3      OH2            -1.8425548869       27.8976842683      -73.5113832095  TIP3      12693           0.0000000000
     60330     12885  TIP3      H1             -1.9927754703       26.9424944952      -73.5614482890  TIP3      12693           0.0000000000
     60331     12885  TIP3      H2             -2.1701444250       28.1041002201      -72.6165944800  TIP3      12693           0.0000000000
     60332     12886  TIP3      OH2           -16.8370621236       29.9860618135      -69.4550144206  TIP3      12694           0.0000000000
     60333     12886  TIP3      H1            -16.6605745753       29.8990461273      -70.4181944772  TIP3      12694           0.0000000000
     60334     12886  TIP3      H2            -15.9448713782       29.8059828855      -69.1006453459  TIP3      12694           0.0000000000
     60335     12887  TIP3      OH2            -0.9862271487       29.8617990560      -63.8174572320  TIP3      12695           0.0000000000
     60336     12887  TIP3      H1             -0.3767971147       29.1033738927      -63.6905834274  TIP3      12695           0.0000000000
     60337     12887  TIP3      H2             -0.3847064414       30.6313852084      -63.8151400518  TIP3      12695           0.0000000000
     60338     12888  TIP3      OH2             0.5156791794       27.7473359788      -63.1459742455  TIP3      12696           0.0000000000
     60339     12888  TIP3      H1             -0.3648475634       27.3624910588      -63.3590041057  TIP3      12696           0.0000000000
     60340     12888  TIP3      H2              1.0805848669       26.9695642339      -63.2726440488  TIP3      12696           0.0000000000
     60341     12889  TIP3      OH2            -2.1845257873       25.4837888813      -75.0413894363  TIP3      12697           0.0000000000
     60342     12889  TIP3      H1             -1.8779055289       24.5483165102      -74.9313095148  TIP3      12697           0.0000000000
     60343     12889  TIP3      H2             -1.3963819088       25.8823510933      -75.4314759112  TIP3      12697           0.0000000000
     60344     12890  TIP3      OH2            -1.5458531689       26.0496541326      -69.6065704658  TIP3      12698           0.0000000000
     60345     12890  TIP3      H1             -0.5740423196       26.2260664773      -69.6303767106  TIP3      12698           0.0000000000
     60346     12890  TIP3      H2             -1.7132827382       26.1476550298      -68.6591749899  TIP3      12698           0.0000000000
     60347     12891  TIP3      OH2            -1.4715993209       26.7496286607      -66.8439484675  TIP3      12699           0.0000000000
     60348     12891  TIP3      H1             -2.3536539378       27.0332598103      -66.5101092825  TIP3      12699           0.0000000000
     60349     12891  TIP3      H2             -1.0376065620       27.6103102706      -67.0557425916  TIP3      12699           0.0000000000
     60350     12892  TIP3      OH2           -17.1606028279       25.2959588970      -63.2468650228  TIP3      12700           0.0000000000
     60351     12892  TIP3      H1            -16.2857199685       24.9049063709      -63.1131261849  TIP3      12700           0.0000000000
     60352     12892  TIP3      H2            -17.7151583180       24.4950368828      -63.0602709712  TIP3      12700           0.0000000000
     60353     12893  TIP3      OH2             0.8074280341       20.8278401522      -61.4878185959  TIP3      12701           0.0000000000
     60354     12893  TIP3      H1              1.1465336852       20.1416455844      -62.0964344470  TIP3      12701           0.0000000000
     60355     12893  TIP3      H2              0.9150221541       21.6152815879      -62.0553826849  TIP3      12701           0.0000000000
     60356     12894  TIP3      OH2            -1.5755604598       22.8223882922      -75.1095011749  TIP3      12702           0.0000000000
     60357     12894  TIP3      H1             -1.2791716866       22.3869217510      -74.2595201703  TIP3      12702           0.0000000000
     60358     12894  TIP3      H2             -2.1289444825       22.1130599432      -75.4755556709  TIP3      12702           0.0000000000
     60359     12895  TIP3      OH2           -16.0145644775       23.5611162659      -70.4829386420  TIP3      12703           0.0000000000
     60360     12895  TIP3      H1            -15.5618699527       22.7483793380      -70.1795975813  TIP3      12703           0.0000000000
     60361     12895  TIP3      H2            -15.4825451514       24.2604911260      -70.0749348311  TIP3      12703           0.0000000000
     60362     12896  TIP3      OH2           -17.7389448326       26.5764688944      -69.4165897305  TIP3      12704           0.0000000000
     60363     12896  TIP3      H1            -17.1735895739       26.3269678962      -70.1759336830  TIP3      12704           0.0000000000
     60364     12896  TIP3      H2            -17.2719833395       27.3816834586      -69.1477796444  TIP3      12704           0.0000000000
     60365     12897  TIP3      OH2             0.3093187623       22.9148535935      -63.1171210016  TIP3      12705           0.0000000000
     60366     12897  TIP3      H1             -0.6205598682       23.1791404459      -63.2303839052  TIP3      12705           0.0000000000
     60367     12897  TIP3      H2              0.3698439543       22.3655686397      -63.9214018533  TIP3      12705           0.0000000000
     60368     12898  TIP3      OH2             0.3249708458       22.8284495834      -78.4671288458  TIP3      12706           0.0000000000
     60369     12898  TIP3      H1              0.7260446723       22.1137079145      -78.9697355726  TIP3      12706           0.0000000000
     60370     12898  TIP3      H2              1.0392521580       23.4757124375      -78.4443562677  TIP3      12706           0.0000000000
     60371     12899  TIP3      OH2           -17.3948757859       22.8314228771      -75.3781890316  TIP3      12707           0.0000000000
     60372     12899  TIP3      H1            -18.3372380379       23.0792868057      -75.4887464142  TIP3      12707           0.0000000000
     60373     12899  TIP3      H2            -16.9811857196       23.3950523554      -76.0664242203  TIP3      12707           0.0000000000
     60374     12900  TIP3      OH2           -17.4230237878       21.4863081267      -67.0499936718  TIP3      12708           0.0000000000
     60375     12900  TIP3      H1            -18.0907090804       21.2958531442      -66.3673803063  TIP3      12708           0.0000000000
     60376     12900  TIP3      H2            -17.8804586923       22.1604337424      -67.5920141171  TIP3      12708           0.0000000000
     60377     12901  TIP3      OH2           -15.1879064556       34.7663819461      -62.8682092073  TIP3      12709           0.0000000000
     60378     12901  TIP3      H1            -16.0402051617       34.8869820276      -63.3254606421  TIP3      12709           0.0000000000
     60379     12901  TIP3      H2            -15.4638428285       34.5816850179      -61.9641745633  TIP3      12709           0.0000000000
     60380     12902  TIP3      OH2           -12.2442627175       35.6865636168      -66.5324683166  TIP3      12710           0.0000000000
     60381     12902  TIP3      H1            -12.6878232660       36.4639948815      -66.9055873955  TIP3      12710           0.0000000000
     60382     12902  TIP3      H2            -11.3846294086       35.6662195128      -66.9759894050  TIP3      12710           0.0000000000
     60383     12903  TIP3      OH2            -0.6773460266       20.9830814352      -65.2614535031  TIP3      12711           0.0000000000
     60384     12903  TIP3      H1             -1.4752912956       21.3058041263      -65.7113306426  TIP3      12711           0.0000000000
     60385     12903  TIP3      H2             -0.4810155709       20.1901437576      -65.8118129702  TIP3      12711           0.0000000000
     60386     12904  TIP3      OH2           -13.0829349558       36.0341802185      -71.2410673528  TIP3      12712           0.0000000000
     60387     12904  TIP3      H1            -13.4681220243       35.2747563025      -70.7768150051  TIP3      12712           0.0000000000
     60388     12904  TIP3      H2            -12.5049185725       36.4004717410      -70.5489327497  TIP3      12712           0.0000000000
     60389     12905  TIP3      OH2            -7.2708596050       22.4292962979      -71.0051021728  TIP3      12713           0.0000000000
     60390     12905  TIP3      H1             -7.9424033505       21.7869507665      -70.7208840132  TIP3      12713           0.0000000000
     60391     12905  TIP3      H2             -6.7122108836       21.8920439488      -71.5809579183  TIP3      12713           0.0000000000
     60392     12906  TIP3      OH2            -2.1351620228       20.4498176989      -70.9724712271  TIP3      12714           0.0000000000
     60393     12906  TIP3      H1             -1.4839321596       21.0687872456      -71.3923145960  TIP3      12714           0.0000000000
     60394     12906  TIP3      H2             -2.9986276127       20.8533004580      -71.1741461816  TIP3      12714           0.0000000000
     60395     12907  TIP3      OH2            -0.6154766091       21.6745677821      -73.0633081292  TIP3      12715           0.0000000000
     60396     12907  TIP3      H1              0.1657930216       21.0802940640      -73.1075701945  TIP3      12715           0.0000000000
     60397     12907  TIP3      H2             -0.1613143335       22.3819794190      -72.5441585184  TIP3      12715           0.0000000000
     60398     12908  TIP3      OH2           -14.8498009906       21.0524908942      -73.1806997505  TIP3      12716           0.0000000000
     60399     12908  TIP3      H1            -15.7063584908       20.7637308241      -73.4619991237  TIP3      12716           0.0000000000
     60400     12908  TIP3      H2            -14.3742806120       20.1903263206      -73.1416097645  TIP3      12716           0.0000000000
     60401     12909  TIP3      OH2           -16.0888807254       20.8442708431      -77.3101554013  TIP3      12717           0.0000000000
     60402     12909  TIP3      H1            -15.6339605839       21.4035009405      -77.9874398473  TIP3      12717           0.0000000000
     60403     12909  TIP3      H2            -16.7864140398       21.4576736815      -77.0378420569  TIP3      12717           0.0000000000
     60404     12910  TIP3      OH2           -10.4280689398       20.9765077350      -73.3643221238  TIP3      12718           0.0000000000
     60405     12910  TIP3      H1             -9.5280978770       21.3355732780      -73.4412447209  TIP3      12718           0.0000000000
     60406     12910  TIP3      H2            -10.4599885884       20.7572390933      -72.4347981042  TIP3      12718           0.0000000000
     60407     12911  TIP3      OH2            -4.7567264139       21.0014671066      -71.7377980939  TIP3      12719           0.0000000000
     60408     12911  TIP3      H1             -4.7367112717       21.1092010619      -72.6957110435  TIP3      12719           0.0000000000
     60409     12911  TIP3      H2             -5.1063671340       20.0851019672      -71.6214549637  TIP3      12719           0.0000000000
     60410     12912  TIP3      OH2            -3.4486413466       21.0148336048      -76.0898409065  TIP3      12720           0.0000000000
     60411     12912  TIP3      H1             -4.1864078762       21.6256924108      -76.2366700672  TIP3      12720           0.0000000000
     60412     12912  TIP3      H2             -3.8865412137       20.1671912763      -75.8619796568  TIP3      12720           0.0000000000
     60413     12913  TIP3      OH2           -14.3025872920       22.6129522910      -78.8534454052  TIP3      12721           0.0000000000
     60414     12913  TIP3      H1            -13.7440081660       22.1470700798      -79.4835771738  TIP3      12721           0.0000000000
     60415     12913  TIP3      H2            -13.6414291316       23.0971121636      -78.3198255602  TIP3      12721           0.0000000000
     60416     12914  TIP3      OH2            -9.2781099023       22.9793468937      -76.5138551634  TIP3      12722           0.0000000000
     60417     12914  TIP3      H1             -9.0092136763       22.4180195788      -75.7672439324  TIP3      12722           0.0000000000
     60418     12914  TIP3      H2             -9.2050476430       23.8513611928      -76.0571548465  TIP3      12722           0.0000000000
     60419     12915  TIP3      OH2           -15.0159610291       21.6206312007      -63.6755228946  TIP3      12723           0.0000000000
     60420     12915  TIP3      H1            -15.4008431408       20.7994230247      -63.3091721252  TIP3      12723           0.0000000000
     60421     12915  TIP3      H2            -14.0978045043       21.5342859357      -63.3215270401  TIP3      12723           0.0000000000
     60422     12916  TIP3      OH2           -13.0112822838       20.9637168363      -62.0626835693  TIP3      12724           0.0000000000
     60423     12916  TIP3      H1            -12.1149433138       20.6360968777      -62.2742664581  TIP3      12724           0.0000000000
     60424     12916  TIP3      H2            -13.3880960042       20.1603441356      -61.6548521653  TIP3      12724           0.0000000000
     60425     12917  TIP3      OH2            -4.6078645921       20.2735093137      -61.9053600375  TIP3      12725           0.0000000000
     60426     12917  TIP3      H1             -4.5144621183       19.8005041373      -61.0559927689  TIP3      12725           0.0000000000
     60427     12917  TIP3      H2             -3.6916169689       20.2305083194      -62.2507238711  TIP3      12725           0.0000000000
     60428     12918  TIP3      OH2            -1.5824147827      -36.7603074904      -63.1053275590  TIP3      12726           0.0000000000
     60429     12918  TIP3      H1             -2.2003720485      -36.8880362794      -63.8288592125  TIP3      12726           0.0000000000
     60430     12918  TIP3      H2             -1.4368291264      -35.8012369460      -63.1143803826  TIP3      12726           0.0000000000
     60431     12919  TIP3      OH2            12.9805534809       30.1797158157      -73.2481795807  TIP3      12727           0.0000000000
     60432     12919  TIP3      H1             13.0710038067       31.1602207296      -73.3284878455  TIP3      12727           0.0000000000
     60433     12919  TIP3      H2             12.4074052248       29.9189020301      -73.9652818412  TIP3      12727           0.0000000000
     60434     12920  TIP3      OH2            11.8749535096       29.4517761518      -69.7980061492  TIP3      12728           0.0000000000
     60435     12920  TIP3      H1             11.8990680806       28.8094388897      -69.0712661448  TIP3      12728           0.0000000000
     60436     12920  TIP3      H2             11.5500946029       28.9117832396      -70.5356862193  TIP3      12728           0.0000000000
     60437     12921  TIP3      OH2             4.2644668661       29.1234516623      -68.2540498305  TIP3      12729           0.0000000000
     60438     12921  TIP3      H1              4.3416962505       28.4434691181      -67.5508680863  TIP3      12729           0.0000000000
     60439     12921  TIP3      H2              5.0046652668       29.7020488306      -68.0188845543  TIP3      12729           0.0000000000
     60440     12922  TIP3      OH2            15.5827215619       32.3817170784      -71.5019093011  TIP3      12730           0.0000000000
     60441     12922  TIP3      H1             15.1829026898       31.6675940805      -70.9984034858  TIP3      12730           0.0000000000
     60442     12922  TIP3      H2             15.6271173697       33.1005750721      -70.8449876697  TIP3      12730           0.0000000000
     60443     12923  TIP3      OH2             5.1984815816       33.5750349765      -69.7133517311  TIP3      12731           0.0000000000
     60444     12923  TIP3      H1              4.8641120254       32.7185574720      -70.0502488996  TIP3      12731           0.0000000000
     60445     12923  TIP3      H2              6.1503596517       33.3814675050      -69.7073476673  TIP3      12731           0.0000000000
     60446     12924  TIP3      OH2             1.8283097992       27.1276820212      -74.2540573178  TIP3      12732           0.0000000000
     60447     12924  TIP3      H1              1.3786668804       27.9870563485      -74.2952360351  TIP3      12732           0.0000000000
     60448     12924  TIP3      H2              1.2585558253       26.5782150649      -74.8086915984  TIP3      12732           0.0000000000
     60449     12925  TIP3      OH2             2.5302875447       29.3770933721      -72.1012818431  TIP3      12733           0.0000000000
     60450     12925  TIP3      H1              2.8010029566       28.5453341087      -71.6569249489  TIP3      12733           0.0000000000
     60451     12925  TIP3      H2              3.2216322863       29.4624719667      -72.7756307621  TIP3      12733           0.0000000000
     60452     12926  TIP3      OH2            10.2616774005       31.8326234432      -69.3345611510  TIP3      12734           0.0000000000
     60453     12926  TIP3      H1             10.6289786329       31.1965073094      -69.9605174714  TIP3      12734           0.0000000000
     60454     12926  TIP3      H2             11.0592066148       32.0276681853      -68.8061354730  TIP3      12734           0.0000000000
     60455     12927  TIP3      OH2            18.8642565032       23.5173568503      -68.5899418870  TIP3      12735           0.0000000000
     60456     12927  TIP3      H1             19.0533468520       24.1039543821      -67.8274663138  TIP3      12735           0.0000000000
     60457     12927  TIP3      H2             19.4370795290       23.9124060956      -69.2656002326  TIP3      12735           0.0000000000
     60458     12928  TIP3      OH2            13.4439942919       26.3142777543      -69.0089297887  TIP3      12736           0.0000000000
     60459     12928  TIP3      H1             13.6120798330       25.3552722026      -69.0041773692  TIP3      12736           0.0000000000
     60460     12928  TIP3      H2             13.3395590390       26.4545427949      -69.9701306539  TIP3      12736           0.0000000000
     60461     12929  TIP3      OH2             6.5594569504       24.4022148091      -71.7954256842  TIP3      12737           0.0000000000
     60462     12929  TIP3      H1              6.6613322278       25.2347295100      -72.2906426951  TIP3      12737           0.0000000000
     60463     12929  TIP3      H2              6.1327558549       23.8284575092      -72.4710983806  TIP3      12737           0.0000000000
     60464     12930  TIP3      OH2            14.2976780731       24.4844063563      -73.4296845372  TIP3      12738           0.0000000000
     60465     12930  TIP3      H1             14.9449311832       24.1742750223      -72.7539806904  TIP3      12738           0.0000000000
     60466     12930  TIP3      H2             14.8713627827       25.0500802747      -73.9733088480  TIP3      12738           0.0000000000
     60467     12931  TIP3      OH2             3.2178710806       26.8548432632      -71.0661045076  TIP3      12739           0.0000000000
     60468     12931  TIP3      H1              3.8295652159       26.2477495061      -70.6075712995  TIP3      12739           0.0000000000
     60469     12931  TIP3      H2              3.2675410372       26.4774712182      -71.9600481337  TIP3      12739           0.0000000000
     60470     12932  TIP3      OH2             8.3799942744       28.3792468136      -71.7687658708  TIP3      12740           0.0000000000
     60471     12932  TIP3      H1              8.9990485609       27.7753908593      -71.3199412181  TIP3      12740           0.0000000000
     60472     12932  TIP3      H2              7.8226773904       27.7165956850      -72.2329666699  TIP3      12740           0.0000000000
     60473     12933  TIP3      OH2            19.3142493224       24.9102281288      -66.3201215136  TIP3      12741           0.0000000000
     60474     12933  TIP3      H1             18.7084349678       25.6764725179      -66.4338845999  TIP3      12741           0.0000000000
     60475     12933  TIP3      H2             19.3464780269       24.8316400708      -65.3606099797  TIP3      12741           0.0000000000
     60476     12934  TIP3      OH2             5.4864905679       23.3227834689      -67.7407090339  TIP3      12742           0.0000000000
     60477     12934  TIP3      H1              5.1794071752       23.8554623864      -68.5078783207  TIP3      12742           0.0000000000
     60478     12934  TIP3      H2              4.7815152005       23.5275512582      -67.0827862638  TIP3      12742           0.0000000000
     60479     12935  TIP3      OH2            12.6340986901       32.7135270606      -74.2002228714  TIP3      12743           0.0000000000
     60480     12935  TIP3      H1             12.5635801071       32.5711411393      -75.1585830226  TIP3      12743           0.0000000000
     60481     12935  TIP3      H2             12.4848519530       33.6875130781      -74.1415515233  TIP3      12743           0.0000000000
     60482     12936  TIP3      OH2             7.9758370183       30.9234618797      -67.5036542563  TIP3      12744           0.0000000000
     60483     12936  TIP3      H1              7.2744290635       31.5718122264      -67.2857750490  TIP3      12744           0.0000000000
     60484     12936  TIP3      H2              8.6847958679       31.5184367156      -67.8005033032  TIP3      12744           0.0000000000
     60485     12937  TIP3      OH2            16.0793619675       23.8501010354      -71.4169129531  TIP3      12745           0.0000000000
     60486     12937  TIP3      H1             15.8806327581       23.0660474095      -70.8961143771  TIP3      12745           0.0000000000
     60487     12937  TIP3      H2             16.7974357166       24.2485272769      -70.8995159202  TIP3      12745           0.0000000000
     60488     12938  TIP3      OH2             5.0789835429       25.1980272889      -69.6918496266  TIP3      12746           0.0000000000
     60489     12938  TIP3      H1              5.7179239280       25.8740307497      -69.4033638389  TIP3      12746           0.0000000000
     60490     12938  TIP3      H2              5.5458831565       24.7591582575      -70.4549485284  TIP3      12746           0.0000000000
     60491     12939  TIP3      OH2             6.4426823951       32.9508791781      -66.7094335429  TIP3      12747           0.0000000000
     60492     12939  TIP3      H1              6.3758713732       33.8538606335      -67.0570118639  TIP3      12747           0.0000000000
     60493     12939  TIP3      H2              5.5558583485       32.8600250668      -66.2779651862  TIP3      12747           0.0000000000
     60494     12940  TIP3      OH2             2.4795405100       32.6159271698      -75.9032624152  TIP3      12748           0.0000000000
     60495     12940  TIP3      H1              2.2611446812       32.9331380185      -76.8024461242  TIP3      12748           0.0000000000
     60496     12940  TIP3      H2              2.5661567067       33.4450852730      -75.3910081981  TIP3      12748           0.0000000000
     60497     12941  TIP3      OH2            16.1224039461       34.2511317866      -69.0924002520  TIP3      12749           0.0000000000
     60498     12941  TIP3      H1             15.1422780513       34.3324532650      -69.0024128078  TIP3      12749           0.0000000000
     60499     12941  TIP3      H2             16.4059607495       35.1426023777      -69.3638224945  TIP3      12749           0.0000000000
     60500     12942  TIP3      OH2            16.4395715245       22.5143375092      -67.7541723210  TIP3      12750           0.0000000000
     60501     12942  TIP3      H1             15.7149905936       23.1476865191      -67.8478154079  TIP3      12750           0.0000000000
     60502     12942  TIP3      H2             17.1525130156       22.9333488809      -68.2770656039  TIP3      12750           0.0000000000
     60503     12943  TIP3      OH2             9.4046015478       20.6373948399      -70.2879217304  TIP3      12751           0.0000000000
     60504     12943  TIP3      H1              9.2619540776       19.6744016976      -70.3651439889  TIP3      12751           0.0000000000
     60505     12943  TIP3      H2              8.5256704530       20.9421930120      -69.9822460785  TIP3      12751           0.0000000000
     60506     12944  TIP3      OH2            14.4092361146       35.7175350730      -72.7606882059  TIP3      12752           0.0000000000
     60507     12944  TIP3      H1             14.9769785820       35.0904764220      -73.2412788848  TIP3      12752           0.0000000000
     60508     12944  TIP3      H2             14.8100896025       36.5534603277      -72.9768281644  TIP3      12752           0.0000000000
     60509     12945  TIP3      OH2            15.6621644709       33.8588491674      -74.0739315593  TIP3      12753           0.0000000000
     60510     12945  TIP3      H1             15.2962497193       33.1979145980      -74.6769887785  TIP3      12753           0.0000000000
     60511     12945  TIP3      H2             15.6073813100       33.4025520397      -73.2048112131  TIP3      12753           0.0000000000
     60512     12946  TIP3      OH2            17.2129001887       32.5763332347      -65.5314066632  TIP3      12754           0.0000000000
     60513     12946  TIP3      H1             17.3385854263       31.8981450827      -66.2320696773  TIP3      12754           0.0000000000
     60514     12946  TIP3      H2             17.4355413270       33.3982525340      -66.0023559178  TIP3      12754           0.0000000000
     60515     12947  TIP3      OH2            11.6914061782       29.4999338021      -75.7913747409  TIP3      12755           0.0000000000
     60516     12947  TIP3      H1             11.0384936487       29.9784933651      -76.3450787042  TIP3      12755           0.0000000000
     60517     12947  TIP3      H2             12.4360659916       29.4655209423      -76.4381262691  TIP3      12755           0.0000000000
     60518     12948  TIP3      OH2            11.7066803807       27.9390951208      -78.6465565608  TIP3      12756           0.0000000000
     60519     12948  TIP3      H1             12.5092519844       27.9782347296      -78.1107396849  TIP3      12756           0.0000000000
     60520     12948  TIP3      H2             12.0280406912       27.3476274256      -79.3318949624  TIP3      12756           0.0000000000
     60521     12949  TIP3      OH2            19.0920734713       28.8494588472      -67.5010420380  TIP3      12757           0.0000000000
     60522     12949  TIP3      H1             18.4345739608       29.5725178346      -67.4614339333  TIP3      12757           0.0000000000
     60523     12949  TIP3      H2             19.5874235967       29.0843769286      -68.3066799246  TIP3      12757           0.0000000000
     60524     12950  TIP3      OH2            15.1247153674       29.6349199019      -74.8381340339  TIP3      12758           0.0000000000
     60525     12950  TIP3      H1             14.4149460622       29.8738156444      -74.2070657375  TIP3      12758           0.0000000000
     60526     12950  TIP3      H2             15.6399216966       28.9735535478      -74.3366621577  TIP3      12758           0.0000000000
     60527     12951  TIP3      OH2            15.0794776522       27.8029209736      -65.7333904543  TIP3      12759           0.0000000000
     60528     12951  TIP3      H1             15.0859513438       28.6221090224      -65.2117748030  TIP3      12759           0.0000000000
     60529     12951  TIP3      H2             14.4500041583       28.0942516386      -66.4253353440  TIP3      12759           0.0000000000
     60530     12952  TIP3      OH2             6.8240034966       30.3071165773      -72.9713073554  TIP3      12760           0.0000000000
     60531     12952  TIP3      H1              6.4080248074       29.8944255016      -73.7676213808  TIP3      12760           0.0000000000
     60532     12952  TIP3      H2              7.3447481953       29.5703523541      -72.5861262677  TIP3      12760           0.0000000000
     60533     12953  TIP3      OH2             8.0926272981       33.7032185440      -70.2843167723  TIP3      12761           0.0000000000
     60534     12953  TIP3      H1              8.0768852637       33.1477960476      -71.0638794868  TIP3      12761           0.0000000000
     60535     12953  TIP3      H2              8.8516838067       33.3366745630      -69.7932957872  TIP3      12761           0.0000000000
     60536     12954  TIP3      OH2             7.0822085174       29.0415817295      -69.2723515358  TIP3      12762           0.0000000000
     60537     12954  TIP3      H1              7.6335916906       29.1371433181      -70.0674559894  TIP3      12762           0.0000000000
     60538     12954  TIP3      H2              7.4779896976       29.7064436003      -68.6656246254  TIP3      12762           0.0000000000
     60539     12955  TIP3      OH2            13.5367110130       34.6114312772      -68.5583831023  TIP3      12763           0.0000000000
     60540     12955  TIP3      H1             13.1714180027       35.2406740404      -67.9417808795  TIP3      12763           0.0000000000
     60541     12955  TIP3      H2             13.2456283848       33.7558776985      -68.1590199079  TIP3      12763           0.0000000000
     60542     12956  TIP3      OH2             8.0412119951       33.4790688940      -64.5809131818  TIP3      12764           0.0000000000
     60543     12956  TIP3      H1              7.6086017735       34.2219055341      -64.1037066934  TIP3      12764           0.0000000000
     60544     12956  TIP3      H2              7.3763096709       33.2472078833      -65.2829669280  TIP3      12764           0.0000000000
     60545     12957  TIP3      OH2            13.9969106171       28.8514681560      -77.1573023162  TIP3      12765           0.0000000000
     60546     12957  TIP3      H1             14.5925120096       29.0039382906      -76.3837110919  TIP3      12765           0.0000000000
     60547     12957  TIP3      H2             14.4462627331       29.3521360411      -77.8732016363  TIP3      12765           0.0000000000
     60548     12958  TIP3      OH2             4.9833985380       29.6334818824      -65.4316735784  TIP3      12766           0.0000000000
     60549     12958  TIP3      H1              5.0381154346       30.3036242297      -64.7248077123  TIP3      12766           0.0000000000
     60550     12958  TIP3      H2              4.0373934114       29.7086893776      -65.6390592007  TIP3      12766           0.0000000000
     60551     12959  TIP3      OH2            11.6750939208       35.5099109179      -73.6923476154  TIP3      12767           0.0000000000
     60552     12959  TIP3      H1             12.1966545447       35.8512933867      -72.9559326639  TIP3      12767           0.0000000000
     60553     12959  TIP3      H2             11.2041537974       36.2988192648      -73.9892644601  TIP3      12767           0.0000000000
     60554     12960  TIP3      OH2             6.2733746153       35.4228876206      -63.8498947672  TIP3      12768           0.0000000000
     60555     12960  TIP3      H1              6.1971204914       35.3965171214      -64.8256690843  TIP3      12768           0.0000000000
     60556     12960  TIP3      H2              5.3339517412       35.3584257163      -63.5808180428  TIP3      12768           0.0000000000
     60557     12961  TIP3      OH2            17.4981702172       20.5725648070      -77.6346771534  TIP3      12769           0.0000000000
     60558     12961  TIP3      H1             16.7270732820       20.7174844601      -77.0518235386  TIP3      12769           0.0000000000
     60559     12961  TIP3      H2             17.9542686427       21.4311023397      -77.6508386660  TIP3      12769           0.0000000000
     60560     12962  TIP3      OH2             5.7537831319       29.3265232036      -75.3419291453  TIP3      12770           0.0000000000
     60561     12962  TIP3      H1              5.4354699162       30.0983172839      -75.8589938137  TIP3      12770           0.0000000000
     60562     12962  TIP3      H2              5.0865506847       28.6607639479      -75.5521128421  TIP3      12770           0.0000000000
     60563     12963  TIP3      OH2            18.8873371254       34.8672081811      -78.8473093948  TIP3      12771           0.0000000000
     60564     12963  TIP3      H1             18.9243547760       35.8333075365      -78.8532342152  TIP3      12771           0.0000000000
     60565     12963  TIP3      H2             19.8115169326       34.6157343822      -79.0071814572  TIP3      12771           0.0000000000
     60566     12964  TIP3      OH2             1.8108455276       31.7531748480      -66.4218100636  TIP3      12772           0.0000000000
     60567     12964  TIP3      H1              1.3806801750       31.6668930290      -67.2931046519  TIP3      12772           0.0000000000
     60568     12964  TIP3      H2              1.8993746649       30.8040750504      -66.2111738516  TIP3      12772           0.0000000000
     60569     12965  TIP3      OH2             1.6145707733       34.4417743582      -69.6108366348  TIP3      12773           0.0000000000
     60570     12965  TIP3      H1              2.5698939029       34.3956788937      -69.7008660104  TIP3      12773           0.0000000000
     60571     12965  TIP3      H2              1.5195572025       35.2734392982      -69.1220477489  TIP3      12773           0.0000000000
     60572     12966  TIP3      OH2            19.7980104295       35.1803236214      -63.8888895262  TIP3      12774           0.0000000000
     60573     12966  TIP3      H1             19.6950268462       34.2242461495      -64.0139320640  TIP3      12774           0.0000000000
     60574     12966  TIP3      H2             18.9091687363       35.4440988365      -63.5694773295  TIP3      12774           0.0000000000
     60575     12967  TIP3      OH2            10.7599567618       34.7463793555      -65.1126721360  TIP3      12775           0.0000000000
     60576     12967  TIP3      H1             10.8641871774       35.5539517880      -64.5984887660  TIP3      12775           0.0000000000
     60577     12967  TIP3      H2              9.9187148536       34.3458359425      -64.8252877440  TIP3      12775           0.0000000000
     60578     12968  TIP3      OH2            16.9674737604       26.6553765129      -63.4926160786  TIP3      12776           0.0000000000
     60579     12968  TIP3      H1             16.4918920227       27.1066913650      -64.2090858675  TIP3      12776           0.0000000000
     60580     12968  TIP3      H2             16.9522923986       25.7360897799      -63.7979155391  TIP3      12776           0.0000000000
     60581     12969  TIP3      OH2             4.1136399270       33.0774772389      -65.4873341357  TIP3      12777           0.0000000000
     60582     12969  TIP3      H1              4.3211044256       32.6967092433      -64.6095328153  TIP3      12777           0.0000000000
     60583     12969  TIP3      H2              3.2442956773       32.6867791185      -65.7121645141  TIP3      12777           0.0000000000
     60584     12970  TIP3      OH2             6.7966605019       21.5358185978      -69.5265322108  TIP3      12778           0.0000000000
     60585     12970  TIP3      H1              5.8898602523       21.4052658983      -69.9002376017  TIP3      12778           0.0000000000
     60586     12970  TIP3      H2              6.6599161161       22.3719585420      -69.0532557793  TIP3      12778           0.0000000000
     60587     12971  TIP3      OH2            11.4315950313       21.2039549502      -66.1779906946  TIP3      12779           0.0000000000
     60588     12971  TIP3      H1             11.8237241704       20.7820721402      -65.3908038290  TIP3      12779           0.0000000000
     60589     12971  TIP3      H2             10.4604344043       21.0895208848      -66.0295291166  TIP3      12779           0.0000000000
     60590     12972  TIP3      OH2            14.7191402242       25.0523240739      -65.2755012635  TIP3      12780           0.0000000000
     60591     12972  TIP3      H1             14.1542293256       24.8378888020      -64.4941205098  TIP3      12780           0.0000000000
     60592     12972  TIP3      H2             14.5344676952       25.9795688554      -65.5038757858  TIP3      12780           0.0000000000
     60593     12973  TIP3      OH2            15.5718542852       29.9365236011      -79.3095274124  TIP3      12781           0.0000000000
     60594     12973  TIP3      H1             15.5542583738       29.7372686670      -80.2645634228  TIP3      12781           0.0000000000
     60595     12973  TIP3      H2             16.4546549817       30.3478709120      -79.2400011656  TIP3      12781           0.0000000000
     60596     12974  TIP3      OH2            11.0572516234       23.7910005647      -78.8358742515  TIP3      12782           0.0000000000
     60597     12974  TIP3      H1             10.7610415068       23.7319809646      -77.9078861682  TIP3      12782           0.0000000000
     60598     12974  TIP3      H2             10.8311065226       22.9019085111      -79.1309472710  TIP3      12782           0.0000000000
     60599     12975  TIP3      OH2             6.8977304282       26.5247969702      -68.2704485573  TIP3      12783           0.0000000000
     60600     12975  TIP3      H1              6.1470289410       26.5028807579      -67.6495115348  TIP3      12783           0.0000000000
     60601     12975  TIP3      H2              6.8391251374       27.4280602332      -68.6559834513  TIP3      12783           0.0000000000
     60602     12976  TIP3      OH2             6.8710321871       26.6596086752      -73.4319411243  TIP3      12784           0.0000000000
     60603     12976  TIP3      H1              5.9306648493       26.3962397308      -73.5494567646  TIP3      12784           0.0000000000
     60604     12976  TIP3      H2              7.2304596726       26.3284608447      -74.2841131096  TIP3      12784           0.0000000000
     60605     12977  TIP3      OH2            12.3897919534       27.1482766045      -74.6776683611  TIP3      12785           0.0000000000
     60606     12977  TIP3      H1             11.9804812317       27.9484587028      -75.0436059070  TIP3      12785           0.0000000000
     60607     12977  TIP3      H2             13.0816577741       26.9405081890      -75.3408833084  TIP3      12785           0.0000000000
     60608     12978  TIP3      OH2            11.4240981098       27.3432324388      -63.2135710276  TIP3      12786           0.0000000000
     60609     12978  TIP3      H1             10.8983039023       26.5662687755      -62.9027519876  TIP3      12786           0.0000000000
     60610     12978  TIP3      H2             12.2618602621       27.2211149265      -62.7371051962  TIP3      12786           0.0000000000
     60611     12979  TIP3      OH2            13.3932293035       26.6298826191      -71.8037273970  TIP3      12787           0.0000000000
     60612     12979  TIP3      H1             13.1332329440       27.1834925141      -72.5529353736  TIP3      12787           0.0000000000
     60613     12979  TIP3      H2             13.4974268236       25.7776636283      -72.2680869336  TIP3      12787           0.0000000000
     60614     12980  TIP3      OH2             4.5087917418       26.7639487229      -66.6064214381  TIP3      12788           0.0000000000
     60615     12980  TIP3      H1              4.5946966446       27.1696810198      -65.7262747786  TIP3      12788           0.0000000000
     60616     12980  TIP3      H2              4.0724484619       25.9235713089      -66.3980018495  TIP3      12788           0.0000000000
     60617     12981  TIP3      OH2             8.1049833771       24.4512983503      -79.3658608082  TIP3      12789           0.0000000000
     60618     12981  TIP3      H1              7.5438419496       23.7977325190      -78.9055583661  TIP3      12789           0.0000000000
     60619     12981  TIP3      H2              7.5434365532       24.7864875348      -80.0777834912  TIP3      12789           0.0000000000
     60620     12982  TIP3      OH2             1.3210810284       24.1589592592      -72.8003588724  TIP3      12790           0.0000000000
     60621     12982  TIP3      H1              1.6996963541       23.8156881857      -71.9618647156  TIP3      12790           0.0000000000
     60622     12982  TIP3      H2              1.6011203143       23.4630911700      -73.4160798602  TIP3      12790           0.0000000000
     60623     12983  TIP3      OH2             2.4528911422       24.6127255828      -77.2651483665  TIP3      12791           0.0000000000
     60624     12983  TIP3      H1              2.9654590321       25.2055814847      -77.8465499258  TIP3      12791           0.0000000000
     60625     12983  TIP3      H2              1.7559825108       25.2260806768      -76.9586493676  TIP3      12791           0.0000000000
     60626     12984  TIP3      OH2            12.5990982863       28.2060186663      -67.2541178798  TIP3      12792           0.0000000000
     60627     12984  TIP3      H1             12.9825085711       27.5177727784      -67.8375565899  TIP3      12792           0.0000000000
     60628     12984  TIP3      H2             12.1339586799       27.6788743687      -66.5794518537  TIP3      12792           0.0000000000
     60629     12985  TIP3      OH2             9.4069258485       24.1845972026      -72.4193455964  TIP3      12793           0.0000000000
     60630     12985  TIP3      H1              8.4721870825       24.1877854847      -72.1280352733  TIP3      12793           0.0000000000
     60631     12985  TIP3      H2              9.8862708181       24.0154094139      -71.5952251184  TIP3      12793           0.0000000000
     60632     12986  TIP3      OH2             4.2485256870       25.7671163280      -73.6020477771  TIP3      12794           0.0000000000
     60633     12986  TIP3      H1              3.3216925009       25.8690537240      -73.9075447677  TIP3      12794           0.0000000000
     60634     12986  TIP3      H2              4.4764762994       24.8792022755      -73.9266081252  TIP3      12794           0.0000000000
     60635     12987  TIP3      OH2             7.8419339701       25.8298377313      -75.8791437644  TIP3      12795           0.0000000000
     60636     12987  TIP3      H1              8.8122215946       25.8729056620      -75.7571007364  TIP3      12795           0.0000000000
     60637     12987  TIP3      H2              7.6211630022       26.4294570055      -76.6178989926  TIP3      12795           0.0000000000
     60638     12988  TIP3      OH2            13.8042134725       23.4198549897      -69.1711250719  TIP3      12796           0.0000000000
     60639     12988  TIP3      H1             13.1227140707       23.4696430449      -68.4663993783  TIP3      12796           0.0000000000
     60640     12988  TIP3      H2             13.2986293560       23.1642068246      -69.9564296869  TIP3      12796           0.0000000000
     60641     12989  TIP3      OH2             6.5623475307       26.9588749240      -78.3305169796  TIP3      12797           0.0000000000
     60642     12989  TIP3      H1              5.9922058921       26.6063268092      -79.0307502033  TIP3      12797           0.0000000000
     60643     12989  TIP3      H2              7.3798044842       27.1608952422      -78.8120415156  TIP3      12797           0.0000000000
     60644     12990  TIP3      OH2             4.6867563703       31.5679395409      -63.2825396237  TIP3      12798           0.0000000000
     60645     12990  TIP3      H1              5.4083896149       31.7752216359      -62.6655806130  TIP3      12798           0.0000000000
     60646     12990  TIP3      H2              3.9128268143       31.5998054198      -62.6770676983  TIP3      12798           0.0000000000
     60647     12991  TIP3      OH2            10.6909888964       26.9546297751      -70.5455073077  TIP3      12799           0.0000000000
     60648     12991  TIP3      H1             11.2880103807       26.3910069976      -71.0505286350  TIP3      12799           0.0000000000
     60649     12991  TIP3      H2             10.5380681540       26.4159605072      -69.7520220754  TIP3      12799           0.0000000000
     60650     12992  TIP3      OH2             5.7031684425       23.0827183600      -74.0661241245  TIP3      12800           0.0000000000
     60651     12992  TIP3      H1              5.3675634425       22.1662785763      -74.0754226886  TIP3      12800           0.0000000000
     60652     12992  TIP3      H2              6.4866399714       23.0069879256      -74.6259832215  TIP3      12800           0.0000000000
     60653     12993  TIP3      OH2             9.3255516235       25.2676307267      -68.1093928968  TIP3      12801           0.0000000000
     60654     12993  TIP3      H1              8.4999550281       25.7862005088      -68.0186976959  TIP3      12801           0.0000000000
     60655     12993  TIP3      H2              9.8797896290       25.6192804224      -67.3857755010  TIP3      12801           0.0000000000
     60656     12994  TIP3      OH2             9.9262002657       31.4174387556      -76.3600301138  TIP3      12802           0.0000000000
     60657     12994  TIP3      H1              9.1169073114       31.0427440398      -76.8032908678  TIP3      12802           0.0000000000
     60658     12994  TIP3      H2              9.5545644113       31.8063223888      -75.5584897667  TIP3      12802           0.0000000000
     60659     12995  TIP3      OH2            17.1049059443       30.6892640126      -67.6063386350  TIP3      12803           0.0000000000
     60660     12995  TIP3      H1             17.6644030401       31.1877172004      -68.2317190314  TIP3      12803           0.0000000000
     60661     12995  TIP3      H2             16.2436616712       30.7388630548      -68.0693576189  TIP3      12803           0.0000000000
     60662     12996  TIP3      OH2            13.7755533633       24.3181987485      -78.2257061629  TIP3      12804           0.0000000000
     60663     12996  TIP3      H1             12.8316421481       24.4522440784      -78.4082853450  TIP3      12804           0.0000000000
     60664     12996  TIP3      H2             14.0811029281       25.1708357521      -77.8678921891  TIP3      12804           0.0000000000
     60665     12997  TIP3      OH2            11.3787710255       31.7796537380      -65.1781884555  TIP3      12805           0.0000000000
     60666     12997  TIP3      H1             11.0542826306       31.3401556418      -64.3845372748  TIP3      12805           0.0000000000
     60667     12997  TIP3      H2             11.1578545712       32.7045071827      -65.0513939006  TIP3      12805           0.0000000000
     60668     12998  TIP3      OH2            14.4764634715       26.2367011548      -76.5647593554  TIP3      12806           0.0000000000
     60669     12998  TIP3      H1             15.3814685008       26.0825735193      -76.2233090527  TIP3      12806           0.0000000000
     60670     12998  TIP3      H2             14.5676208518       27.0424605306      -77.0937449349  TIP3      12806           0.0000000000
     60671     12999  TIP3      OH2             5.0093874642       30.8821964685      -70.6039488092  TIP3      12807           0.0000000000
     60672     12999  TIP3      H1              5.6928862688       30.8173835742      -71.2949544670  TIP3      12807           0.0000000000
     60673     12999  TIP3      H2              5.0818745133       30.0242277994      -70.1502269398  TIP3      12807           0.0000000000
     60674     13000  TIP3      OH2            12.0243583586       32.9272278357      -77.3235621999  TIP3      12808           0.0000000000
     60675     13000  TIP3      H1             11.6762035411       33.7991313223      -77.0481922091  TIP3      12808           0.0000000000
     60676     13000  TIP3      H2             11.2575612751       32.3455363382      -77.1999863066  TIP3      12808           0.0000000000
     60677     13001  TIP3      OH2             2.0195256274       29.2662830428      -65.3482695081  TIP3      12809           0.0000000000
     60678     13001  TIP3      H1              2.1797416691       28.8376730629      -64.4876371581  TIP3      12809           0.0000000000
     60679     13001  TIP3      H2              1.3953441440       28.6612142892      -65.7920485105  TIP3      12809           0.0000000000
     60680     13002  TIP3      OH2             9.0260423040       28.8497265991      -63.1721567563  TIP3      12810           0.0000000000
     60681     13002  TIP3      H1              8.7054580123       28.5361652364      -64.0327061857  TIP3      12810           0.0000000000
     60682     13002  TIP3      H2              9.9479587475       28.5237843942      -63.1745706557  TIP3      12810           0.0000000000
     60683     13003  TIP3      OH2            13.6969073432       34.2452246877      -65.2931071963  TIP3      12811           0.0000000000
     60684     13003  TIP3      H1             12.7548733394       34.3156757381      -65.4685041637  TIP3      12811           0.0000000000
     60685     13003  TIP3      H2             13.6735695161       34.4256558064      -64.3200193776  TIP3      12811           0.0000000000
     60686     13004  TIP3      OH2            19.3814125686       26.3516857085      -76.8005522096  TIP3      12812           0.0000000000
     60687     13004  TIP3      H1             18.7982313291       26.0499800212      -77.5130399820  TIP3      12812           0.0000000000
     60688     13004  TIP3      H2             19.4705321986       27.2887880107      -77.0834705376  TIP3      12812           0.0000000000
     60689     13005  TIP3      OH2            19.3878064567       32.2020999228      -64.0326167439  TIP3      12813           0.0000000000
     60690     13005  TIP3      H1             18.4939850661       32.4459856605      -64.3784308016  TIP3      12813           0.0000000000
     60691     13005  TIP3      H2             19.9174374402       32.1566549648      -64.8552562978  TIP3      12813           0.0000000000
     60692     13006  TIP3      OH2            17.7771752903       35.0683030548      -76.3117320252  TIP3      12814           0.0000000000
     60693     13006  TIP3      H1             17.2924300692       34.2701948099      -76.0926705789  TIP3      12814           0.0000000000
     60694     13006  TIP3      H2             17.9087311008       34.9559017831      -77.2871746053  TIP3      12814           0.0000000000
     60695     13007  TIP3      OH2            14.8780999325       30.0090922858      -69.3274692483  TIP3      12815           0.0000000000
     60696     13007  TIP3      H1             13.9381761049       29.8013368486      -69.4389064636  TIP3      12815           0.0000000000
     60697     13007  TIP3      H2             15.3097456327       29.2494661063      -69.7615401948  TIP3      12815           0.0000000000
     60698     13008  TIP3      OH2             7.4513470233       34.2909873311      -73.3541010606  TIP3      12816           0.0000000000
     60699     13008  TIP3      H1              7.8869275301       35.1542855342      -73.3795792177  TIP3      12816           0.0000000000
     60700     13008  TIP3      H2              6.5251767514       34.5385991467      -73.4955840080  TIP3      12816           0.0000000000
     60701     13009  TIP3      OH2             3.1401770619       29.2103226618      -78.7075667845  TIP3      12817           0.0000000000
     60702     13009  TIP3      H1              3.7503907378       29.8157070128      -78.2469509863  TIP3      12817           0.0000000000
     60703     13009  TIP3      H2              2.2638476699       29.4681194817      -78.3613163557  TIP3      12817           0.0000000000
     60704     13010  TIP3      OH2             8.8159598781       31.9946768624      -73.6848635571  TIP3      12818           0.0000000000
     60705     13010  TIP3      H1              8.4959518957       32.9302381059      -73.6161668606  TIP3      12818           0.0000000000
     60706     13010  TIP3      H2              8.0478120099       31.5520644758      -73.2472012757  TIP3      12818           0.0000000000
     60707     13011  TIP3      OH2             9.5727809583       35.8658550313      -67.6140126817  TIP3      12819           0.0000000000
     60708     13011  TIP3      H1              9.7142845944       36.8183396253      -67.6847796458  TIP3      12819           0.0000000000
     60709     13011  TIP3      H2              9.8794343783       35.7155302508      -66.7078514439  TIP3      12819           0.0000000000
     60710     13012  TIP3      OH2            12.7892277761       32.1889485545      -67.6756908655  TIP3      12820           0.0000000000
     60711     13012  TIP3      H1             12.4480212375       31.9703181539      -66.7860295816  TIP3      12820           0.0000000000
     60712     13012  TIP3      H2             13.4228083871       31.4770778891      -67.8497845920  TIP3      12820           0.0000000000
     60713     13013  TIP3      OH2            15.1111469815       33.2091365392      -78.5392416299  TIP3      12821           0.0000000000
     60714     13013  TIP3      H1             15.3921309442       32.7546102306      -77.7279534994  TIP3      12821           0.0000000000
     60715     13013  TIP3      H2             14.1514095845       33.0900676505      -78.4851004271  TIP3      12821           0.0000000000
     60716     13014  TIP3      OH2             3.6590078429       24.0269041781      -65.7932210007  TIP3      12822           0.0000000000
     60717     13014  TIP3      H1              2.7479658872       24.3658332174      -65.8387940182  TIP3      12822           0.0000000000
     60718     13014  TIP3      H2              3.5519095571       23.1778811390      -65.3351616043  TIP3      12822           0.0000000000
     60719     13015  TIP3      OH2            15.9113925725       31.8432835697      -76.3335884824  TIP3      12823           0.0000000000
     60720     13015  TIP3      H1             15.6787302362       31.0608564311      -75.8003362633  TIP3      12823           0.0000000000
     60721     13015  TIP3      H2             16.8549986900       31.9412570676      -76.1324744722  TIP3      12823           0.0000000000
     60722     13016  TIP3      OH2             3.2801742673       35.7711498266      -67.3836987563  TIP3      12824           0.0000000000
     60723     13016  TIP3      H1              3.5687368800       34.8570998533      -67.3348492411  TIP3      12824           0.0000000000
     60724     13016  TIP3      H2              3.4776803860       36.1155886769      -66.5029665168  TIP3      12824           0.0000000000
     60725     13017  TIP3      OH2             8.0328511188       33.8567818839      -77.7002125097  TIP3      12825           0.0000000000
     60726     13017  TIP3      H1              8.2462747662       33.3279692722      -76.9286128322  TIP3      12825           0.0000000000
     60727     13017  TIP3      H2              8.1194578079       34.7675523818      -77.3621673878  TIP3      12825           0.0000000000
     60728     13018  TIP3      OH2             4.5284170829       31.1266010233      -77.1362075276  TIP3      12826           0.0000000000
     60729     13018  TIP3      H1              3.8439761111       31.5423434447      -76.5726934125  TIP3      12826           0.0000000000
     60730     13018  TIP3      H2              5.0659874906       31.8935689994      -77.4146752099  TIP3      12826           0.0000000000
     60731     13019  TIP3      OH2            12.3928655272       23.7959814618      -66.8328916466  TIP3      12827           0.0000000000
     60732     13019  TIP3      H1             13.1111290418       23.8558187511      -66.1936405526  TIP3      12827           0.0000000000
     60733     13019  TIP3      H2             12.0122080764       22.9187447561      -66.6319362077  TIP3      12827           0.0000000000
     60734     13020  TIP3      OH2            13.1213479454       23.3949295484      -75.7454027642  TIP3      12828           0.0000000000
     60735     13020  TIP3      H1             13.3947173991       23.8400720377      -76.5706353949  TIP3      12828           0.0000000000
     60736     13020  TIP3      H2             13.7242416889       23.7933905068      -75.1054029718  TIP3      12828           0.0000000000
     60737     13021  TIP3      OH2            10.8371701005       35.5122737955      -76.9068157625  TIP3      12829           0.0000000000
     60738     13021  TIP3      H1             10.0083244382       36.0149059692      -76.8626540281  TIP3      12829           0.0000000000
     60739     13021  TIP3      H2             11.3757630903       36.0293455729      -77.5410663060  TIP3      12829           0.0000000000
     60740     13022  TIP3      OH2            10.3408710461       25.1493536920      -74.9399600633  TIP3      12830           0.0000000000
     60741     13022  TIP3      H1             11.1572488624       25.6783317887      -74.9093443416  TIP3      12830           0.0000000000
     60742     13022  TIP3      H2             10.1058655896       24.9755525090      -74.0094121367  TIP3      12830           0.0000000000
     60743     13023  TIP3      OH2            10.9221828962       26.1401303999      -65.7390258494  TIP3      12831           0.0000000000
     60744     13023  TIP3      H1             10.9979443345       26.7011623961      -64.9411617501  TIP3      12831           0.0000000000
     60745     13023  TIP3      H2             11.5861083772       25.4465177381      -65.6433184445  TIP3      12831           0.0000000000
     60746     13024  TIP3      OH2            11.2116841562       22.1762405153      -74.0651232277  TIP3      12832           0.0000000000
     60747     13024  TIP3      H1             10.8960886741       22.8160860238      -73.4042343943  TIP3      12832           0.0000000000
     60748     13024  TIP3      H2             11.9137837114       22.7213646468      -74.5002076136  TIP3      12832           0.0000000000
     60749     13025  TIP3      OH2             8.2341145632      -36.4512523241      -76.9462401190  TIP3      12833           0.0000000000
     60750     13025  TIP3      H1              8.3463957563      -35.6053711500      -77.3880864533  TIP3      12833           0.0000000000
     60751     13025  TIP3      H2              7.9914404407      -36.1479538010      -76.0548188827  TIP3      12833           0.0000000000
     60752     13026  TIP3      OH2             6.8713436902       23.2727626089      -77.2960347867  TIP3      12834           0.0000000000
     60753     13026  TIP3      H1              6.8088661241       24.1848061143      -76.9486372267  TIP3      12834           0.0000000000
     60754     13026  TIP3      H2              7.7816996819       23.0461205113      -77.0199914290  TIP3      12834           0.0000000000
     60755     13027  TIP3      OH2            17.1009921170       24.0099213566      -64.8886619230  TIP3      12835           0.0000000000
     60756     13027  TIP3      H1             16.1741302440       24.3263369115      -65.0213497287  TIP3      12835           0.0000000000
     60757     13027  TIP3      H2             17.4018152527       23.9969830084      -65.8143237422  TIP3      12835           0.0000000000
     60758     13028  TIP3      OH2            15.7189497167       27.7967550788      -70.8921642365  TIP3      12836           0.0000000000
     60759     13028  TIP3      H1             14.8932521739       27.3476031384      -71.1525038653  TIP3      12836           0.0000000000
     60760     13028  TIP3      H2             16.1981114685       27.1113416028      -70.3741057447  TIP3      12836           0.0000000000
     60761     13029  TIP3      OH2             5.1328045600       33.6966629076      -78.2695962782  TIP3      12837           0.0000000000
     60762     13029  TIP3      H1              5.7694598303       34.3714543256      -78.0285115011  TIP3      12837           0.0000000000
     60763     13029  TIP3      H2              5.6304294117       33.2866694461      -79.0001008922  TIP3      12837           0.0000000000
     60764     13030  TIP3      OH2             3.5154439088       26.4127698817      -79.0995168724  TIP3      12838           0.0000000000
     60765     13030  TIP3      H1              3.4791670681       27.3755653966      -78.9790305131  TIP3      12838           0.0000000000
     60766     13030  TIP3      H2              2.6399917217       26.2051865812      -79.4424705767  TIP3      12838           0.0000000000
     60767     13031  TIP3      OH2             4.3455229450       21.1251684991      -70.4183290290  TIP3      12839           0.0000000000
     60768     13031  TIP3      H1              4.0436145878       21.2313758922      -71.3496933561  TIP3      12839           0.0000000000
     60769     13031  TIP3      H2              3.8147500486       20.3454077397      -70.1638657975  TIP3      12839           0.0000000000
     60770     13032  TIP3      OH2             3.2491070526       35.1061441937      -74.3052630597  TIP3      12840           0.0000000000
     60771     13032  TIP3      H1              2.3754499170       35.5240805547      -74.3011010183  TIP3      12840           0.0000000000
     60772     13032  TIP3      H2              3.7276666319       35.5916869695      -74.9829883541  TIP3      12840           0.0000000000
     60773     13033  TIP3      OH2             7.3989739303       36.3480782549      -61.1528556005  TIP3      12841           0.0000000000
     60774     13033  TIP3      H1              8.2539987148       35.9482788351      -60.9840207228  TIP3      12841           0.0000000000
     60775     13033  TIP3      H2              7.3211611525       36.2105454606      -62.1138577894  TIP3      12841           0.0000000000
     60776     13034  TIP3      OH2            11.6402653217       36.4604936515      -79.3167487965  TIP3      12842           0.0000000000
     60777     13034  TIP3      H1             10.8193520508       35.9393360509      -79.3792757978  TIP3      12842           0.0000000000
     60778     13034  TIP3      H2             12.1417527542       35.9710934638      -79.9881739894  TIP3      12842           0.0000000000
     60779     13035  TIP3      OH2            13.7063310852       34.6750911623      -62.7706799644  TIP3      12843           0.0000000000
     60780     13035  TIP3      H1             13.2270526584       34.0020636635      -62.2570407243  TIP3      12843           0.0000000000
     60781     13035  TIP3      H2             14.3137734394       35.0456014892      -62.1145764031  TIP3      12843           0.0000000000
     60782     13036  TIP3      OH2            15.7433695127       35.8888300690      -79.7225224837  TIP3      12844           0.0000000000
     60783     13036  TIP3      H1             16.0383714999       35.1144054462      -79.2271694048  TIP3      12844           0.0000000000
     60784     13036  TIP3      H2             16.5278282945       36.0363491861      -80.2809464797  TIP3      12844           0.0000000000
     60785     13037  TIP3      OH2             2.3515226417       31.5071541649      -61.9918055046  TIP3      12845           0.0000000000
     60786     13037  TIP3      H1              2.4951804257       30.5956022147      -62.2991228883  TIP3      12845           0.0000000000
     60787     13037  TIP3      H2              1.6117699733       31.8017222450      -62.5555231189  TIP3      12845           0.0000000000
     60788     13038  TIP3      OH2             6.7941508970       31.9122113934      -79.8219339965  TIP3      12846           0.0000000000
     60789     13038  TIP3      H1              6.8570015574       31.0815067986      -79.3497074511  TIP3      12846           0.0000000000
     60790     13038  TIP3      H2              7.3510609190       31.6883304000      -80.5938987092  TIP3      12846           0.0000000000
     60791     13039  TIP3      OH2             9.0748949084       31.5108662735      -62.6096282969  TIP3      12847           0.0000000000
     60792     13039  TIP3      H1              8.7150296159       31.8133418158      -63.4653964112  TIP3      12847           0.0000000000
     60793     13039  TIP3      H2              9.1322556991       30.5275490794      -62.7071046482  TIP3      12847           0.0000000000
     60794     13040  TIP3      OH2            14.7584180420       31.3754802942      -65.2073465596  TIP3      12848           0.0000000000
     60795     13040  TIP3      H1             15.5439513054       31.9573023470      -65.2790415018  TIP3      12848           0.0000000000
     60796     13040  TIP3      H2             14.0550965171       32.0378095856      -65.1649827514  TIP3      12848           0.0000000000
     60797     13041  TIP3      OH2             3.2757671131       28.7753805122      -62.6044454604  TIP3      12849           0.0000000000
     60798     13041  TIP3      H1              3.6911648996       27.9109893682      -62.7089757165  TIP3      12849           0.0000000000
     60799     13041  TIP3      H2              3.0418303202       28.7731230357      -61.6651811259  TIP3      12849           0.0000000000
     60800     13042  TIP3      OH2             7.9474430606       29.9181550631      -77.5303944009  TIP3      12850           0.0000000000
     60801     13042  TIP3      H1              7.3810541085       29.3717695630      -76.9502810657  TIP3      12850           0.0000000000
     60802     13042  TIP3      H2              8.2141453724       29.2490296760      -78.2090476819  TIP3      12850           0.0000000000
     60803     13043  TIP3      OH2             7.1604112067       27.6955128258      -65.2501542672  TIP3      12851           0.0000000000
     60804     13043  TIP3      H1              6.5660427361       28.4192474183      -64.9988213502  TIP3      12851           0.0000000000
     60805     13043  TIP3      H2              7.5578446896       28.0612340509      -66.0585721319  TIP3      12851           0.0000000000
     60806     13044  TIP3      OH2             9.0008330950       28.0932318340      -79.3225762080  TIP3      12852           0.0000000000
     60807     13044  TIP3      H1              8.8633127620       27.9649981846      -80.2730013013  TIP3      12852           0.0000000000
     60808     13044  TIP3      H2              9.9817458310       28.1560957073      -79.2610762262  TIP3      12852           0.0000000000
     60809     13045  TIP3      OH2            12.2329111376       30.2624804964      -61.9144214230  TIP3      12853           0.0000000000
     60810     13045  TIP3      H1             13.1910847755       30.2513395595      -62.0378509769  TIP3      12853           0.0000000000
     60811     13045  TIP3      H2             12.0626825346       29.4950971110      -61.3432794699  TIP3      12853           0.0000000000
     60812     13046  TIP3      OH2            18.1112394134       30.6232486420       80.1758242128  TIP3      12854           0.0000000000
     60813     13046  TIP3      H1             18.0561596743       30.0912027631       79.3631646425  TIP3      12854           0.0000000000
     60814     13046  TIP3      H2             18.3601864962       31.5085660678       79.8793257245  TIP3      12854           0.0000000000
     60815     13047  TIP3      OH2             7.5592642787       25.0715544001      -64.1936603405  TIP3      12855           0.0000000000
     60816     13047  TIP3      H1              7.6827324830       24.3636082365      -64.8526086322  TIP3      12855           0.0000000000
     60817     13047  TIP3      H2              7.5216330504       25.8831376404      -64.7424323925  TIP3      12855           0.0000000000
     60818     13048  TIP3      OH2             7.9737444455       23.4548537334      -66.6383632741  TIP3      12856           0.0000000000
     60819     13048  TIP3      H1              8.4800090667       23.9199961783      -67.3459592345  TIP3      12856           0.0000000000
     60820     13048  TIP3      H2              7.0786426187       23.3785034821      -67.0441618025  TIP3      12856           0.0000000000
     60821     13049  TIP3      OH2             9.5098308776       28.9433949770      -66.3956338634  TIP3      12857           0.0000000000
     60822     13049  TIP3      H1             10.2636903574       28.7777350326      -66.9698029656  TIP3      12857           0.0000000000
     60823     13049  TIP3      H2              9.1431288252       29.7762488189      -66.7331168299  TIP3      12857           0.0000000000
     60824     13050  TIP3      OH2            13.9031105097       26.6953351438      -61.4385153362  TIP3      12858           0.0000000000
     60825     13050  TIP3      H1             14.1399151088       25.7604015872      -61.5265356389  TIP3      12858           0.0000000000
     60826     13050  TIP3      H2             14.7683045183       27.1388623058      -61.4024215532  TIP3      12858           0.0000000000
     60827     13051  TIP3      OH2            15.2460845786       29.4918906112      -63.2689202704  TIP3      12859           0.0000000000
     60828     13051  TIP3      H1             14.9922681867       30.2132121625      -63.8848639354  TIP3      12859           0.0000000000
     60829     13051  TIP3      H2             16.2019056428       29.4730238833      -63.4545246999  TIP3      12859           0.0000000000
     60830     13052  TIP3      OH2             6.0277430624       26.3238388670      -62.2730389514  TIP3      12860           0.0000000000
     60831     13052  TIP3      H1              5.2584007161       25.7460426481      -62.4414233597  TIP3      12860           0.0000000000
     60832     13052  TIP3      H2              6.6829035283       25.9529991966      -62.8948580292  TIP3      12860           0.0000000000
     60833     13053  TIP3      OH2             8.7553001636       20.8945866934      -66.2508202941  TIP3      12861           0.0000000000
     60834     13053  TIP3      H1              8.5733630330       21.8575961758      -66.3532847809  TIP3      12861           0.0000000000
     60835     13053  TIP3      H2              8.0089385168       20.5241015275      -66.7536259131  TIP3      12861           0.0000000000
     60836     13054  TIP3      OH2            10.0253294186       25.2218070385      -62.6220181639  TIP3      12862           0.0000000000
     60837     13054  TIP3      H1              9.7128588756       24.9869300090      -61.7263344336  TIP3      12862           0.0000000000
     60838     13054  TIP3      H2              9.2448479668       25.0164176380      -63.1639897126  TIP3      12862           0.0000000000
     60839     13055  TIP3      OH2            12.7511201003       24.3655019643      -63.5313447402  TIP3      12863           0.0000000000
     60840     13055  TIP3      H1             11.7860251381       24.4177522417      -63.4236218065  TIP3      12863           0.0000000000
     60841     13055  TIP3      H2             13.0150215542       23.7237028085      -62.8442098433  TIP3      12863           0.0000000000
     60842     13056  TIP3      OH2            14.3333722011       22.9845411384      -61.6326713783  TIP3      12864           0.0000000000
     60843     13056  TIP3      H1             14.2850516814       22.0063403173      -61.6022663810  TIP3      12864           0.0000000000
     60844     13056  TIP3      H2             14.0836048391       23.2756245438      -60.7336783819  TIP3      12864           0.0000000000
     60845     13057  TIP3      OH2             4.0997319145       24.2541176072      -62.5163266000  TIP3      12865           0.0000000000
     60846     13057  TIP3      H1              4.3635067854       23.5279503589      -63.1112071329  TIP3      12865           0.0000000000
     60847     13057  TIP3      H2              4.0368738662       23.8065189615      -61.6516496911  TIP3      12865           0.0000000000
     60848     13058  TIP3      OH2             8.9738047999       20.2849326983      -63.5504322579  TIP3      12866           0.0000000000
     60849     13058  TIP3      H1              9.6533336830       19.5815475612      -63.5670597028  TIP3      12866           0.0000000000
     60850     13058  TIP3      H2              8.8589289162       20.4275411694      -64.5106200018  TIP3      12866           0.0000000000
     60851     13059  TIP3      OH2             9.3357705484       21.8973795842      -61.4336349831  TIP3      12867           0.0000000000
     60852     13059  TIP3      H1              9.1624187850       21.3917980642      -62.2664385662  TIP3      12867           0.0000000000
     60853     13059  TIP3      H2              8.7365571228       22.6620793635      -61.5343596884  TIP3      12867           0.0000000000
     60854     13060  TIP3      OH2             2.4112431158       33.3748872197      -78.7854890693  TIP3      12868           0.0000000000
     60855     13060  TIP3      H1              3.3562869497       33.5310171739      -78.5730037349  TIP3      12868           0.0000000000
     60856     13060  TIP3      H2              2.4619814349       32.8123521261      -79.5610410129  TIP3      12868           0.0000000000
     60857     13061  TIP3      OH2            17.5125199958       33.0222204407      -61.4152195520  TIP3      12869           0.0000000000
     60858     13061  TIP3      H1             16.6173273190       32.9757144733      -61.0248157947  TIP3      12869           0.0000000000
     60859     13061  TIP3      H2             17.9065664699       33.8090653660      -60.9704270154  TIP3      12869           0.0000000000
     60860     13062  TIP3      OH2            18.8427467962       31.3440536708      -75.9731314436  TIP3      12870           0.0000000000
     60861     13062  TIP3      H1             19.6964143487       31.7505202278      -75.7557909089  TIP3      12870           0.0000000000
     60862     13062  TIP3      H2             18.8103226968       30.6365516915      -75.2938595538  TIP3      12870           0.0000000000
     60863     13063  TIP3      OH2            19.1880651764       29.4267430575      -74.0904475638  TIP3      12871           0.0000000000
     60864     13063  TIP3      H1             18.4395410281       28.9152974814      -73.7068485130  TIP3      12871           0.0000000000
     60865     13063  TIP3      H2             19.7851459041       29.5549761729      -73.3247500287  TIP3      12871           0.0000000000
     60866     13064  TIP3      OH2            18.9571107733       32.1118756749      -69.0721204264  TIP3      12872           0.0000000000
     60867     13064  TIP3      H1             19.7590965274       31.7400397065      -69.4761888363  TIP3      12872           0.0000000000
     60868     13064  TIP3      H2             19.0954097200       33.0666269705      -69.2495465374  TIP3      12872           0.0000000000
     60869     13065  TIP3      OH2            17.4441210355       34.9990864524      -66.7781749538  TIP3      12873           0.0000000000
     60870     13065  TIP3      H1             16.7478857810       35.3797669980      -66.2441374252  TIP3      12873           0.0000000000
     60871     13065  TIP3      H2             16.9451816269       34.6421918674      -67.5505413903  TIP3      12873           0.0000000000
     60872     13066  TIP3      OH2            19.5018611949       29.2662722829      -77.6868392748  TIP3      12874           0.0000000000
     60873     13066  TIP3      H1             18.8984908966       29.6175481743      -78.3675319213  TIP3      12874           0.0000000000
     60874     13066  TIP3      H2             19.4147028657       29.9664353819      -77.0141552774  TIP3      12874           0.0000000000
     60875     13067  TIP3      OH2            17.4274492903       26.4931996302      -79.0591992466  TIP3      12875           0.0000000000
     60876     13067  TIP3      H1             17.8780756565       27.1001128604      -79.6713694794  TIP3      12875           0.0000000000
     60877     13067  TIP3      H2             17.6601505511       25.6696884892      -79.5031009146  TIP3      12875           0.0000000000
     60878     13068  TIP3      OH2            17.0105133015       27.8981543288      -73.5159100424  TIP3      12876           0.0000000000
     60879     13068  TIP3      H1             16.8638683788       26.9406481274      -73.5559326791  TIP3      12876           0.0000000000
     60880     13068  TIP3      H2             16.6852969849       28.1106012177      -72.6224136210  TIP3      12876           0.0000000000
     60881     13069  TIP3      OH2             2.0195361668       29.9859474032      -69.4535868594  TIP3      12877           0.0000000000
     60882     13069  TIP3      H1              2.1950748964       29.8998110457      -70.4175608445  TIP3      12877           0.0000000000
     60883     13069  TIP3      H2              2.9130409439       29.8063092235      -69.1024509429  TIP3      12877           0.0000000000
     60884     13070  TIP3      OH2            17.8723226306       29.8652625980      -63.8250435665  TIP3      12878           0.0000000000
     60885     13070  TIP3      H1             18.4829649034       29.1089086457      -63.6917281497  TIP3      12878           0.0000000000
     60886     13070  TIP3      H2             18.4780288128       30.6372931016      -63.8199128603  TIP3      12878           0.0000000000
     60887     13071  TIP3      OH2            19.3753654907       27.7442124692      -63.1742524898  TIP3      12879           0.0000000000
     60888     13071  TIP3      H1             18.4922113126       27.3457206372      -63.3291692894  TIP3      12879           0.0000000000
     60889     13071  TIP3      H2             19.9452292195       26.9610457635      -63.2514076707  TIP3      12879           0.0000000000
     60890     13072  TIP3      OH2            16.6694718376       25.4875868572      -75.0547737383  TIP3      12880           0.0000000000
     60891     13072  TIP3      H1             16.9782015447       24.5545583936      -74.9469086583  TIP3      12880           0.0000000000
     60892     13072  TIP3      H2             17.4647711587       25.8824312373      -75.4320755378  TIP3      12880           0.0000000000
     60893     13073  TIP3      OH2            17.3199529832       26.0270545124      -69.6123389039  TIP3      12881           0.0000000000
     60894     13073  TIP3      H1             18.2806471511       26.2548200289      -69.6256623830  TIP3      12881           0.0000000000
     60895     13073  TIP3      H2             17.1320065524       26.1643492546      -68.6724755232  TIP3      12881           0.0000000000
     60896     13074  TIP3      OH2            17.3884705958       26.7451063975      -66.8236618229  TIP3      12882           0.0000000000
     60897     13074  TIP3      H1             16.5026949876       27.0345823593      -66.5162794215  TIP3      12882           0.0000000000
     60898     13074  TIP3      H2             17.8199276369       27.6048348518      -67.0541329545  TIP3      12882           0.0000000000
     60899     13075  TIP3      OH2             1.6363167169       25.2811225603      -63.2444316640  TIP3      12883           0.0000000000
     60900     13075  TIP3      H1              2.5865126766       25.0683716237      -63.1321717207  TIP3      12883           0.0000000000
     60901     13075  TIP3      H2              1.1945961062       24.4283133450      -63.0599739553  TIP3      12883           0.0000000000
     60902     13076  TIP3      OH2            19.6602521184       20.8100053699      -61.4900038413  TIP3      12884           0.0000000000
     60903     13076  TIP3      H1             20.0093096368       20.1492562199      -62.1145060928  TIP3      12884           0.0000000000
     60904     13076  TIP3      H2             19.7591440488       21.6232978708      -62.0261678575  TIP3      12884           0.0000000000
     60905     13077  TIP3      OH2            17.2922782376       22.7944424006      -75.0100089128  TIP3      12885           0.0000000000
     60906     13077  TIP3      H1             17.5958237740       22.3241353013      -74.1993615093  TIP3      12885           0.0000000000
     60907     13077  TIP3      H2             16.7567234466       22.1175359937      -75.4648209012  TIP3      12885           0.0000000000
     60908     13078  TIP3      OH2             3.1565226814       23.6853031827      -70.6033526235  TIP3      12886           0.0000000000
     60909     13078  TIP3      H1              3.2379699340       22.7955572003      -70.1932665195  TIP3      12886           0.0000000000
     60910     13078  TIP3      H2              3.4459583000       24.3032175069      -69.9354824208  TIP3      12886           0.0000000000
     60911     13079  TIP3      OH2             1.1146368513       26.5964549987      -69.4175695608  TIP3      12887           0.0000000000
     60912     13079  TIP3      H1              1.6669871228       26.3007075368      -70.1710242084  TIP3      12887           0.0000000000
     60913     13079  TIP3      H2              1.6063043226       27.3834387689      -69.1568752140  TIP3      12887           0.0000000000
     60914     13080  TIP3      OH2            19.1795776330       22.9061911955      -63.1369241346  TIP3      12888           0.0000000000
     60915     13080  TIP3      H1             18.2434457765       23.1793449249      -63.1974478406  TIP3      12888           0.0000000000
     60916     13080  TIP3      H2             19.2132791852       22.3568048541      -63.9346826828  TIP3      12888           0.0000000000
     60917     13081  TIP3      OH2            19.1819796905       22.8589686965      -78.4643460007  TIP3      12889           0.0000000000
     60918     13081  TIP3      H1             19.5630211520       22.1044143075      -78.9301002599  TIP3      12889           0.0000000000
     60919     13081  TIP3      H2             19.9094375149       23.4866182780      -78.4721694117  TIP3      12889           0.0000000000
     60920     13082  TIP3      OH2             1.4634842885       22.8014720336      -75.3853631292  TIP3      12890           0.0000000000
     60921     13082  TIP3      H1              0.5348179097       23.0413597627      -75.4807698299  TIP3      12890           0.0000000000
     60922     13082  TIP3      H2              1.8998304229       23.3435728686      -76.0581698489  TIP3      12890           0.0000000000
     60923     13083  TIP3      OH2             1.4294483919       21.5018998453      -67.0414913158  TIP3      12891           0.0000000000
     60924     13083  TIP3      H1              0.7430997640       21.3040372947      -66.3871691377  TIP3      12891           0.0000000000
     60925     13083  TIP3      H2              0.9772823025       22.1431001599      -67.6313748932  TIP3      12891           0.0000000000
     60926     13084  TIP3      OH2             3.6670281024       34.7562662783      -62.8680829393  TIP3      12892           0.0000000000
     60927     13084  TIP3      H1              2.8159761098       34.8853740036      -63.3254171849  TIP3      12892           0.0000000000
     60928     13084  TIP3      H2              3.3911890696       34.5812518609      -61.9623786980  TIP3      12892           0.0000000000
     60929     13085  TIP3      OH2             6.6133097536       35.6836233906      -66.5351401899  TIP3      12893           0.0000000000
     60930     13085  TIP3      H1              6.1695197253       36.4617218439      -66.9051626206  TIP3      12893           0.0000000000
     60931     13085  TIP3      H2              7.4744614345       35.6663642729      -66.9772153891  TIP3      12893           0.0000000000
     60932     13086  TIP3      OH2            18.1988696017       20.9986468095      -65.2856113593  TIP3      12894           0.0000000000
     60933     13086  TIP3      H1             17.3712644289       21.2988931425      -65.7000282568  TIP3      12894           0.0000000000
     60934     13086  TIP3      H2             18.3664988860       20.1753726974      -65.8025172860  TIP3      12894           0.0000000000
     60935     13087  TIP3      OH2             5.7752261408       36.0323048930      -71.2423707296  TIP3      12895           0.0000000000
     60936     13087  TIP3      H1              5.3870605354       35.2755143235      -70.7761740291  TIP3      12895           0.0000000000
     60937     13087  TIP3      H2              6.3505242369       36.4011565977      -70.5489846708  TIP3      12895           0.0000000000
     60938     13088  TIP3      OH2            11.5867928464       22.4300244209      -71.0086440402  TIP3      12896           0.0000000000
     60939     13088  TIP3      H1             10.9150262143       21.7889193227      -70.7210246987  TIP3      12896           0.0000000000
     60940     13088  TIP3      H2             12.1445078450       21.8920748728      -71.5834388936  TIP3      12896           0.0000000000
     60941     13089  TIP3      OH2            16.7190923273       20.4967714460      -70.9010007035  TIP3      12897           0.0000000000
     60942     13089  TIP3      H1             17.3360216200       21.0549205815      -71.4393300179  TIP3      12897           0.0000000000
     60943     13089  TIP3      H2             15.8387007740       20.8331200379      -71.1722737235  TIP3      12897           0.0000000000
     60944     13090  TIP3      OH2            18.3152483969       21.8261264828      -72.6770117838  TIP3      12898           0.0000000000
     60945     13090  TIP3      H1             18.9916243793       21.1724365467      -73.0221712471  TIP3      12898           0.0000000000
     60946     13090  TIP3      H2             18.9021261636       22.6005326790      -72.5529764590  TIP3      12898           0.0000000000
     60947     13091  TIP3      OH2             3.9882827243       21.0512978609      -73.1743885931  TIP3      12899           0.0000000000
     60948     13091  TIP3      H1              3.1521576846       20.8678067939      -73.6484677592  TIP3      12899           0.0000000000
     60949     13091  TIP3      H2              4.4044359805       20.1739679055      -73.1986061693  TIP3      12899           0.0000000000
     60950     13092  TIP3      OH2             2.7119449292       20.8054802574      -77.4222379895  TIP3      12900           0.0000000000
     60951     13092  TIP3      H1              3.2147207301       21.4486716346      -77.9634980322  TIP3      12900           0.0000000000
     60952     13092  TIP3      H2              2.1633815150       21.3763283699      -76.8528992443  TIP3      12900           0.0000000000
     60953     13093  TIP3      OH2             8.4286282170       20.9755607942      -73.3654245470  TIP3      12901           0.0000000000
     60954     13093  TIP3      H1              9.3276170906       21.3358618607      -73.4393967965  TIP3      12901           0.0000000000
     60955     13093  TIP3      H2              8.3950003169       20.7576374932      -72.4353687608  TIP3      12901           0.0000000000
     60956     13094  TIP3      OH2            14.1378813259       20.9978198429      -71.7465998477  TIP3      12902           0.0000000000
     60957     13094  TIP3      H1             14.1248213172       21.0999145819      -72.7058433437  TIP3      12902           0.0000000000
     60958     13094  TIP3      H2             13.7751567388       20.0869197536      -71.6228501961  TIP3      12902           0.0000000000
     60959     13095  TIP3      OH2            15.3900325414       21.0383475180      -76.0650610282  TIP3      12903           0.0000000000
     60960     13095  TIP3      H1             14.6501151690       21.6278558786      -76.2460420308  TIP3      12903           0.0000000000
     60961     13095  TIP3      H2             14.9782009759       20.1673868274      -75.8614809030  TIP3      12903           0.0000000000
     60962     13096  TIP3      OH2             4.5604064723       22.6570216417      -78.8936944111  TIP3      12904           0.0000000000
     60963     13096  TIP3      H1              5.1146387884       22.1249535834      -79.4654693394  TIP3      12904           0.0000000000
     60964     13096  TIP3      H2              5.2068277343       23.0826716005      -78.2998741120  TIP3      12904           0.0000000000
     60965     13097  TIP3      OH2             9.5841808551       22.9782913600      -76.5144285676  TIP3      12905           0.0000000000
     60966     13097  TIP3      H1              9.8474615741       22.4175556992      -75.7661926860  TIP3      12905           0.0000000000
     60967     13097  TIP3      H2              9.6471662645       23.8489411077      -76.0563909948  TIP3      12905           0.0000000000
     60968     13098  TIP3      OH2             3.8447847961       21.5930327739      -63.7049091870  TIP3      12906           0.0000000000
     60969     13098  TIP3      H1              3.4601003309       20.7954715522      -63.3000015203  TIP3      12906           0.0000000000
     60970     13098  TIP3      H2              4.7528419224       21.5523174419      -63.3206098779  TIP3      12906           0.0000000000
     60971     13099  TIP3      OH2             5.8379904490       20.9810664765      -62.0485313211  TIP3      12907           0.0000000000
     60972     13099  TIP3      H1              6.7284733732       20.6445114862      -62.2739501790  TIP3      12907           0.0000000000
     60973     13099  TIP3      H2              5.4713159862       20.1676639780      -61.6520884041  TIP3      12907           0.0000000000
     60974     13100  TIP3      OH2            14.2532903629       20.2698560242      -61.9035197716  TIP3      12908           0.0000000000
     60975     13100  TIP3      H1             14.3434048056       19.7888467026      -61.0578979372  TIP3      12908           0.0000000000
     60976     13100  TIP3      H2             15.1675726945       20.2281298142      -62.2517515091  TIP3      12908           0.0000000000
     60977     13101  TIP3      OH2            17.2788454191      -36.7602597153      -63.1090724729  TIP3      12909           0.0000000000
     60978     13101  TIP3      H1             16.6549377626      -36.8882448204      -63.8274945784  TIP3      12909           0.0000000000
     60979     13101  TIP3      H2             17.4183166870      -35.8007618124      -63.1141465357  TIP3      12909           0.0000000000
     60980     13102  TIP3      OH2            31.8985318737       30.1751561059      -73.2865355730  TIP3      12910           0.0000000000
     60981     13102  TIP3      H1             31.9065270506       31.1591079918      -73.3270605444  TIP3      12910           0.0000000000
     60982     13102  TIP3      H2             31.1738962778       29.9527493703      -73.8949169902  TIP3      12910           0.0000000000
     60983     13103  TIP3      OH2            30.7613586064       29.4434323829      -69.8065523640  TIP3      12911           0.0000000000
     60984     13103  TIP3      H1             30.7402635173       28.8012175069      -69.0793262753  TIP3      12911           0.0000000000
     60985     13103  TIP3      H2             30.4253810633       28.9281348207      -70.5582056158  TIP3      12911           0.0000000000
     60986     13104  TIP3      OH2            23.1093858405       29.1230006119      -68.2423267489  TIP3      12912           0.0000000000
     60987     13104  TIP3      H1             23.1947382236       28.4357973426      -67.5489351176  TIP3      12912           0.0000000000
     60988     13104  TIP3      H2             23.8597268245       29.6923402237      -68.0196060250  TIP3      12912           0.0000000000
     60989     13105  TIP3      OH2            34.4596746330       32.3684987219      -71.5108694169  TIP3      12913           0.0000000000
     60990     13105  TIP3      H1             34.0430305473       31.6632413551      -71.0097397369  TIP3      12913           0.0000000000
     60991     13105  TIP3      H2             34.4823242165       33.0875808862      -70.8572433373  TIP3      12913           0.0000000000
     60992     13106  TIP3      OH2            24.0536174434       33.5749701042      -69.7140770306  TIP3      12914           0.0000000000
     60993     13106  TIP3      H1             23.7207388687       32.7177957080      -70.0508477210  TIP3      12914           0.0000000000
     60994     13106  TIP3      H2             25.0058773017       33.3817506425      -69.7075052489  TIP3      12914           0.0000000000
     60995     13107  TIP3      OH2            20.6761334566       27.1277668695      -74.2511286804  TIP3      12915           0.0000000000
     60996     13107  TIP3      H1             20.2385020212       27.9976936579      -74.3099903642  TIP3      12915           0.0000000000
     60997     13107  TIP3      H2             20.1116145693       26.5842874171      -74.8192241129  TIP3      12915           0.0000000000
     60998     13108  TIP3      OH2            21.3865597400       29.3510763762      -72.1026522305  TIP3      12916           0.0000000000
     60999     13108  TIP3      H1             21.6630193493       28.5299715493      -71.6514528860  TIP3      12916           0.0000000000
     61000     13108  TIP3      H2             22.0805205643       29.4584739623      -72.7707195177  TIP3      12916           0.0000000000
     61001     13109  TIP3      OH2            29.1249004116       31.8279090972      -69.2998321911  TIP3      12917           0.0000000000
     61002     13109  TIP3      H1             29.4696143841       31.2225867943      -69.9707251035  TIP3      12917           0.0000000000
     61003     13109  TIP3      H2             29.9421626479       32.0227632774      -68.8098752740  TIP3      12917           0.0000000000
     61004     13110  TIP3      OH2            32.3123012033       26.3198783812      -69.0136920538  TIP3      12918           0.0000000000
     61005     13110  TIP3      H1             32.4763269068       25.3597694474      -69.0234881062  TIP3      12918           0.0000000000
     61006     13110  TIP3      H2             32.2100916437       26.4642225721      -69.9741754711  TIP3      12918           0.0000000000
     61007     13111  TIP3      OH2            25.4125352563       24.4051077214      -71.7924854466  TIP3      12919           0.0000000000
     61008     13111  TIP3      H1             25.5215196862       25.2376791610      -72.2883558561  TIP3      12919           0.0000000000
     61009     13111  TIP3      H2             25.0166089947       23.8295668863      -72.4841602419  TIP3      12919           0.0000000000
     61010     13112  TIP3      OH2            33.1784813145       24.5238704587      -73.4078236748  TIP3      12920           0.0000000000
     61011     13112  TIP3      H1             33.8201752482       24.1641058141      -72.7473591644  TIP3      12920           0.0000000000
     61012     13112  TIP3      H2             33.7707070476       25.0454193288      -73.9578426536  TIP3      12920           0.0000000000
     61013     13113  TIP3      OH2            22.0472989941       26.8272427522      -71.0516827926  TIP3      12921           0.0000000000
     61014     13113  TIP3      H1             22.7086971511       26.2700939783      -70.6021520379  TIP3      12921           0.0000000000
     61015     13113  TIP3      H2             22.1405593308       26.5031802182      -71.9635873586  TIP3      12921           0.0000000000
     61016     13114  TIP3      OH2            27.1938663296       28.3700188167      -71.7396494927  TIP3      12922           0.0000000000
     61017     13114  TIP3      H1             27.8675482818       27.7890449814      -71.3464950372  TIP3      12922           0.0000000000
     61018     13114  TIP3      H2             26.6793800713       27.7131403792      -72.2486979902  TIP3      12922           0.0000000000
     61019     13115  TIP3      OH2            24.3233776733       23.3025492785      -67.7549906268  TIP3      12923           0.0000000000
     61020     13115  TIP3      H1             24.0409495675       23.8739284803      -68.5005792054  TIP3      12923           0.0000000000
     61021     13115  TIP3      H2             23.6460183012       23.5308153368      -67.0725308675  TIP3      12923           0.0000000000
     61022     13116  TIP3      OH2            31.6035457510       32.7597720871      -74.2175440279  TIP3      12924           0.0000000000
     61023     13116  TIP3      H1             31.3483160796       32.5212314942      -75.1188973906  TIP3      12924           0.0000000000
     61024     13116  TIP3      H2             31.2986259408       33.6872867000      -74.1487105057  TIP3      12924           0.0000000000
     61025     13117  TIP3      OH2            26.8367806147       30.9233774564      -67.5057773378  TIP3      12925           0.0000000000
     61026     13117  TIP3      H1             26.1293896515       31.5668256538      -67.2951135474  TIP3      12925           0.0000000000
     61027     13117  TIP3      H2             27.5441797975       31.5203130287      -67.7992403085  TIP3      12925           0.0000000000
     61028     13118  TIP3      OH2            34.6608605152       23.8008169183      -71.3097908352  TIP3      12926           0.0000000000
     61029     13118  TIP3      H1             34.6907991755       22.9803242183      -70.8147239852  TIP3      12926           0.0000000000
     61030     13118  TIP3      H2             35.4282389633       24.2669964015      -70.9145603734  TIP3      12926           0.0000000000
     61031     13119  TIP3      OH2            23.8917729782       25.1569800908      -69.7184206425  TIP3      12927           0.0000000000
     61032     13119  TIP3      H1             24.5187955835       25.8473806406      -69.4084187870  TIP3      12927           0.0000000000
     61033     13119  TIP3      H2             24.4094981128       24.7488052872      -70.4576077648  TIP3      12927           0.0000000000
     61034     13120  TIP3      OH2            25.2981146671       32.9501833756      -66.7125519624  TIP3      12928           0.0000000000
     61035     13120  TIP3      H1             25.2341488699       33.8547738866      -67.0570900426  TIP3      12928           0.0000000000
     61036     13120  TIP3      H2             24.4129111665       32.8610591911      -66.2774367455  TIP3      12928           0.0000000000
     61037     13121  TIP3      OH2            21.2985379494       32.6222956726      -75.8941708675  TIP3      12929           0.0000000000
     61038     13121  TIP3      H1             21.1312994139       32.9181268557      -76.8090535926  TIP3      12929           0.0000000000
     61039     13121  TIP3      H2             21.4415676497       33.4454780840      -75.3896416570  TIP3      12929           0.0000000000
     61040     13122  TIP3      OH2            34.7809424707       34.1756411812      -69.0129319835  TIP3      12930           0.0000000000
     61041     13122  TIP3      H1             33.8131875118       34.3544511115      -68.9661203578  TIP3      12930           0.0000000000
     61042     13122  TIP3      H2             35.1674200858       35.0009489444      -69.3588698198  TIP3      12930           0.0000000000
     61043     13123  TIP3      OH2            35.0969222811       22.6456157286      -68.0041318653  TIP3      12931           0.0000000000
     61044     13123  TIP3      H1             34.4024204412       23.3237687096      -67.8942168765  TIP3      12931           0.0000000000
     61045     13123  TIP3      H2             35.8589719369       23.1402986373      -68.3263189974  TIP3      12931           0.0000000000
     61046     13124  TIP3      OH2            28.2600741352       20.6352804028      -70.2899975592  TIP3      12932           0.0000000000
     61047     13124  TIP3      H1             28.1236196867       19.6706326220      -70.3610213913  TIP3      12932           0.0000000000
     61048     13124  TIP3      H2             27.3817285800       20.9412155404      -69.9826643101  TIP3      12932           0.0000000000
     61049     13125  TIP3      OH2            33.2887390843       35.7196733553      -72.7363625032  TIP3      12933           0.0000000000
     61050     13125  TIP3      H1             33.8404339033       35.0918860835      -73.2408550966  TIP3      12933           0.0000000000
     61051     13125  TIP3      H2             33.6708033504       36.5624644216      -72.9711966392  TIP3      12933           0.0000000000
     61052     13126  TIP3      OH2            34.4974786517       33.8687641897      -74.0690847249  TIP3      12934           0.0000000000
     61053     13126  TIP3      H1             34.1531060025       33.1897286945      -74.6587690711  TIP3      12934           0.0000000000
     61054     13126  TIP3      H2             34.4928027043       33.4046056050      -73.2035196854  TIP3      12934           0.0000000000
     61055     13127  TIP3      OH2            35.8234380565       32.6694569184      -65.4171477034  TIP3      12935           0.0000000000
     61056     13127  TIP3      H1             36.0807487993       31.9656307632      -66.0424530645  TIP3      12935           0.0000000000
     61057     13127  TIP3      H2             36.2279036839       33.4293656340      -65.8779045532  TIP3      12935           0.0000000000
     61058     13128  TIP3      OH2            30.5424604234       29.4302574629      -75.8105658369  TIP3      12936           0.0000000000
     61059     13128  TIP3      H1             29.8607168465       30.0216768199      -76.1840640838  TIP3      12936           0.0000000000
     61060     13128  TIP3      H2             31.2589630012       29.5074771554      -76.4671114446  TIP3      12936           0.0000000000
     61061     13129  TIP3      OH2            30.5771804745       27.9216445774      -78.6694216033  TIP3      12937           0.0000000000
     61062     13129  TIP3      H1             31.3529688725       27.9802362849      -78.0986651627  TIP3      12937           0.0000000000
     61063     13129  TIP3      H2             30.9186954951       27.3286268985      -79.3384647911  TIP3      12937           0.0000000000
     61064     13130  TIP3      OH2            33.9707546177       29.6546301969      -74.8877385261  TIP3      12938           0.0000000000
     61065     13130  TIP3      H1             33.2511957508       29.8982353667      -74.2599496935  TIP3      12938           0.0000000000
     61066     13130  TIP3      H2             34.4591251794       29.0159512332      -74.3242668581  TIP3      12938           0.0000000000
     61067     13131  TIP3      OH2            33.9521384065       27.8185134168      -65.7634352332  TIP3      12939           0.0000000000
     61068     13131  TIP3      H1             33.9028569822       28.6168803543      -65.2128394892  TIP3      12939           0.0000000000
     61069     13131  TIP3      H2             33.3103512420       28.0852983697      -66.4475007477  TIP3      12939           0.0000000000
     61070     13132  TIP3      OH2            25.6161036033       30.2952906131      -72.9406842497  TIP3      12940           0.0000000000
     61071     13132  TIP3      H1             25.2972527896       29.9058752080      -73.7905953032  TIP3      12940           0.0000000000
     61072     13132  TIP3      H2             26.2326556819       29.6056251038      -72.6077595183  TIP3      12940           0.0000000000
     61073     13133  TIP3      OH2            26.9413421031       33.6988385249      -70.2754681424  TIP3      12941           0.0000000000
     61074     13133  TIP3      H1             26.9423201818       33.1539314260      -71.0699257900  TIP3      12941           0.0000000000
     61075     13133  TIP3      H2             27.7088079238       33.3326388131      -69.7971624961  TIP3      12941           0.0000000000
     61076     13134  TIP3      OH2            25.9444296421       29.0440726557      -69.2800095926  TIP3      12942           0.0000000000
     61077     13134  TIP3      H1             26.4957922527       29.1411663309      -70.0811279609  TIP3      12942           0.0000000000
     61078     13134  TIP3      H2             26.3378337020       29.7068299765      -68.6694611219  TIP3      12942           0.0000000000
     61079     13135  TIP3      OH2            32.3016020014       34.6227413378      -68.5748513267  TIP3      12943           0.0000000000
     61080     13135  TIP3      H1             32.0593606267       35.2442006424      -67.8934091083  TIP3      12943           0.0000000000
     61081     13135  TIP3      H2             32.0811223013       33.7597160222      -68.1454894281  TIP3      12943           0.0000000000
     61082     13136  TIP3      OH2            26.8636854257       33.4501190215      -64.5556598805  TIP3      12944           0.0000000000
     61083     13136  TIP3      H1             26.4788615222       34.2370335748      -64.1096667342  TIP3      12944           0.0000000000
     61084     13136  TIP3      H2             26.2217932637       33.2503436842      -65.2863533165  TIP3      12944           0.0000000000
     61085     13137  TIP3      OH2            32.8930728601       28.8045543169      -77.1759197180  TIP3      12945           0.0000000000
     61086     13137  TIP3      H1             33.4174053019       29.0447076913      -76.3703108738  TIP3      12945           0.0000000000
     61087     13137  TIP3      H2             33.2689688908       29.3878602444      -77.8613304868  TIP3      12945           0.0000000000
     61088     13138  TIP3      OH2            23.8421668680       29.6346222381      -65.4307518352  TIP3      12946           0.0000000000
     61089     13138  TIP3      H1             23.8958122154       30.3030403806      -64.7226916455  TIP3      12946           0.0000000000
     61090     13138  TIP3      H2             22.8995156289       29.7219453654      -65.6418895576  TIP3      12946           0.0000000000
     61091     13139  TIP3      OH2            30.5400306359       35.5280332006      -73.6870113429  TIP3      12947           0.0000000000
     61092     13139  TIP3      H1             31.0802540899       35.8731011142      -72.9682402301  TIP3      12947           0.0000000000
     61093     13139  TIP3      H2             30.0572438896       36.3030813081      -73.9893343264  TIP3      12947           0.0000000000
     61094     13140  TIP3      OH2            25.1252725174       35.4250651303      -63.8499229200  TIP3      12948           0.0000000000
     61095     13140  TIP3      H1             25.0552528065       35.3967803245      -64.8268358817  TIP3      12948           0.0000000000
     61096     13140  TIP3      H2             24.1863211282       35.3546673755      -63.5798768731  TIP3      12948           0.0000000000
     61097     13141  TIP3      OH2            24.5760515682       29.3196898643      -75.3110730111  TIP3      12949           0.0000000000
     61098     13141  TIP3      H1             24.3080511198       30.0946405397      -75.8516401256  TIP3      12949           0.0000000000
     61099     13141  TIP3      H2             23.9315185520       28.6539417578      -75.5624942835  TIP3      12949           0.0000000000
     61100     13142  TIP3      OH2            20.6679213847       31.7561934855      -66.4261102232  TIP3      12950           0.0000000000
     61101     13142  TIP3      H1             20.2366643731       31.6671206833      -67.2951006911  TIP3      12950           0.0000000000
     61102     13142  TIP3      H2             20.7576780569       30.8064005862      -66.2110360145  TIP3      12950           0.0000000000
     61103     13143  TIP3      OH2            20.4696509091       34.4424913098      -69.6126638467  TIP3      12951           0.0000000000
     61104     13143  TIP3      H1             21.4249821295       34.3949919258      -69.7016091957  TIP3      12951           0.0000000000
     61105     13143  TIP3      H2             20.3758528210       35.2726506364      -69.1214688205  TIP3      12951           0.0000000000
     61106     13144  TIP3      OH2            29.4594664142       34.6618730424      -65.2066813499  TIP3      12952           0.0000000000
     61107     13144  TIP3      H1             29.8137773068       35.4334990579      -64.6998066255  TIP3      12952           0.0000000000
     61108     13144  TIP3      H2             28.6706816405       34.3389533080      -64.7508492023  TIP3      12952           0.0000000000
     61109     13145  TIP3      OH2            35.3257533206       26.8294885384      -63.4598563252  TIP3      12953           0.0000000000
     61110     13145  TIP3      H1             35.2883737460       27.1794299052      -64.3538865334  TIP3      12953           0.0000000000
     61111     13145  TIP3      H2             35.8635864618       26.0033259640      -63.6136704255  TIP3      12953           0.0000000000
     61112     13146  TIP3      OH2            22.9700974905       33.0780403593      -65.4878997025  TIP3      12954           0.0000000000
     61113     13146  TIP3      H1             23.1792462295       32.6969035855      -64.6104492323  TIP3      12954           0.0000000000
     61114     13146  TIP3      H2             22.1006578281       32.6870561276      -65.7118850356  TIP3      12954           0.0000000000
     61115     13147  TIP3      OH2            25.6434633314       21.5386357313      -69.5381760070  TIP3      12955           0.0000000000
     61116     13147  TIP3      H1             24.7411823835       21.4120662697      -69.9067076348  TIP3      12955           0.0000000000
     61117     13147  TIP3      H2             25.5082012250       22.3697393819      -69.0543084083  TIP3      12955           0.0000000000
     61118     13148  TIP3      OH2            30.2886617250       21.2017952233      -66.1781527067  TIP3      12956           0.0000000000
     61119     13148  TIP3      H1             30.6844635809       20.7852410845      -65.3901805014  TIP3      12956           0.0000000000
     61120     13148  TIP3      H2             29.3159901313       21.0883229335      -66.0309092549  TIP3      12956           0.0000000000
     61121     13149  TIP3      OH2            33.5025583120       25.0103288476      -65.3378421039  TIP3      12957           0.0000000000
     61122     13149  TIP3      H1             33.0192626178       24.8397287192      -64.4954031635  TIP3      12957           0.0000000000
     61123     13149  TIP3      H2             33.4269556849       25.9668702542      -65.4713596348  TIP3      12957           0.0000000000
     61124     13150  TIP3      OH2            34.4999375948       29.8437354782      -79.3256480443  TIP3      12958           0.0000000000
     61125     13150  TIP3      H1             34.4180724804       29.7410144429      -80.2921177987  TIP3      12958           0.0000000000
     61126     13150  TIP3      H2             35.2590763380       30.4283008303      -79.2689988431  TIP3      12958           0.0000000000
     61127     13151  TIP3      OH2            29.9500854244       23.7691171871      -78.8421313241  TIP3      12959           0.0000000000
     61128     13151  TIP3      H1             29.6209188149       23.7370157073      -77.9250304624  TIP3      12959           0.0000000000
     61129     13151  TIP3      H2             29.6572084402       22.9005726085      -79.1272416754  TIP3      12959           0.0000000000
     61130     13152  TIP3      OH2            25.7518783890       26.5183670565      -68.2749593394  TIP3      12960           0.0000000000
     61131     13152  TIP3      H1             25.0079361902       26.5039095025      -67.6466346059  TIP3      12960           0.0000000000
     61132     13152  TIP3      H2             25.6983059314       27.4229557693      -68.6570534703  TIP3      12960           0.0000000000
     61133     13153  TIP3      OH2            25.7036046933       26.6225527509      -73.4180894556  TIP3      12961           0.0000000000
     61134     13153  TIP3      H1             24.7650906448       26.3769738815      -73.5544514772  TIP3      12961           0.0000000000
     61135     13153  TIP3      H2             26.0813003091       26.3402294695      -74.2769255398  TIP3      12961           0.0000000000
     61136     13154  TIP3      OH2            31.2473340723       27.1309286559      -74.6770275487  TIP3      12962           0.0000000000
     61137     13154  TIP3      H1             30.8217910561       27.9549636125      -75.0044276072  TIP3      12962           0.0000000000
     61138     13154  TIP3      H2             31.9273331966       26.9778060874      -75.3503090473  TIP3      12962           0.0000000000
     61139     13155  TIP3      OH2            30.2913049540       27.3436265447      -63.2068329391  TIP3      12963           0.0000000000
     61140     13155  TIP3      H1             29.7739837300       26.5614032204      -62.9039065406  TIP3      12963           0.0000000000
     61141     13155  TIP3      H2             31.1349042285       27.2198772400      -62.7371408003  TIP3      12963           0.0000000000
     61142     13156  TIP3      OH2            32.2309027529       26.6361236389      -71.7827781344  TIP3      12964           0.0000000000
     61143     13156  TIP3      H1             31.9982150141       27.1848573081      -72.5518143764  TIP3      12964           0.0000000000
     61144     13156  TIP3      H2             32.3576901996       25.7806390151      -72.2420169557  TIP3      12964           0.0000000000
     61145     13157  TIP3      OH2            23.3664665270       26.7621403601      -66.6060244315  TIP3      12965           0.0000000000
     61146     13157  TIP3      H1             23.4504835251       27.1700930615      -65.7266639443  TIP3      12965           0.0000000000
     61147     13157  TIP3      H2             22.9267369148       25.9234169532      -66.3948447375  TIP3      12965           0.0000000000
     61148     13158  TIP3      OH2            26.9613412472       24.4477321360      -79.3650233077  TIP3      12966           0.0000000000
     61149     13158  TIP3      H1             26.3974524840       23.7963910565      -78.9047978914  TIP3      12966           0.0000000000
     61150     13158  TIP3      H2             26.3994703632       24.7861103697      -80.0761095921  TIP3      12966           0.0000000000
     61151     13159  TIP3      OH2            20.0321269445       23.8660928276      -72.6125712145  TIP3      12967           0.0000000000
     61152     13159  TIP3      H1             20.7212484809       23.8072153893      -71.9237955338  TIP3      12967           0.0000000000
     61153     13159  TIP3      H2             20.4542953294       23.4857530896      -73.4097605894  TIP3      12967           0.0000000000
     61154     13160  TIP3      OH2            21.3334225657       24.6233427335      -77.2347924737  TIP3      12968           0.0000000000
     61155     13160  TIP3      H1             21.8201074127       25.2027629221      -77.8460794542  TIP3      12968           0.0000000000
     61156     13160  TIP3      H2             20.6095843454       25.2125681936      -76.9442942293  TIP3      12968           0.0000000000
     61157     13161  TIP3      OH2            31.4429416289       28.1969431545      -67.2563522228  TIP3      12969           0.0000000000
     61158     13161  TIP3      H1             31.8379705007       27.5042972583      -67.8292002394  TIP3      12969           0.0000000000
     61159     13161  TIP3      H2             30.9781214624       27.6746145288      -66.5789332481  TIP3      12969           0.0000000000
     61160     13162  TIP3      OH2            28.2525250940       24.1900332895      -72.4119200860  TIP3      12970           0.0000000000
     61161     13162  TIP3      H1             27.3158957062       24.1877186415      -72.1112549760  TIP3      12970           0.0000000000
     61162     13162  TIP3      H2             28.7516230714       24.0144628123      -71.5980600528  TIP3      12970           0.0000000000
     61163     13163  TIP3      OH2            23.0686128552       25.7333686124      -73.5453711288  TIP3      12971           0.0000000000
     61164     13163  TIP3      H1             22.1840724641       25.8883774747      -73.9371193589  TIP3      12971           0.0000000000
     61165     13163  TIP3      H2             23.3516169484       24.9002380874      -73.9564921917  TIP3      12971           0.0000000000
     61166     13164  TIP3      OH2            26.7036219121       25.8093990776      -75.9016328943  TIP3      12972           0.0000000000
     61167     13164  TIP3      H1             27.6649774445       25.8930005227      -75.7453125570  TIP3      12972           0.0000000000
     61168     13164  TIP3      H2             26.4809760211       26.4465008023      -76.6042925631  TIP3      12972           0.0000000000
     61169     13165  TIP3      OH2            32.5954759768       23.3896701878      -69.1608151052  TIP3      12973           0.0000000000
     61170     13165  TIP3      H1             31.9265279341       23.4610025213      -68.4565651423  TIP3      12973           0.0000000000
     61171     13165  TIP3      H2             32.1001942531       23.1766730741      -69.9662047242  TIP3      12973           0.0000000000
     61172     13166  TIP3      OH2            25.4187114485       26.9597939956      -78.3290671903  TIP3      12974           0.0000000000
     61173     13166  TIP3      H1             24.8488889823       26.6070189506      -79.0294239870  TIP3      12974           0.0000000000
     61174     13166  TIP3      H2             26.2358108064       27.1608477886      -78.8130333874  TIP3      12974           0.0000000000
     61175     13167  TIP3      OH2            23.5426470241       31.5677319646      -63.2831348798  TIP3      12975           0.0000000000
     61176     13167  TIP3      H1             24.2646048839       31.7747880688      -62.6660367415  TIP3      12975           0.0000000000
     61177     13167  TIP3      H2             22.7692494011       31.5980396992      -62.6767705250  TIP3      12975           0.0000000000
     61178     13168  TIP3      OH2            29.5398542385       26.9382490101      -70.5236372529  TIP3      12976           0.0000000000
     61179     13168  TIP3      H1             30.1474887646       26.4092858108      -71.0557143524  TIP3      12976           0.0000000000
     61180     13168  TIP3      H2             29.3958413952       26.3907719557      -69.7404123244  TIP3      12976           0.0000000000
     61181     13169  TIP3      OH2            24.5736475531       23.0812866126      -74.0503376472  TIP3      12977           0.0000000000
     61182     13169  TIP3      H1             24.2238795395       22.1705348295      -74.1017104019  TIP3      12977           0.0000000000
     61183     13169  TIP3      H2             25.3428415033       23.0107496289      -74.6302630972  TIP3      12977           0.0000000000
     61184     13170  TIP3      OH2            28.1809064666       25.2636190359      -68.1071182675  TIP3      12978           0.0000000000
     61185     13170  TIP3      H1             27.3577002117       25.7850127103      -68.0201924853  TIP3      12978           0.0000000000
     61186     13170  TIP3      H2             28.7370206009       25.6183326198      -67.3868733314  TIP3      12978           0.0000000000
     61187     13171  TIP3      OH2            28.7802275013       31.4886523695      -76.3886521525  TIP3      12979           0.0000000000
     61188     13171  TIP3      H1             27.9800132708       31.0266467943      -76.7271151635  TIP3      12979           0.0000000000
     61189     13171  TIP3      H2             28.5594608383       31.5977687308      -75.4448889597  TIP3      12979           0.0000000000
     61190     13172  TIP3      OH2            35.6373520427       30.7195581816      -67.6107132912  TIP3      12980           0.0000000000
     61191     13172  TIP3      H1             36.3646764674       30.8420783091      -68.2635651722  TIP3      12980           0.0000000000
     61192     13172  TIP3      H2             34.8769650458       30.7167753111      -68.2208472099  TIP3      12980           0.0000000000
     61193     13173  TIP3      OH2            32.6538266533       24.3034726053      -78.2333273700  TIP3      12981           0.0000000000
     61194     13173  TIP3      H1             31.6968336573       24.4207572738      -78.3950700593  TIP3      12981           0.0000000000
     61195     13173  TIP3      H2             32.9226150577       25.1715426494      -77.8719682531  TIP3      12981           0.0000000000
     61196     13174  TIP3      OH2            30.2171593566       31.7660075434      -65.1958066494  TIP3      12982           0.0000000000
     61197     13174  TIP3      H1             29.9158338445       31.3590283525      -64.3776391345  TIP3      12982           0.0000000000
     61198     13174  TIP3      H2             30.0676413226       32.7107353320      -65.0622348481  TIP3      12982           0.0000000000
     61199     13175  TIP3      OH2            33.3503011624       26.2383271575      -76.6356388567  TIP3      12983           0.0000000000
     61200     13175  TIP3      H1             34.2247858290       26.0940251891      -76.2210877299  TIP3      12983           0.0000000000
     61201     13175  TIP3      H2             33.4244764867       27.0931107478      -77.0842725865  TIP3      12983           0.0000000000
     61202     13176  TIP3      OH2            23.8757378692       30.8817006519      -70.6101740260  TIP3      12984           0.0000000000
     61203     13176  TIP3      H1             24.5612324705       30.8115882688      -71.3050587704  TIP3      12984           0.0000000000
     61204     13176  TIP3      H2             23.9400020207       30.0224678694      -70.1556696711  TIP3      12984           0.0000000000
     61205     13177  TIP3      OH2            30.8626321297       32.9399062419      -77.3717911984  TIP3      12985           0.0000000000
     61206     13177  TIP3      H1             30.5258287483       33.7894775705      -77.0213134304  TIP3      12985           0.0000000000
     61207     13177  TIP3      H2             30.1202930780       32.3369820872      -77.1631058843  TIP3      12985           0.0000000000
     61208     13178  TIP3      OH2            20.8691836252       29.2864381465      -65.3474253212  TIP3      12986           0.0000000000
     61209     13178  TIP3      H1             21.0384426542       28.8439048100      -64.4965447906  TIP3      12986           0.0000000000
     61210     13178  TIP3      H2             20.2485370181       28.6780633541      -65.7879709497  TIP3      12986           0.0000000000
     61211     13179  TIP3      OH2            27.8813295800       28.8495059188      -63.1747314089  TIP3      12987           0.0000000000
     61212     13179  TIP3      H1             27.5615921441       28.5359747104      -64.0331664936  TIP3      12987           0.0000000000
     61213     13179  TIP3      H2             28.8035932768       28.5241017090      -63.1743808520  TIP3      12987           0.0000000000
     61214     13180  TIP3      OH2            32.5781452911       33.9532821361      -65.2428635769  TIP3      12988           0.0000000000
     61215     13180  TIP3      H1             31.7240471327       34.3326294582      -65.4880166048  TIP3      12988           0.0000000000
     61216     13180  TIP3      H2             32.5698745942       34.4124630381      -64.3618574202  TIP3      12988           0.0000000000
     61217     13181  TIP3      OH2            33.6793870893       29.9836625860      -69.3169416161  TIP3      12989           0.0000000000
     61218     13181  TIP3      H1             32.7384441114       29.7737169570      -69.4503786160  TIP3      12989           0.0000000000
     61219     13181  TIP3      H2             34.1532261098       29.2470752119      -69.7428542288  TIP3      12989           0.0000000000
     61220     13182  TIP3      OH2            26.2925551779       34.3029541694      -73.3190801319  TIP3      12990           0.0000000000
     61221     13182  TIP3      H1             26.7542178770       35.1463197946      -73.3930863353  TIP3      12990           0.0000000000
     61222     13182  TIP3      H2             25.3777742479       34.5388528287      -73.5112951491  TIP3      12990           0.0000000000
     61223     13183  TIP3      OH2            21.9956218136       29.2120417611      -78.7085953482  TIP3      12991           0.0000000000
     61224     13183  TIP3      H1             22.6073462295       29.8147598532      -78.2465696601  TIP3      12991           0.0000000000
     61225     13183  TIP3      H2             21.1203120622       29.4685325334      -78.3604166625  TIP3      12991           0.0000000000
     61226     13184  TIP3      OH2            27.6953407069       31.9909013463      -73.6908116624  TIP3      12992           0.0000000000
     61227     13184  TIP3      H1             27.3729535442       32.9125008519      -73.6268711906  TIP3      12992           0.0000000000
     61228     13184  TIP3      H2             26.9543403748       31.5164423249      -73.2676243733  TIP3      12992           0.0000000000
     61229     13185  TIP3      OH2            28.3905224276       35.8805242310      -67.6011598119  TIP3      12993           0.0000000000
     61230     13185  TIP3      H1             28.5982320479       36.8242366218      -67.6638343544  TIP3      12993           0.0000000000
     61231     13185  TIP3      H2             28.7500169801       35.7029139029      -66.7106202668  TIP3      12993           0.0000000000
     61232     13186  TIP3      OH2            31.6478752903       32.1810652492      -67.6997498504  TIP3      12994           0.0000000000
     61233     13186  TIP3      H1             31.3164132703       31.9908741278      -66.7935428183  TIP3      12994           0.0000000000
     61234     13186  TIP3      H2             32.2856733710       31.4684277352      -67.8500174622  TIP3      12994           0.0000000000
     61235     13187  TIP3      OH2            33.9614147704       33.1455313805      -78.5920285432  TIP3      12995           0.0000000000
     61236     13187  TIP3      H1             34.2777818657       32.7967872250      -77.7382856383  TIP3      12995           0.0000000000
     61237     13187  TIP3      H2             32.9962936528       33.0762856470      -78.4933452565  TIP3      12995           0.0000000000
     61238     13188  TIP3      OH2            22.5192834457       24.0225739330      -65.8024608193  TIP3      12996           0.0000000000
     61239     13188  TIP3      H1             21.6128558748       24.3746546645      -65.8207336015  TIP3      12996           0.0000000000
     61240     13188  TIP3      H2             22.4078663824       23.1776066034      -65.3386820666  TIP3      12996           0.0000000000
     61241     13189  TIP3      OH2            34.7867370156       31.8021921476      -76.3703689755  TIP3      12997           0.0000000000
     61242     13189  TIP3      H1             34.5354863326       31.0637941411      -75.7725468016  TIP3      12997           0.0000000000
     61243     13189  TIP3      H2             35.6983681544       32.0014574647      -76.0922045078  TIP3      12997           0.0000000000
     61244     13190  TIP3      OH2            22.1328071349       35.7713377046      -67.3799267228  TIP3      12998           0.0000000000
     61245     13190  TIP3      H1             22.4252033174       34.8581850457      -67.3350889495  TIP3      12998           0.0000000000
     61246     13190  TIP3      H2             22.3343690626       36.1161304560      -66.5013515761  TIP3      12998           0.0000000000
     61247     13191  TIP3      OH2            26.8783504873       33.8548937979      -77.7041419968  TIP3      12999           0.0000000000
     61248     13191  TIP3      H1             27.1249133608       33.3094042456      -76.9424683035  TIP3      12999           0.0000000000
     61249     13191  TIP3      H2             26.9863808045       34.7570780554      -77.3468248169  TIP3      12999           0.0000000000
     61250     13192  TIP3      OH2            23.3868192914       31.1259695720      -77.1357977518  TIP3      13000           0.0000000000
     61251     13192  TIP3      H1             22.7060809967       31.5370779102      -76.5693117201  TIP3      13000           0.0000000000
     61252     13192  TIP3      H2             23.9221586246       31.8935700501      -77.4151395460  TIP3      13000           0.0000000000
     61253     13193  TIP3      OH2            31.2202894780       23.7882750450      -66.8245079887  TIP3      13001           0.0000000000
     61254     13193  TIP3      H1             31.9728143800       23.8556485330      -66.2221352504  TIP3      13001           0.0000000000
     61255     13193  TIP3      H2             30.8569135095       22.9068854460      -66.6223559277  TIP3      13001           0.0000000000
     61256     13194  TIP3      OH2            32.0510785989       23.3644190834      -75.7405347505  TIP3      13002           0.0000000000
     61257     13194  TIP3      H1             32.2466544459       23.8615557196      -76.5528368019  TIP3      13002           0.0000000000
     61258     13194  TIP3      H2             32.6090065719       23.8080878720      -75.0934810546  TIP3      13002           0.0000000000
     61259     13195  TIP3      OH2            29.7048722463       35.5422977410      -76.9074915930  TIP3      13003           0.0000000000
     61260     13195  TIP3      H1             28.8645825575       36.0242168376      -76.8694455311  TIP3      13003           0.0000000000
     61261     13195  TIP3      H2             30.2412431970       36.0487461629      -77.5509443306  TIP3      13003           0.0000000000
     61262     13196  TIP3      OH2            29.2194084192       25.1081866619      -74.9394483182  TIP3      13004           0.0000000000
     61263     13196  TIP3      H1             29.9977097494       25.6967686801      -74.9131744997  TIP3      13004           0.0000000000
     61264     13196  TIP3      H2             28.9564554850       24.9991316217      -74.0080359165  TIP3      13004           0.0000000000
     61265     13197  TIP3      OH2            29.8072856188       26.1463021199      -65.7409217023  TIP3      13005           0.0000000000
     61266     13197  TIP3      H1             29.8898914016       26.7072827553      -64.9440121637  TIP3      13005           0.0000000000
     61267     13197  TIP3      H2             30.4583237305       25.4362523330      -65.6499786105  TIP3      13005           0.0000000000
     61268     13198  TIP3      OH2            30.0374503229       22.1813642014      -74.0761377498  TIP3      13006           0.0000000000
     61269     13198  TIP3      H1             29.7565803564       22.8268458656      -73.4082719618  TIP3      13006           0.0000000000
     61270     13198  TIP3      H2             30.7538470618       22.7130765827      -74.5053970354  TIP3      13006           0.0000000000
     61271     13199  TIP3      OH2            27.0905541856      -36.4510280583      -76.9455499145  TIP3      13007           0.0000000000
     61272     13199  TIP3      H1             27.2027917429      -35.6052624320      -77.3879660224  TIP3      13007           0.0000000000
     61273     13199  TIP3      H2             26.8506785623      -36.1478997818      -76.0538557660  TIP3      13007           0.0000000000
     61274     13200  TIP3      OH2            25.7276773967       23.2685209743      -77.2924025772  TIP3      13008           0.0000000000
     61275     13200  TIP3      H1             25.6697802762       24.1832733768      -76.9482503402  TIP3      13008           0.0000000000
     61276     13200  TIP3      H2             26.6408807266       23.0473765023      -77.0196915461  TIP3      13008           0.0000000000
     61277     13201  TIP3      OH2            35.8353689187       23.7815425148      -65.0913148184  TIP3      13009           0.0000000000
     61278     13201  TIP3      H1             35.0023341962       24.3108292238      -65.0554191443  TIP3      13009           0.0000000000
     61279     13201  TIP3      H2             36.2319162018       24.0718553513      -65.9130821775  TIP3      13009           0.0000000000
     61280     13202  TIP3      OH2            34.5675926292       27.7988086369      -70.8412804774  TIP3      13010           0.0000000000
     61281     13202  TIP3      H1             33.7492996198       27.3591742660      -71.1466934636  TIP3      13010           0.0000000000
     61282     13202  TIP3      H2             34.9979453820       27.0857202397      -70.3612997611  TIP3      13010           0.0000000000
     61283     13203  TIP3      OH2            23.9861638706       33.6962603553      -78.2731324024  TIP3      13011           0.0000000000
     61284     13203  TIP3      H1             24.6270349902       34.3620414051      -78.0175092815  TIP3      13011           0.0000000000
     61285     13203  TIP3      H2             24.4892464316       33.2860320764      -79.0005544907  TIP3      13011           0.0000000000
     61286     13204  TIP3      OH2            22.3690029229       26.4196819999      -79.1028650782  TIP3      13012           0.0000000000
     61287     13204  TIP3      H1             22.3335297005       27.3835948106      -78.9804134543  TIP3      13012           0.0000000000
     61288     13204  TIP3      H2             21.4933737217       26.2080506007      -79.4418923497  TIP3      13012           0.0000000000
     61289     13205  TIP3      OH2            23.1263584198       21.1773389636      -70.4192778999  TIP3      13013           0.0000000000
     61290     13205  TIP3      H1             22.9137418552       21.1919077514      -71.3808731232  TIP3      13013           0.0000000000
     61291     13205  TIP3      H2             22.7111704674       20.3275245050      -70.1580509907  TIP3      13013           0.0000000000
     61292     13206  TIP3      OH2            22.0695618638       35.0941192683      -74.3411243841  TIP3      13014           0.0000000000
     61293     13206  TIP3      H1             21.2324398586       35.5520530929      -74.2909583423  TIP3      13014           0.0000000000
     61294     13206  TIP3      H2             22.6119999383       35.5898631645      -74.9657652966  TIP3      13014           0.0000000000
     61295     13207  TIP3      OH2            26.2542609419       36.3414773157      -61.1576330467  TIP3      13015           0.0000000000
     61296     13207  TIP3      H1             27.1180997049       35.9575283244      -60.9983270513  TIP3      13015           0.0000000000
     61297     13207  TIP3      H2             26.1893228917       36.2137311850      -62.1223905660  TIP3      13015           0.0000000000
     61298     13208  TIP3      OH2            30.4683495490       36.4679852514      -79.3166539573  TIP3      13016           0.0000000000
     61299     13208  TIP3      H1             29.6608886671       35.9302009544      -79.3688745978  TIP3      13016           0.0000000000
     61300     13208  TIP3      H2             30.9780028983       35.9734241184      -79.9790103066  TIP3      13016           0.0000000000
     61301     13209  TIP3      OH2            32.7506123073       34.5469758457      -62.6898905624  TIP3      13017           0.0000000000
     61302     13209  TIP3      H1             32.0999081795       34.0027936714      -62.2109445311  TIP3      13017           0.0000000000
     61303     13209  TIP3      H2             33.2201804193       35.0207822308      -62.0082059160  TIP3      13017           0.0000000000
     61304     13210  TIP3      OH2            34.7057788725       35.9743470048      -79.7194428325  TIP3      13018           0.0000000000
     61305     13210  TIP3      H1             34.9490249194       35.1501706498      -79.2828630394  TIP3      13018           0.0000000000
     61306     13210  TIP3      H2             35.4523775402       36.2007758519      -80.2911879545  TIP3      13018           0.0000000000
     61307     13211  TIP3      OH2            21.2098529289       31.5086030854      -61.9929909871  TIP3      13019           0.0000000000
     61308     13211  TIP3      H1             21.3580532041       30.5979740187      -62.2977037500  TIP3      13019           0.0000000000
     61309     13211  TIP3      H2             20.4677955450       31.7983107493      -62.5555560787  TIP3      13019           0.0000000000
     61310     13212  TIP3      OH2            25.6433100432       31.9038759524      -79.8324868207  TIP3      13020           0.0000000000
     61311     13212  TIP3      H1             25.7197622786       31.0800700141      -79.3510550277  TIP3      13020           0.0000000000
     61312     13212  TIP3      H2             26.2080569347       31.6948145282      -80.6043145517  TIP3      13020           0.0000000000
     61313     13213  TIP3      OH2            27.9296226500       31.5112218056      -62.6082319849  TIP3      13021           0.0000000000
     61314     13213  TIP3      H1             27.5695795277       31.8134897765      -63.4652347502  TIP3      13021           0.0000000000
     61315     13213  TIP3      H2             27.9898280187       30.5293381489      -62.7088745676  TIP3      13021           0.0000000000
     61316     13214  TIP3      OH2            33.5856131394       31.3252003131      -65.2177546481  TIP3      13022           0.0000000000
     61317     13214  TIP3      H1             34.3651875469       31.9342812062      -65.2780117131  TIP3      13022           0.0000000000
     61318     13214  TIP3      H2             32.9159861263       32.0305571231      -65.1639926934  TIP3      13022           0.0000000000
     61319     13215  TIP3      OH2            22.1251861146       28.7641000216      -62.6038793714  TIP3      13023           0.0000000000
     61320     13215  TIP3      H1             22.5332646636       27.8954395654      -62.6976249403  TIP3      13023           0.0000000000
     61321     13215  TIP3      H2             21.8842512912       28.7595589979      -61.6632207614  TIP3      13023           0.0000000000
     61322     13216  TIP3      OH2            26.7753516923       29.9141570890      -77.5485473341  TIP3      13024           0.0000000000
     61323     13216  TIP3      H1             26.2756424938       29.3655785883      -76.9196340980  TIP3      13024           0.0000000000
     61324     13216  TIP3      H2             27.0823672235       29.2376777559      -78.1961702422  TIP3      13024           0.0000000000
     61325     13217  TIP3      OH2            26.0143055276       27.6946273971      -65.2502308963  TIP3      13025           0.0000000000
     61326     13217  TIP3      H1             25.4188808070       28.4167520820      -64.9931654345  TIP3      13025           0.0000000000
     61327     13217  TIP3      H2             26.4143041807       28.0624554282      -66.0574071794  TIP3      13025           0.0000000000
     61328     13218  TIP3      OH2            27.8509544366       28.0729072113      -79.3417947402  TIP3      13026           0.0000000000
     61329     13218  TIP3      H1             27.7260124071       27.9719991733      -80.2969366640  TIP3      13026           0.0000000000
     61330     13218  TIP3      H2             28.8307393822       28.1621749007      -79.2523937896  TIP3      13026           0.0000000000
     61331     13219  TIP3      OH2            31.0907463993       30.2646648461      -61.9136179747  TIP3      13027           0.0000000000
     61332     13219  TIP3      H1             32.0490440082       30.2526220258      -62.0075759470  TIP3      13027           0.0000000000
     61333     13219  TIP3      H2             30.9326664902       29.4921883977      -61.3526087145  TIP3      13027           0.0000000000
     61334     13220  TIP3      OH2            26.4243990401       25.0713964907      -64.1919315148  TIP3      13028           0.0000000000
     61335     13220  TIP3      H1             26.5398593807       24.3628707147      -64.8518252219  TIP3      13028           0.0000000000
     61336     13220  TIP3      H2             26.3785229087       25.8824779009      -64.7406784800  TIP3      13028           0.0000000000
     61337     13221  TIP3      OH2            26.8269202431       23.4544833503      -66.6386023391  TIP3      13029           0.0000000000
     61338     13221  TIP3      H1             27.3354364907       23.9194656516      -67.3456127329  TIP3      13029           0.0000000000
     61339     13221  TIP3      H2             25.9334655846       23.3765239122      -67.0447400973  TIP3      13029           0.0000000000
     61340     13222  TIP3      OH2            28.3591312002       28.9252753391      -66.4068974431  TIP3      13030           0.0000000000
     61341     13222  TIP3      H1             29.1226808747       28.7781098827      -66.9686174182  TIP3      13030           0.0000000000
     61342     13222  TIP3      H2             28.0120946132       29.7754009794      -66.7239098503  TIP3      13030           0.0000000000
     61343     13223  TIP3      OH2            32.8157369699       26.7249843276      -61.4229463740  TIP3      13031           0.0000000000
     61344     13223  TIP3      H1             33.0370407439       25.7874053916      -61.5371657636  TIP3      13031           0.0000000000
     61345     13223  TIP3      H2             33.6885281018       27.1432388964      -61.4649224397  TIP3      13031           0.0000000000
     61346     13224  TIP3      OH2            34.1178215308       29.5312401011      -63.2657517151  TIP3      13032           0.0000000000
     61347     13224  TIP3      H1             33.8237274395       30.2197510522      -63.9034898622  TIP3      13032           0.0000000000
     61348     13224  TIP3      H2             35.0484846607       29.4353772893      -63.4744910814  TIP3      13032           0.0000000000
     61349     13225  TIP3      OH2            24.8844869996       26.3190444067      -62.2685510313  TIP3      13033           0.0000000000
     61350     13225  TIP3      H1             24.1136316074       25.7451401269      -62.4418784350  TIP3      13033           0.0000000000
     61351     13225  TIP3      H2             25.5377448696       25.9545288173      -62.8937046191  TIP3      13033           0.0000000000
     61352     13226  TIP3      OH2            27.6164802328       20.8901067265      -66.2507735003  TIP3      13034           0.0000000000
     61353     13226  TIP3      H1             27.4339583909       21.8537566875      -66.3447246744  TIP3      13034           0.0000000000
     61354     13226  TIP3      H2             26.8668965125       20.5247957216      -66.7528406429  TIP3      13034           0.0000000000
     61355     13227  TIP3      OH2            28.8857135873       25.2209145708      -62.6212922997  TIP3      13035           0.0000000000
     61356     13227  TIP3      H1             28.5704310880       24.9886165318      -61.7266227965  TIP3      13035           0.0000000000
     61357     13227  TIP3      H2             28.1048752531       25.0185819117      -63.1643207356  TIP3      13035           0.0000000000
     61358     13228  TIP3      OH2            31.5641465946       24.3868648877      -63.5257252510  TIP3      13036           0.0000000000
     61359     13228  TIP3      H1             30.6022638763       24.4078820859      -63.4036172236  TIP3      13036           0.0000000000
     61360     13228  TIP3      H2             31.8832016887       23.7371471075      -62.8734208442  TIP3      13036           0.0000000000
     61361     13229  TIP3      OH2            33.2820919029       22.9578722319      -61.5961549770  TIP3      13037           0.0000000000
     61362     13229  TIP3      H1             33.1299565812       21.9893947291      -61.6013216732  TIP3      13037           0.0000000000
     61363     13229  TIP3      H2             32.9239286616       23.2697137069      -60.7412557371  TIP3      13037           0.0000000000
     61364     13230  TIP3      OH2            22.9603832129       24.2606423304      -62.5205611788  TIP3      13038           0.0000000000
     61365     13230  TIP3      H1             23.2116618529       23.5245516039      -63.1053102122  TIP3      13038           0.0000000000
     61366     13230  TIP3      H2             22.8714085420       23.8140854451      -61.6605220685  TIP3      13038           0.0000000000
     61367     13231  TIP3      OH2            27.8297181858       20.2847945245      -63.5502374876  TIP3      13039           0.0000000000
     61368     13231  TIP3      H1             28.5093304164       19.5814755521      -63.5671633115  TIP3      13039           0.0000000000
     61369     13231  TIP3      H2             27.7151497949       20.4272705836      -64.5104820555  TIP3      13039           0.0000000000
     61370     13232  TIP3      OH2            28.1926282534       21.8986493237      -61.4340570111  TIP3      13040           0.0000000000
     61371     13232  TIP3      H1             28.0184574911       21.3913988043      -62.2658994094  TIP3      13040           0.0000000000
     61372     13232  TIP3      H2             27.5921711427       22.6618755054      -61.5351755950  TIP3      13040           0.0000000000
     61373     13233  TIP3      OH2            21.2467077349       33.3856950065      -78.7679503614  TIP3      13041           0.0000000000
     61374     13233  TIP3      H1             22.2040808504       33.5165845780      -78.5744863123  TIP3      13041           0.0000000000
     61375     13233  TIP3      H2             21.2956353206       32.8256855411      -79.5501815623  TIP3      13041           0.0000000000
     61376     13234  TIP3      OH2            36.2618761150       34.9517686498      -66.7527835194  TIP3      13042           0.0000000000
     61377     13234  TIP3      H1             35.5850477122       35.3855824775      -66.2278369594  TIP3      13042           0.0000000000
     61378     13234  TIP3      H2             35.7463036212       34.5884149122      -67.5054446257  TIP3      13042           0.0000000000
     61379     13235  TIP3      OH2            35.3650769200       27.9699938880      -73.4204877225  TIP3      13043           0.0000000000
     61380     13235  TIP3      H1             35.6206968125       27.0417199351      -73.3864833692  TIP3      13043           0.0000000000
     61381     13235  TIP3      H2             35.4821789726       28.2261078003      -72.4827701321  TIP3      13043           0.0000000000
     61382     13236  TIP3      OH2            20.8745455680       29.9848798296      -69.4549315977  TIP3      13044           0.0000000000
     61383     13236  TIP3      H1             21.0512916831       29.8993000480      -70.4182843698  TIP3      13044           0.0000000000
     61384     13236  TIP3      H2             21.7676854947       29.8061865739      -69.1018142376  TIP3      13044           0.0000000000
     61385     13237  TIP3      OH2            35.5067212728       25.4242448334      -75.2151936489  TIP3      13045           0.0000000000
     61386     13237  TIP3      H1             35.7877580251       24.5783711506      -74.8184086892  TIP3      13045           0.0000000000
     61387     13237  TIP3      H2             36.3453913352       25.7623088668      -75.5497243016  TIP3      13045           0.0000000000
     61388     13238  TIP3      OH2           -37.0500216764       25.1886236754      -69.6129656909  TIP3      13046           0.0000000000
     61389     13238  TIP3      H1            -36.1638734829       25.5396919457      -69.7553567875  TIP3      13046           0.0000000000
     61390     13238  TIP3      H2            -37.2708081853       25.8313512179      -68.9175929425  TIP3      13046           0.0000000000
     61391     13239  TIP3      OH2            36.2593550605       26.8006173038      -66.5794344057  TIP3      13047           0.0000000000
     61392     13239  TIP3      H1             35.3242320016       27.0702624823      -66.4896380449  TIP3      13047           0.0000000000
     61393     13239  TIP3      H2             36.6201532581       27.4893754843      -67.1699951251  TIP3      13047           0.0000000000
     61394     13240  TIP3      OH2            20.4945149967       25.2910048032      -63.2958715263  TIP3      13048           0.0000000000
     61395     13240  TIP3      H1             21.4302746902       25.0706159122      -63.1094682079  TIP3      13048           0.0000000000
     61396     13240  TIP3      H2             20.0309786971       24.4662735902      -63.0383159510  TIP3      13048           0.0000000000
     61397     13241  TIP3      OH2            35.2964441540       22.4349736590      -74.3580387031  TIP3      13049           0.0000000000
     61398     13241  TIP3      H1             36.2403527546       22.2932187860      -74.1607271348  TIP3      13049           0.0000000000
     61399     13241  TIP3      H2             35.3175905369       22.0356950304      -75.2511705913  TIP3      13049           0.0000000000
     61400     13242  TIP3      OH2            21.6888236169       23.5612852810      -70.4614393550  TIP3      13050           0.0000000000
     61401     13242  TIP3      H1             22.1543506230       22.7436360285      -70.1909587482  TIP3      13050           0.0000000000
     61402     13242  TIP3      H2             22.2357156311       24.2568033855      -70.0757812952  TIP3      13050           0.0000000000
     61403     13243  TIP3      OH2            19.9759785598       26.5825651308      -69.4122709283  TIP3      13051           0.0000000000
     61404     13243  TIP3      H1             20.5366112322       26.3277846550      -70.1725508212  TIP3      13051           0.0000000000
     61405     13243  TIP3      H2             20.4466104562       27.3856659391      -69.1454965096  TIP3      13051           0.0000000000
     61406     13244  TIP3      OH2            20.3271891796       23.0469964508      -75.2405021588  TIP3      13052           0.0000000000
     61407     13244  TIP3      H1             19.4041109400       22.9700200418      -75.5152240942  TIP3      13052           0.0000000000
     61408     13244  TIP3      H2             20.7544225403       23.2837217479      -76.0779146158  TIP3      13052           0.0000000000
     61409     13245  TIP3      OH2            20.2875578595       21.4850294736      -67.0505016215  TIP3      13053           0.0000000000
     61410     13245  TIP3      H1             19.6205311506       21.2957931447      -66.3670416029  TIP3      13053           0.0000000000
     61411     13245  TIP3      H2             19.8311280964       22.1623732024      -67.5905425136  TIP3      13053           0.0000000000
     61412     13246  TIP3      OH2            22.5223085739       34.7467419357      -62.8675360688  TIP3      13054           0.0000000000
     61413     13246  TIP3      H1             21.6724881004       34.8849119040      -63.3246093184  TIP3      13054           0.0000000000
     61414     13246  TIP3      H2             22.2466091970       34.5801445915      -61.9607145802  TIP3      13054           0.0000000000
     61415     13247  TIP3      OH2            25.4657976428       35.6805985936      -66.5359209929  TIP3      13055           0.0000000000
     61416     13247  TIP3      H1             25.0303228981       36.4640702341      -66.9031105549  TIP3      13055           0.0000000000
     61417     13247  TIP3      H2             26.3422718211       35.6720593349      -66.9567842739  TIP3      13055           0.0000000000
     61418     13248  TIP3      OH2            24.6160665213       36.0380014244      -71.2435059466  TIP3      13056           0.0000000000
     61419     13248  TIP3      H1             24.2422656719       35.2738634376      -70.7775738688  TIP3      13056           0.0000000000
     61420     13248  TIP3      H2             25.2027293105       36.4003303424      -70.5544760985  TIP3      13056           0.0000000000
     61421     13249  TIP3      OH2            30.4228330262       22.4293893143      -71.0013426932  TIP3      13057           0.0000000000
     61422     13249  TIP3      H1             29.7611695142       21.7790402576      -70.7174817233  TIP3      13057           0.0000000000
     61423     13249  TIP3      H2             30.9908918956       21.9021055059      -71.5782785003  TIP3      13057           0.0000000000
     61424     13250  TIP3      OH2            35.5903854136       20.4633311531      -70.9231470043  TIP3      13058           0.0000000000
     61425     13250  TIP3      H1             36.1683218908       21.0880637078      -71.3698415880  TIP3      13058           0.0000000000
     61426     13250  TIP3      H2             34.6986698585       20.8220034086      -71.1387854727  TIP3      13058           0.0000000000
     61427     13251  TIP3      OH2            22.8081978390       21.0460481872      -73.1477616649  TIP3      13059           0.0000000000
     61428     13251  TIP3      H1             22.0157818928       20.8636172695      -73.6914116292  TIP3      13059           0.0000000000
     61429     13251  TIP3      H2             23.2692438741       20.1902185177      -73.2172006112  TIP3      13059           0.0000000000
     61430     13252  TIP3      OH2            21.9578383890       20.9544800662      -77.5449023297  TIP3      13060           0.0000000000
     61431     13252  TIP3      H1             22.1279050722       21.7017166452      -78.1182389266  TIP3      13060           0.0000000000
     61432     13252  TIP3      H2             21.1664019337       21.2112150572      -76.9832104803  TIP3      13060           0.0000000000
     61433     13253  TIP3      OH2            27.2833061010       20.9743164289      -73.3663663669  TIP3      13061           0.0000000000
     61434     13253  TIP3      H1             28.1821185171       21.3371962341      -73.4392642450  TIP3      13061           0.0000000000
     61435     13253  TIP3      H2             27.2476387568       20.7559149656      -72.4366080900  TIP3      13061           0.0000000000
     61436     13254  TIP3      OH2            33.0211598608       20.9516882638      -71.7381714811  TIP3      13062           0.0000000000
     61437     13254  TIP3      H1             32.9647050108       21.1349943856      -72.6830008158  TIP3      13062           0.0000000000
     61438     13254  TIP3      H2             32.5884310117       20.0704121293      -71.6281231031  TIP3      13062           0.0000000000
     61439     13255  TIP3      OH2            34.2250165488       20.9355103625      -76.2344981919  TIP3      13063           0.0000000000
     61440     13255  TIP3      H1             33.5381310873       21.6192655402      -76.1985611160  TIP3      13063           0.0000000000
     61441     13255  TIP3      H2             33.7687228898       20.1537865062      -75.8508000312  TIP3      13063           0.0000000000
     61442     13256  TIP3      OH2            23.4392547761       22.7239487525      -78.9358412749  TIP3      13064           0.0000000000
     61443     13256  TIP3      H1             23.9606487208       22.1027798654      -79.4405724752  TIP3      13064           0.0000000000
     61444     13256  TIP3      H2             24.0650125209       23.0653169749      -78.2751900532  TIP3      13064           0.0000000000
     61445     13257  TIP3      OH2            28.4401647131       22.9789346590      -76.5165344094  TIP3      13065           0.0000000000
     61446     13257  TIP3      H1             28.7029258919       22.4176419539      -75.7665567385  TIP3      13065           0.0000000000
     61447     13257  TIP3      H2             28.5063382290       23.8506197125      -76.0568616205  TIP3      13065           0.0000000000
     61448     13258  TIP3      OH2            22.6991531671       21.5939540633      -63.7020164905  TIP3      13066           0.0000000000
     61449     13258  TIP3      H1             22.3118062027       20.7970764510      -63.2964272659  TIP3      13066           0.0000000000
     61450     13258  TIP3      H2             23.6093145866       21.5505042246      -63.3215833718  TIP3      13066           0.0000000000
     61451     13259  TIP3      OH2            24.7011018903       20.9766564245      -62.0603710151  TIP3      13067           0.0000000000
     61452     13259  TIP3      H1             25.5945188948       20.6383624991      -62.2747820603  TIP3      13067           0.0000000000
     61453     13259  TIP3      H2             24.3282213322       20.1706531214      -61.6527199212  TIP3      13067           0.0000000000
     61454     13260  TIP3      OH2            33.1038205091       20.2815529194      -61.9311186371  TIP3      13068           0.0000000000
     61455     13260  TIP3      H1             33.1923705025       19.8122578430      -61.0753723650  TIP3      13068           0.0000000000
     61456     13260  TIP3      H2             34.0265984533       20.2630231023      -62.2714508516  TIP3      13068           0.0000000000
     61457     13261  TIP3      OH2            36.2440463153      -36.7493934323      -63.1427851221  TIP3      13069           0.0000000000
     61458     13261  TIP3      H1             35.5501864170      -36.9257896215      -63.7920003557  TIP3      13069           0.0000000000
     61459     13261  TIP3      H2             36.2350381460      -35.7787665135      -63.1051363557  TIP3      13069           0.0000000000
     61460     13262  TIP3      OH2           -24.6644509588      -26.3811910850      -54.4512226690  TIP3      13070           0.0000000000
     61461     13262  TIP3      H1            -24.6825387749      -25.3995844086      -54.4676163130  TIP3      13070           0.0000000000
     61462     13262  TIP3      H2            -25.3969863331      -26.6120150052      -55.0436926691  TIP3      13070           0.0000000000
     61463     13263  TIP3      OH2           -25.8144874358      -27.1258942199      -50.9387441800  TIP3      13071           0.0000000000
     61464     13263  TIP3      H1            -25.8237821948      -27.7728320827      -50.2210995041  TIP3      13071           0.0000000000
     61465     13263  TIP3      H2            -26.1603294745      -27.6336030964      -51.6916159493  TIP3      13071           0.0000000000
     61466     13264  TIP3      OH2           -33.4039263727      -27.4591396201      -49.4230642846  TIP3      13072           0.0000000000
     61467     13264  TIP3      H1            -33.3468822394      -28.1321724532      -48.7107314793  TIP3      13072           0.0000000000
     61468     13264  TIP3      H2            -32.7037431391      -26.8524347347      -49.1451682741  TIP3      13072           0.0000000000
     61469     13265  TIP3      OH2           -22.1258675867      -24.1734140866      -52.6550240788  TIP3      13073           0.0000000000
     61470     13265  TIP3      H1            -22.5376731101      -24.8910397479      -52.1634631861  TIP3      13073           0.0000000000
     61471     13265  TIP3      H2            -22.1005534686      -23.4657750765      -51.9844572506  TIP3      13073           0.0000000000
     61472     13266  TIP3      OH2           -32.5362391022      -23.0159331010      -50.8698894441  TIP3      13074           0.0000000000
     61473     13266  TIP3      H1            -32.8501484335      -23.8722954193      -51.2153468275  TIP3      13074           0.0000000000
     61474     13266  TIP3      H2            -31.5780580123      -23.1842727584      -50.8476880780  TIP3      13074           0.0000000000
     61475     13267  TIP3      OH2           -35.6187308155      -29.4527804955      -55.8121331412  TIP3      13075           0.0000000000
     61476     13267  TIP3      H1            -36.0628823479      -28.6533338767      -55.4377926378  TIP3      13075           0.0000000000
     61477     13267  TIP3      H2            -36.4123080520      -29.9829448531      -55.8159347474  TIP3      13075           0.0000000000
     61478     13268  TIP3      OH2           -35.2160736774      -27.2688424121      -53.2979121196  TIP3      13076           0.0000000000
     61479     13268  TIP3      H1            -34.9222197078      -28.0328377889      -52.7762139361  TIP3      13076           0.0000000000
     61480     13268  TIP3      H2            -34.4783508770      -27.1074806178      -53.9003493266  TIP3      13076           0.0000000000
     61481     13269  TIP3      OH2           -25.0062929579      -19.0152850445      -52.4166356887  TIP3      13077           0.0000000000
     61482     13269  TIP3      H1            -24.3571021572      -19.7036406785      -52.7043299897  TIP3      13077           0.0000000000
     61483     13269  TIP3      H2            -25.2214989543      -19.3525541248      -51.5473251186  TIP3      13077           0.0000000000
     61484     13270  TIP3      OH2           -27.4371090408      -24.7231547342      -50.4647227022  TIP3      13078           0.0000000000
     61485     13270  TIP3      H1            -27.0982714535      -25.3497179823      -51.1247721144  TIP3      13078           0.0000000000
     61486     13270  TIP3      H2            -26.6251145352      -24.5654344290      -49.9514346110  TIP3      13078           0.0000000000
     61487     13271  TIP3      OH2           -18.8508929327      -33.0685967378      -49.7462667201  TIP3      13079           0.0000000000
     61488     13271  TIP3      H1            -18.6593359314      -32.4950806860      -48.9688998088  TIP3      13079           0.0000000000
     61489     13271  TIP3      H2            -18.2855218761      -32.6433940218      -50.4055898315  TIP3      13079           0.0000000000
     61490     13272  TIP3      OH2           -24.2663462031      -30.2548883976      -50.1426842068  TIP3      13080           0.0000000000
     61491     13272  TIP3      H1            -24.1112353921      -31.2210296805      -50.1429656458  TIP3      13080           0.0000000000
     61492     13272  TIP3      H2            -24.3721642188      -30.1087888089      -51.1037084309  TIP3      13080           0.0000000000
     61493     13273  TIP3      OH2           -31.1414423348      -32.1461177698      -52.9291341342  TIP3      13081           0.0000000000
     61494     13273  TIP3      H1            -31.0346234199      -31.3237609786      -53.4408385522  TIP3      13081           0.0000000000
     61495     13273  TIP3      H2            -31.5384534854      -32.7236110423      -53.6108514101  TIP3      13081           0.0000000000
     61496     13274  TIP3      OH2           -23.4124361733      -32.1100013594      -54.5653551800  TIP3      13082           0.0000000000
     61497     13274  TIP3      H1            -22.7587990382      -32.3844567151      -53.8839532022  TIP3      13082           0.0000000000
     61498     13274  TIP3      H2            -22.8638435941      -31.5185073597      -55.0982079763  TIP3      13082           0.0000000000
     61499     13275  TIP3      OH2           -34.5639025506      -29.8334695553      -52.2645256138  TIP3      13083           0.0000000000
     61500     13275  TIP3      H1            -33.8396342196      -30.3052619897      -51.7970646221  TIP3      13083           0.0000000000
     61501     13275  TIP3      H2            -34.3823390400      -30.1181380874      -53.1695438882  TIP3      13083           0.0000000000
     61502     13276  TIP3      OH2           -29.3776380098      -28.2005025364      -52.8844571951  TIP3      13084           0.0000000000
     61503     13276  TIP3      H1            -28.7017011521      -28.7796208483      -52.4894239820  TIP3      13084           0.0000000000
     61504     13276  TIP3      H2            -29.8912231575      -28.8593391706      -53.3910739098  TIP3      13084           0.0000000000
     61505     13277  TIP3      OH2           -18.3990853245      -31.6684104573      -47.4724222036  TIP3      13085           0.0000000000
     61506     13277  TIP3      H1            -19.0126569709      -30.9106071926      -47.5705834096  TIP3      13085           0.0000000000
     61507     13277  TIP3      H2            -18.3647709710      -31.7650874397      -46.5139933342  TIP3      13085           0.0000000000
     61508     13278  TIP3      OH2           -32.2069806065      -33.2205532931      -48.9165747401  TIP3      13086           0.0000000000
     61509     13278  TIP3      H1            -32.5444548430      -32.6695667807      -49.6516165355  TIP3      13086           0.0000000000
     61510     13278  TIP3      H2            -32.9085096014      -33.0409069764      -48.2374390643  TIP3      13086           0.0000000000
     61511     13279  TIP3      OH2           -24.9577532001      -23.7880896495      -55.3524744547  TIP3      13087           0.0000000000
     61512     13279  TIP3      H1            -25.2196749249      -24.0582698979      -56.2418638965  TIP3      13087           0.0000000000
     61513     13279  TIP3      H2            -25.2637950125      -22.8530394881      -55.3009859314  TIP3      13087           0.0000000000
     61514     13280  TIP3      OH2           -29.7076870338      -25.6219691149      -48.6593291116  TIP3      13088           0.0000000000
     61515     13280  TIP3      H1            -30.4263583036      -24.9877771267      -48.4408138121  TIP3      13088           0.0000000000
     61516     13280  TIP3      H2            -29.0137422289      -25.0160137129      -48.9542665991  TIP3      13088           0.0000000000
     61517     13281  TIP3      OH2           -21.5956788502      -32.7564456090      -52.5890060175  TIP3      13089           0.0000000000
     61518     13281  TIP3      H1            -21.8461275169      -33.4956103631      -52.0233438239  TIP3      13089           0.0000000000
     61519     13281  TIP3      H2            -20.9349838040      -32.3053317365      -52.0383279330  TIP3      13089           0.0000000000
     61520     13282  TIP3      OH2           -32.7106599624      -31.3784544456      -50.8849274694  TIP3      13090           0.0000000000
     61521     13282  TIP3      H1            -32.0657381921      -30.7238131420      -50.5331881905  TIP3      13090           0.0000000000
     61522     13282  TIP3      H2            -32.1640048690      -31.8040626238      -51.5973373279  TIP3      13090           0.0000000000
     61523     13283  TIP3      OH2           -31.2955581106      -23.6339766494      -47.8540749049  TIP3      13091           0.0000000000
     61524     13283  TIP3      H1            -31.3375509508      -22.7107988084      -48.1748112120  TIP3      13091           0.0000000000
     61525     13283  TIP3      H2            -32.1745490657      -23.7104837740      -47.4097341700  TIP3      13091           0.0000000000
     61526     13284  TIP3      OH2           -35.2379410283      -23.9714716918      -57.0923322507  TIP3      13092           0.0000000000
     61527     13284  TIP3      H1            -35.4395742302      -23.6367891480      -57.9804019666  TIP3      13092           0.0000000000
     61528     13284  TIP3      H2            -35.1294051226      -23.1626517358      -56.5570607702  TIP3      13092           0.0000000000
     61529     13285  TIP3      OH2           -21.5972665601      -22.3352112446      -50.2867434174  TIP3      13093           0.0000000000
     61530     13285  TIP3      H1            -22.5651648232      -22.2236839933      -50.1679166694  TIP3      13093           0.0000000000
     61531     13285  TIP3      H2            -21.3269945131      -21.4199170878      -50.4904188868  TIP3      13093           0.0000000000
     61532     13286  TIP3      OH2           -21.2382026200      -34.0539539394      -48.8384768949  TIP3      13094           0.0000000000
     61533     13286  TIP3      H1            -21.9869198219      -33.4660154645      -48.9942819799  TIP3      13094           0.0000000000
     61534     13286  TIP3      H2            -20.5509359727      -33.6488195569      -49.4070651660  TIP3      13094           0.0000000000
     61535     13287  TIP3      OH2           -28.3393947014      -35.9245834856      -51.6049538698  TIP3      13095           0.0000000000
     61536     13287  TIP3      H1            -28.3453005400      -36.8808945148      -51.4431601959  TIP3      13095           0.0000000000
     61537     13287  TIP3      H2            -29.1285360171      -35.6618545001      -51.1039717008  TIP3      13095           0.0000000000
     61538     13288  TIP3      OH2           -23.3347059187      -20.5507501006      -53.7008794673  TIP3      13096           0.0000000000
     61539     13288  TIP3      H1            -22.9081326119      -21.2714284531      -54.2085786897  TIP3      13096           0.0000000000
     61540     13288  TIP3      H2            -22.9006160192      -19.7626930029      -54.0912869278  TIP3      13096           0.0000000000
     61541     13289  TIP3      OH2           -22.1209534647      -22.6255706243      -55.1795651733  TIP3      13097           0.0000000000
     61542     13289  TIP3      H1            -22.4242049894      -23.3219698570      -55.7835267504  TIP3      13097           0.0000000000
     61543     13289  TIP3      H2            -22.0889940260      -23.1162412479      -54.3387560726  TIP3      13097           0.0000000000
     61544     13290  TIP3      OH2           -20.5118468538      -24.0285297980      -46.6870461076  TIP3      13098           0.0000000000
     61545     13290  TIP3      H1            -20.3596773036      -24.6828463678      -47.4046269454  TIP3      13098           0.0000000000
     61546     13290  TIP3      H2            -20.2974928680      -23.1884170235      -47.1307301041  TIP3      13098           0.0000000000
     61547     13291  TIP3      OH2           -26.0090408396      -27.1537112240      -56.9297275720  TIP3      13099           0.0000000000
     61548     13291  TIP3      H1            -26.7024292750      -26.5686425208      -57.2839556481  TIP3      13099           0.0000000000
     61549     13291  TIP3      H2            -25.2988744495      -27.0420497929      -57.5879483721  TIP3      13099           0.0000000000
     61550     13292  TIP3      OH2           -25.9279379780      -28.5715916138      -59.9154291197  TIP3      13100           0.0000000000
     61551     13292  TIP3      H1            -25.2206233777      -28.5864531681      -59.2524007722  TIP3      13100           0.0000000000
     61552     13292  TIP3      H2            -25.6224404651      -29.2901396464      -60.4842363637  TIP3      13100           0.0000000000
     61553     13293  TIP3      OH2           -18.6209616569      -27.7175679010      -48.6471931021  TIP3      13101           0.0000000000
     61554     13293  TIP3      H1            -19.2772494766      -26.9930769050      -48.6052118352  TIP3      13101           0.0000000000
     61555     13293  TIP3      H2            -18.1237543053      -27.4832596316      -49.4534431119  TIP3      13101           0.0000000000
     61556     13294  TIP3      OH2           -22.5582920363      -26.9414876638      -56.0047847913  TIP3      13102           0.0000000000
     61557     13294  TIP3      H1            -23.2999229961      -26.6903357152      -55.4045111946  TIP3      13102           0.0000000000
     61558     13294  TIP3      H2            -22.0854465558      -27.6097841518      -55.4789355727  TIP3      13102           0.0000000000
     61559     13295  TIP3      OH2           -22.6374889989      -28.7693425209      -46.8746689144  TIP3      13103           0.0000000000
     61560     13295  TIP3      H1            -22.6260933075      -27.9468646028      -46.3566605170  TIP3      13103           0.0000000000
     61561     13295  TIP3      H2            -23.2622195931      -28.4747985085      -47.5696875748  TIP3      13103           0.0000000000
     61562     13296  TIP3      OH2           -30.9295263201      -26.2600386708      -54.0830640748  TIP3      13104           0.0000000000
     61563     13296  TIP3      H1            -31.2828937476      -26.6640358518      -54.9134472069  TIP3      13104           0.0000000000
     61564     13296  TIP3      H2            -30.3279094028      -26.9643143745      -53.7514823416  TIP3      13104           0.0000000000
     61565     13297  TIP3      OH2           -29.6285342441      -22.8918426801      -51.4090596437  TIP3      13105           0.0000000000
     61566     13297  TIP3      H1            -29.6329032772      -23.4136739118      -52.2191327260  TIP3      13105           0.0000000000
     61567     13297  TIP3      H2            -28.8460754030      -23.2454668156      -50.9483648463  TIP3      13105           0.0000000000
     61568     13298  TIP3      OH2           -30.5905840030      -27.5307058683      -50.4241998673  TIP3      13106           0.0000000000
     61569     13298  TIP3      H1            -30.0578969886      -27.4180628839      -51.2328221027  TIP3      13106           0.0000000000
     61570     13298  TIP3      H2            -30.2313314749      -26.8480355604      -49.8136477874  TIP3      13106           0.0000000000
     61571     13299  TIP3      OH2           -24.2136487337      -21.9494529299      -49.7209828441  TIP3      13107           0.0000000000
     61572     13299  TIP3      H1            -24.4923521276      -21.3136631955      -49.0559447477  TIP3      13107           0.0000000000
     61573     13299  TIP3      H2            -24.4638314051      -22.8042307834      -49.2953692394  TIP3      13107           0.0000000000
     61574     13300  TIP3      OH2           -29.6682807667      -23.0960625501      -45.7283659242  TIP3      13108           0.0000000000
     61575     13300  TIP3      H1            -30.0830036305      -22.3542536146      -45.2404629920  TIP3      13108           0.0000000000
     61576     13300  TIP3      H2            -30.3378771149      -23.2914497221      -46.4272971537  TIP3      13108           0.0000000000
     61577     13301  TIP3      OH2           -23.6831360933      -27.7270964677      -58.3384619675  TIP3      13109           0.0000000000
     61578     13301  TIP3      H1            -23.1273437764      -27.5538135241      -57.5379379263  TIP3      13109           0.0000000000
     61579     13301  TIP3      H2            -23.2313924548      -27.2334285942      -59.0596667115  TIP3      13109           0.0000000000
     61580     13302  TIP3      OH2           -32.7308200615      -26.9229664935      -46.5482499415  TIP3      13110           0.0000000000
     61581     13302  TIP3      H1            -32.6843677366      -26.2408992778      -45.8559346873  TIP3      13110           0.0000000000
     61582     13302  TIP3      H2            -33.6701982611      -26.8354592998      -46.7821323164  TIP3      13110           0.0000000000
     61583     13303  TIP3      OH2           -25.9723691113      -21.0056185960      -54.8653200505  TIP3      13111           0.0000000000
     61584     13303  TIP3      H1            -25.5407126028      -20.6990492280      -54.0590544029  TIP3      13111           0.0000000000
     61585     13303  TIP3      H2            -26.5294483178      -20.2566238917      -55.1037009969  TIP3      13111           0.0000000000
     61586     13304  TIP3      OH2           -31.4204508013      -21.0724914930      -44.9831206160  TIP3      13112           0.0000000000
     61587     13304  TIP3      H1            -31.4961138232      -21.1523446138      -45.9512230602  TIP3      13112           0.0000000000
     61588     13304  TIP3      H2            -32.3538731079      -21.1967369412      -44.7185056243  TIP3      13112           0.0000000000
     61589     13305  TIP3      OH2           -19.9957924594      -35.8510117838      -58.6846166390  TIP3      13113           0.0000000000
     61590     13305  TIP3      H1            -20.8515874021      -35.8120865902      -58.2215094257  TIP3      13113           0.0000000000
     61591     13305  TIP3      H2            -19.7544251815      -34.9395372744      -58.8960389716  TIP3      13113           0.0000000000
     61592     13306  TIP3      OH2           -31.9675440926      -27.2558280181      -56.4555136014  TIP3      13114           0.0000000000
     61593     13306  TIP3      H1            -32.2535678910      -26.4752503220      -56.9729807588  TIP3      13114           0.0000000000
     61594     13306  TIP3      H2            -32.6207323237      -27.9177697801      -56.6933832139  TIP3      13114           0.0000000000
     61595     13307  TIP3      OH2           -18.8474885534      -21.6443857275      -60.0842657887  TIP3      13115           0.0000000000
     61596     13307  TIP3      H1            -18.6807715670      -20.7011777364      -59.9160061899  TIP3      13115           0.0000000000
     61597     13307  TIP3      H2            -17.9239962645      -21.9583116597      -60.0899802134  TIP3      13115           0.0000000000
     61598     13308  TIP3      OH2           -35.2945033627      -24.9496397774      -47.8278236074  TIP3      13116           0.0000000000
     61599     13308  TIP3      H1            -36.0672517203      -24.8243033728      -48.4193704551  TIP3      13116           0.0000000000
     61600     13308  TIP3      H2            -35.6666041321      -25.7356794024      -47.3652299474  TIP3      13116           0.0000000000
     61601     13309  TIP3      OH2           -35.8274677129      -21.8451700521      -51.0757564874  TIP3      13117           0.0000000000
     61602     13309  TIP3      H1            -35.0065309468      -22.2518899103      -50.7870936735  TIP3      13117           0.0000000000
     61603     13309  TIP3      H2            -36.1151728111      -21.3823873688      -50.2767110862  TIP3      13117           0.0000000000
     61604     13310  TIP3      OH2           -17.8845231615      -21.3808861522      -45.1054458112  TIP3      13118           0.0000000000
     61605     13310  TIP3      H1            -18.0064201818      -22.3408363453      -45.1353887630  TIP3      13118           0.0000000000
     61606     13310  TIP3      H2            -18.7554333979      -21.1396435424      -44.7150187177  TIP3      13118           0.0000000000
     61607     13311  TIP3      OH2           -26.9347821066      -21.8406003008      -46.2438497870  TIP3      13119           0.0000000000
     61608     13311  TIP3      H1            -26.8760955308      -20.9978072220      -45.7355819492  TIP3      13119           0.0000000000
     61609     13311  TIP3      H2            -27.8079159174      -22.1989758071      -45.9929141956  TIP3      13119           0.0000000000
     61610     13312  TIP3      OH2           -26.4903174398      -18.0984870153      -56.4552076376  TIP3      13120           0.0000000000
     61611     13312  TIP3      H1            -26.5959519422      -18.1792418013      -57.4205372986  TIP3      13120           0.0000000000
     61612     13312  TIP3      H2            -26.4894256237      -17.1358892003      -56.2987195850  TIP3      13120           0.0000000000
     61613     13313  TIP3      OH2           -32.8502840197      -19.2287784377      -54.6409125952  TIP3      13121           0.0000000000
     61614     13313  TIP3      H1            -32.7143087238      -19.6316454134      -53.7559098394  TIP3      13121           0.0000000000
     61615     13313  TIP3      H2            -33.6900247385      -19.6490803727      -54.8787750845  TIP3      13121           0.0000000000
     61616     13314  TIP3      OH2           -23.4372516196      -18.8838163142      -59.4702902935  TIP3      13122           0.0000000000
     61617     13314  TIP3      H1            -22.9823697811      -19.6421623615      -59.9044770861  TIP3      13122           0.0000000000
     61618     13314  TIP3      H2            -23.3975003143      -19.1455006310      -58.5269307452  TIP3      13122           0.0000000000
     61619     13315  TIP3      OH2           -23.7396503090      -18.9484540895      -56.6948412206  TIP3      13123           0.0000000000
     61620     13315  TIP3      H1            -24.7020740371      -18.8737059124      -56.5249222666  TIP3      13123           0.0000000000
     61621     13315  TIP3      H2            -23.5074794410      -19.6916847746      -56.1174983569  TIP3      13123           0.0000000000
     61622     13316  TIP3      OH2           -20.7422039739      -29.9306675982      -44.6293313322  TIP3      13124           0.0000000000
     61623     13316  TIP3      H1            -21.1984508641      -29.4600166313      -45.3466979078  TIP3      13124           0.0000000000
     61624     13316  TIP3      H2            -20.7591428468      -30.8459708090      -44.9447368990  TIP3      13124           0.0000000000
     61625     13317  TIP3      OH2           -33.5891253709      -23.4190096099      -46.5642284909  TIP3      13125           0.0000000000
     61626     13317  TIP3      H1            -33.4057639504      -23.8680331008      -45.7164141711  TIP3      13125           0.0000000000
     61627     13317  TIP3      H2            -34.4162695791      -23.8680843959      -46.8504285845  TIP3      13125           0.0000000000
     61628     13318  TIP3      OH2           -30.9448460426      -35.0528138361      -50.6555582723  TIP3      13126           0.0000000000
     61629     13318  TIP3      H1            -31.8412125013      -35.1270809869      -51.0458970288  TIP3      13126           0.0000000000
     61630     13318  TIP3      H2            -31.0598768842      -34.2018291776      -50.2031196461  TIP3      13126           0.0000000000
     61631     13319  TIP3      OH2           -26.3030459707      -35.3348878346      -47.2683232075  TIP3      13127           0.0000000000
     61632     13319  TIP3      H1            -25.8776679826      -35.7581715309      -46.5214855250  TIP3      13127           0.0000000000
     61633     13319  TIP3      H2            -27.2564132407      -35.4463168208      -47.1097586654  TIP3      13127           0.0000000000
     61634     13320  TIP3      OH2           -22.9943590950      -31.5573342940      -46.4113350931  TIP3      13128           0.0000000000
     61635     13320  TIP3      H1            -23.5766594369      -31.7096148733      -45.6324011423  TIP3      13128           0.0000000000
     61636     13320  TIP3      H2            -23.1583279231      -30.6282574866      -46.6588475225  TIP3      13128           0.0000000000
     61637     13321  TIP3      OH2           -22.2312283571      -26.7019492160      -60.5153984744  TIP3      13129           0.0000000000
     61638     13321  TIP3      H1            -22.2577876977      -26.8840233240      -61.4842427310  TIP3      13129           0.0000000000
     61639     13321  TIP3      H2            -21.3752584948      -26.2518841605      -60.4699767283  TIP3      13129           0.0000000000
     61640     13322  TIP3      OH2           -26.6367008199      -32.7844713591      -59.9980779757  TIP3      13130           0.0000000000
     61641     13322  TIP3      H1            -26.9628140146      -32.8556649820      -59.0889403066  TIP3      13130           0.0000000000
     61642     13322  TIP3      H2            -26.9542706764      -33.6539209533      -60.3110023899  TIP3      13130           0.0000000000
     61643     13323  TIP3      OH2           -30.8366071756      -30.0546364823      -49.4321076676  TIP3      13131           0.0000000000
     61644     13323  TIP3      H1            -31.5575191496      -30.0531050223      -48.7747658867  TIP3      13131           0.0000000000
     61645     13323  TIP3      H2            -30.8568391011      -29.1428519486      -49.7984321123  TIP3      13131           0.0000000000
     61646     13324  TIP3      OH2           -30.8409843821      -29.9284427528      -54.5692343335  TIP3      13132           0.0000000000
     61647     13324  TIP3      H1            -31.7821542127      -30.1691244133      -54.7083424481  TIP3      13132           0.0000000000
     61648     13324  TIP3      H2            -30.4676727772      -30.2322591686      -55.4173557701  TIP3      13132           0.0000000000
     61649     13325  TIP3      OH2           -25.3382074961      -29.4279594997      -55.7923114462  TIP3      13133           0.0000000000
     61650     13325  TIP3      H1            -25.7352654443      -28.6059453407      -56.1613284699  TIP3      13133           0.0000000000
     61651     13325  TIP3      H2            -24.6486085186      -29.6074263567      -56.4539226876  TIP3      13133           0.0000000000
     61652     13326  TIP3      OH2           -26.2839663105      -29.2214476017      -44.3593564378  TIP3      13134           0.0000000000
     61653     13326  TIP3      H1            -26.8137276890      -29.9956507181      -44.0493199257  TIP3      13134           0.0000000000
     61654     13326  TIP3      H2            -25.4481284468      -29.3468401832      -43.8805734119  TIP3      13134           0.0000000000
     61655     13327  TIP3      OH2           -24.3030684398      -29.9403445612      -52.9490851570  TIP3      13135           0.0000000000
     61656     13327  TIP3      H1            -24.5924120621      -29.3837905341      -53.6893155793  TIP3      13135           0.0000000000
     61657     13327  TIP3      H2            -24.2159119642      -30.7910992721      -53.4152410641  TIP3      13135           0.0000000000
     61658     13328  TIP3      OH2           -33.1788720670      -29.8095712725      -47.7449071583  TIP3      13136           0.0000000000
     61659     13328  TIP3      H1            -33.1648873547      -29.3929642974      -46.8702415247  TIP3      13136           0.0000000000
     61660     13328  TIP3      H2            -33.6764667520      -30.6167084029      -47.5488113784  TIP3      13136           0.0000000000
     61661     13329  TIP3      OH2           -29.8327760775      -32.3832572970      -60.8804334653  TIP3      13137           0.0000000000
     61662     13329  TIP3      H1            -30.2912281638      -32.8283274411      -60.1441064160  TIP3      13137           0.0000000000
     61663     13329  TIP3      H2            -30.5423512282      -31.9986310693      -61.4092713640  TIP3      13137           0.0000000000
     61664     13330  TIP3      OH2           -36.1746269072      -32.3834668966      -53.9604771651  TIP3      13138           0.0000000000
     61665     13330  TIP3      H1            -35.8289179236      -32.6977659322      -53.0945339573  TIP3      13138           0.0000000000
     61666     13330  TIP3      H2            -36.0255112346      -33.1314778836      -54.5225165502  TIP3      13138           0.0000000000
     61667     13331  TIP3      OH2           -35.2821273402      -31.8279162845      -58.4049448941  TIP3      13139           0.0000000000
     61668     13331  TIP3      H1            -34.7350959390      -31.2947069583      -59.0195504329  TIP3      13139           0.0000000000
     61669     13331  TIP3      H2            -36.0159795575      -31.2604775424      -58.1979311258  TIP3      13139           0.0000000000
     61670     13332  TIP3      OH2           -25.1152286576      -28.3586337596      -48.3968720864  TIP3      13140           0.0000000000
     61671     13332  TIP3      H1            -24.7305830469      -29.0469146632      -48.9789779873  TIP3      13140           0.0000000000
     61672     13332  TIP3      H2            -25.5785495741      -28.8885584782      -47.7232384436  TIP3      13140           0.0000000000
     61673     13333  TIP3      OH2           -28.3043992345      -32.3924419864      -53.5806973570  TIP3      13141           0.0000000000
     61674     13333  TIP3      H1            -29.2340785673      -32.3894281615      -53.2683379650  TIP3      13141           0.0000000000
     61675     13333  TIP3      H2            -27.8132959230      -32.5427309882      -52.7553016148  TIP3      13141           0.0000000000
     61676     13334  TIP3      OH2           -33.4826625976      -30.8321003232      -54.6932608647  TIP3      13142           0.0000000000
     61677     13334  TIP3      H1            -34.3567894470      -30.6709548984      -55.0929858649  TIP3      13142           0.0000000000
     61678     13334  TIP3      H2            -33.2195971143      -31.6663838906      -55.1198218425  TIP3      13142           0.0000000000
     61679     13335  TIP3      OH2           -29.8561870559      -30.7909023167      -57.0630275794  TIP3      13143           0.0000000000
     61680     13335  TIP3      H1            -28.8994515792      -30.6807340263      -56.9061269459  TIP3      13143           0.0000000000
     61681     13335  TIP3      H2            -30.1082542860      -30.0961162389      -57.7030440157  TIP3      13143           0.0000000000
     61682     13336  TIP3      OH2           -23.9013444138      -33.1711850433      -50.3242179051  TIP3      13144           0.0000000000
     61683     13336  TIP3      H1            -24.5903676677      -33.0914850953      -49.6305666122  TIP3      13144           0.0000000000
     61684     13336  TIP3      H2            -24.4032548357      -33.4362748018      -51.1064743688  TIP3      13144           0.0000000000
     61685     13337  TIP3      OH2           -31.1367565629      -29.6170830090      -59.4879470983  TIP3      13145           0.0000000000
     61686     13337  TIP3      H1            -31.6760111913      -29.9807663196      -60.2083600533  TIP3      13145           0.0000000000
     61687     13337  TIP3      H2            -30.3152687552      -29.4005149439      -59.9550905906  TIP3      13145           0.0000000000
     61688     13338  TIP3      OH2           -20.7028588575      -17.5080089402      -43.9931686942  TIP3      13146           0.0000000000
     61689     13338  TIP3      H1            -20.4361305569      -17.1243170500      -44.8475809766  TIP3      13146           0.0000000000
     61690     13338  TIP3      H2            -19.9785957539      -17.1879744231      -43.4345413291  TIP3      13146           0.0000000000
     61691     13339  TIP3      OH2           -33.0466383000      -25.0473421132      -44.4112880214  TIP3      13147           0.0000000000
     61692     13339  TIP3      H1            -32.3058508541      -24.8041952968      -43.8250270453  TIP3      13147           0.0000000000
     61693     13339  TIP3      H2            -33.7954428240      -24.9376457641      -43.8014145938  TIP3      13147           0.0000000000
     61694     13340  TIP3      OH2           -27.0236757150      -29.6345815514      -51.6705588746  TIP3      13148           0.0000000000
     61695     13340  TIP3      H1            -26.4216694048      -30.1751670521      -52.1964058155  TIP3      13148           0.0000000000
     61696     13340  TIP3      H2            -27.1739159200      -30.1764444584      -50.8832234806  TIP3      13148           0.0000000000
     61697     13341  TIP3      OH2           -32.0442485480      -33.4384393706      -55.2292035823  TIP3      13149           0.0000000000
     61698     13341  TIP3      H1            -32.3447566587      -34.3617807279      -55.2078201759  TIP3      13149           0.0000000000
     61699     13341  TIP3      H2            -31.2583684789      -33.5184323791      -55.7814853136  TIP3      13149           0.0000000000
     61700     13342  TIP3      OH2           -28.3770772565      -31.2506981499      -49.2653852543  TIP3      13150           0.0000000000
     61701     13342  TIP3      H1            -29.2208011785      -30.7671144967      -49.1558993877  TIP3      13150           0.0000000000
     61702     13342  TIP3      H2            -27.8323780519      -30.9370138208      -48.5197596432  TIP3      13150           0.0000000000
     61703     13343  TIP3      OH2           -27.7978860897      -25.0774729875      -57.5549031317  TIP3      13151           0.0000000000
     61704     13343  TIP3      H1            -28.5976519066      -25.5434765391      -57.8900824323  TIP3      13151           0.0000000000
     61705     13343  TIP3      H2            -28.0246212987      -24.9540757248      -56.6105300120  TIP3      13151           0.0000000000
     61706     13344  TIP3      OH2           -20.6109377334      -25.8744075219      -48.7519123945  TIP3      13152           0.0000000000
     61707     13344  TIP3      H1            -20.0519456275      -25.3903057998      -49.3861320022  TIP3      13152           0.0000000000
     61708     13344  TIP3      H2            -21.4716474894      -25.8306126498      -49.2146355353  TIP3      13152           0.0000000000
     61709     13345  TIP3      OH2           -23.9826912967      -32.2544892901      -59.3624788671  TIP3      13153           0.0000000000
     61710     13345  TIP3      H1            -24.9314905827      -32.1009005739      -59.5222211735  TIP3      13153           0.0000000000
     61711     13345  TIP3      H2            -23.6331944872      -31.4034859403      -59.0261159321  TIP3      13153           0.0000000000
     61712     13346  TIP3      OH2           -26.3056616066      -24.8063360341      -46.3089389446  TIP3      13154           0.0000000000
     61713     13346  TIP3      H1            -26.6540265395      -25.2370388770      -45.5213901560  TIP3      13154           0.0000000000
     61714     13346  TIP3      H2            -26.5630914876      -23.8853770590      -46.2021657254  TIP3      13154           0.0000000000
     61715     13347  TIP3      OH2           -23.2241989245      -30.3517264207      -57.7613142300  TIP3      13155           0.0000000000
     61716     13347  TIP3      H1            -22.3454133025      -30.4885494549      -57.3504302939  TIP3      13155           0.0000000000
     61717     13347  TIP3      H2            -23.1238133641      -29.5197602572      -58.2566160518  TIP3      13155           0.0000000000
     61718     13348  TIP3      OH2           -32.6938370680      -25.6806984601      -51.7666094843  TIP3      13156           0.0000000000
     61719     13348  TIP3      H1            -32.0170607955      -25.7641218593      -52.4586582335  TIP3      13156           0.0000000000
     61720     13348  TIP3      H2            -32.5988597375      -26.5213962050      -51.2865481499  TIP3      13156           0.0000000000
     61721     13349  TIP3      OH2           -25.7060696646      -23.6103611739      -58.5245619594  TIP3      13157           0.0000000000
     61722     13349  TIP3      H1            -26.0485543724      -22.7645691859      -58.1671636726  TIP3      13157           0.0000000000
     61723     13349  TIP3      H2            -26.4395963585      -24.2255907829      -58.3057111297  TIP3      13157           0.0000000000
     61724     13350  TIP3      OH2           -35.7294408556      -27.3010255460      -46.4900013199  TIP3      13158           0.0000000000
     61725     13350  TIP3      H1            -35.4707396863      -27.7414097551      -45.6571976799  TIP3      13158           0.0000000000
     61726     13350  TIP3      H2            -36.3175727833      -27.9411615753      -46.9145170093  TIP3      13158           0.0000000000
     61727     13351  TIP3      OH2           -28.6861828889      -27.7155344080      -44.3191358852  TIP3      13159           0.0000000000
     61728     13351  TIP3      H1            -29.0053334955      -28.0295611674      -45.1762953123  TIP3      13159           0.0000000000
     61729     13351  TIP3      H2            -27.7635608414      -28.0448396563      -44.3182363268  TIP3      13159           0.0000000000
     61730     13352  TIP3      OH2           -23.9992277836      -22.3840201995      -46.3607774024  TIP3      13160           0.0000000000
     61731     13352  TIP3      H1            -24.9244826926      -22.2059773918      -46.5951420882  TIP3      13160           0.0000000000
     61732     13352  TIP3      H2            -24.0328794373      -22.0908271772      -45.4302074468  TIP3      13160           0.0000000000
     61733     13353  TIP3      OH2           -18.3196165212      -30.1949247592      -57.9781442838  TIP3      13161           0.0000000000
     61734     13353  TIP3      H1            -18.8942866312      -30.4864444764      -58.7115753805  TIP3      13161           0.0000000000
     61735     13353  TIP3      H2            -18.2522027219      -29.2457815694      -58.2301414963  TIP3      13161           0.0000000000
     61736     13354  TIP3      OH2           -18.3416447290      -24.3360409551      -45.1696539870  TIP3      13162           0.0000000000
     61737     13354  TIP3      H1            -19.2363466890      -24.1223802881      -45.5362845555  TIP3      13162           0.0000000000
     61738     13354  TIP3      H2            -17.7948874292      -24.3931565445      -45.9810485977  TIP3      13162           0.0000000000
     61739     13355  TIP3      OH2           -20.0791862040      -21.3758802288      -57.5824603518  TIP3      13163           0.0000000000
     61740     13355  TIP3      H1            -20.4082084382      -22.2134587389      -57.2319263424  TIP3      13163           0.0000000000
     61741     13355  TIP3      H2            -19.7227043111      -21.5952939294      -58.4590106207  TIP3      13163           0.0000000000
     61742     13356  TIP3      OH2           -22.8363555875      -26.5610085990      -50.4691882746  TIP3      13164           0.0000000000
     61743     13356  TIP3      H1            -23.7769252139      -26.7695472134      -50.5791484558  TIP3      13164           0.0000000000
     61744     13356  TIP3      H2            -22.4050194746      -27.3190488093      -50.9071156070  TIP3      13164           0.0000000000
     61745     13357  TIP3      OH2           -30.3268932485      -22.2225024204      -54.3556788675  TIP3      13165           0.0000000000
     61746     13357  TIP3      H1            -29.8204607437      -21.4236234681      -54.5744545297  TIP3      13165           0.0000000000
     61747     13357  TIP3      H2            -31.2057043227      -21.9944032883      -54.6906841645  TIP3      13165           0.0000000000
     61748     13358  TIP3      OH2           -34.6004936746      -27.3813288990      -59.7609694490  TIP3      13166           0.0000000000
     61749     13358  TIP3      H1            -33.9565865027      -26.7252674423      -59.4056502926  TIP3      13166           0.0000000000
     61750     13358  TIP3      H2            -35.4533141186      -27.0286608054      -59.4977326009  TIP3      13166           0.0000000000
     61751     13359  TIP3      OH2           -28.9049603582      -24.5598979902      -54.8639350429  TIP3      13167           0.0000000000
     61752     13359  TIP3      H1            -29.2172896330      -23.6415334406      -54.7587722279  TIP3      13167           0.0000000000
     61753     13359  TIP3      H2            -29.6153275718      -25.0572650653      -54.4103411544  TIP3      13167           0.0000000000
     61754     13360  TIP3      OH2           -28.4393945024      -20.3832448317      -48.4449665174  TIP3      13168           0.0000000000
     61755     13360  TIP3      H1            -27.9920016134      -19.5716615014      -48.7279383788  TIP3      13168           0.0000000000
     61756     13360  TIP3      H2            -27.8296373044      -20.7196217974      -47.7643633012  TIP3      13168           0.0000000000
     61757     13361  TIP3      OH2           -30.2256707483      -19.5734853790      -55.3283309143  TIP3      13169           0.0000000000
     61758     13361  TIP3      H1            -31.1897097853      -19.4296665739      -55.1929869675  TIP3      13169           0.0000000000
     61759     13361  TIP3      H2            -29.8605320902      -18.7366378212      -54.9849135535  TIP3      13169           0.0000000000
     61760     13362  TIP3      OH2           -24.9320064060      -24.3855107016      -48.8250461968  TIP3      13170           0.0000000000
     61761     13362  TIP3      H1            -25.2511665129      -24.5744711949      -47.9179729556  TIP3      13170           0.0000000000
     61762     13362  TIP3      H2            -24.2874037540      -25.0920601997      -48.9907034983  TIP3      13170           0.0000000000
     61763     13363  TIP3      OH2           -22.5858607216      -23.3015699099      -59.7328328585  TIP3      13171           0.0000000000
     61764     13363  TIP3      H1            -22.2918117981      -23.7781733432      -58.9303066263  TIP3      13171           0.0000000000
     61765     13363  TIP3      H2            -23.5392674163      -23.4888849721      -59.6543694683  TIP3      13171           0.0000000000
     61766     13364  TIP3      OH2           -22.1070743330      -19.7996415663      -46.3362494311  TIP3      13172           0.0000000000
     61767     13364  TIP3      H1            -22.8001700375      -20.2929558575      -46.8144439111  TIP3      13172           0.0000000000
     61768     13364  TIP3      H2            -21.9253406754      -19.0990085179      -46.9974897554  TIP3      13172           0.0000000000
     61769     13365  TIP3      OH2           -18.1309188972      -18.9507148769      -59.4843576330  TIP3      13173           0.0000000000
     61770     13365  TIP3      H1            -17.4398378798      -18.2875313151      -59.6843725262  TIP3      13173           0.0000000000
     61771     13365  TIP3      H2            -18.8433209931      -18.3385585956      -59.1932573224  TIP3      13173           0.0000000000
     61772     13366  TIP3      OH2           -34.0428448770      -32.5676542241      -46.9603188109  TIP3      13174           0.0000000000
     61773     13366  TIP3      H1            -34.9291450059      -32.1835093064      -46.8895485848  TIP3      13174           0.0000000000
     61774     13366  TIP3      H2            -34.1897665846      -33.4277182414      -46.5253960757  TIP3      13174           0.0000000000
     61775     13367  TIP3      OH2           -21.8121199309      -24.6712034634      -57.4916751330  TIP3      13175           0.0000000000
     61776     13367  TIP3      H1            -22.0500012522      -25.4582620846      -56.9548922313  TIP3      13175           0.0000000000
     61777     13367  TIP3      H2            -20.8592522186      -24.6279439663      -57.3140270007  TIP3      13175           0.0000000000
     61778     13368  TIP3      OH2           -34.2664015099      -20.7094766075      -48.5638239209  TIP3      13176           0.0000000000
     61779     13368  TIP3      H1            -34.1489289800      -21.6683284458      -48.5055399576  TIP3      13176           0.0000000000
     61780     13368  TIP3      H2            -34.1825689017      -20.4772589121      -47.6331956230  TIP3      13176           0.0000000000
     61781     13369  TIP3      OH2           -28.4593805623      -22.2327991530      -61.2359236513  TIP3      13177           0.0000000000
     61782     13369  TIP3      H1            -28.3632577725      -22.9976840307      -61.8260410496  TIP3      13177           0.0000000000
     61783     13369  TIP3      H2            -28.9025721776      -22.6631138213      -60.4721606110  TIP3      13177           0.0000000000
     61784     13370  TIP3      OH2           -29.6888406476      -22.7073899386      -58.7857851559  TIP3      13178           0.0000000000
     61785     13370  TIP3      H1            -29.4172539134      -23.2215459602      -58.0160543713  TIP3      13178           0.0000000000
     61786     13370  TIP3      H2            -29.5965292369      -21.7808511419      -58.4633654190  TIP3      13178           0.0000000000
     61787     13371  TIP3      OH2           -33.1946513301      -25.4634451273      -58.3102572958  TIP3      13179           0.0000000000
     61788     13371  TIP3      H1            -33.9043106849      -25.0707102767      -57.7579010129  TIP3      13179           0.0000000000
     61789     13371  TIP3      H2            -32.6718933142      -24.6832782213      -58.5812378462  TIP3      13179           0.0000000000
     61790     13372  TIP3      OH2           -25.3061790386      -32.7830443359      -47.9898427985  TIP3      13180           0.0000000000
     61791     13372  TIP3      H1            -24.5865686754      -32.7206821061      -47.3509249161  TIP3      13180           0.0000000000
     61792     13372  TIP3      H2            -25.6759570915      -33.6698676438      -47.8082432531  TIP3      13180           0.0000000000
     61793     13373  TIP3      OH2           -24.5392417509      -33.2097473829      -56.8714033028  TIP3      13181           0.0000000000
     61794     13373  TIP3      H1            -24.3492165271      -32.7492391242      -57.7175036272  TIP3      13181           0.0000000000
     61795     13373  TIP3      H2            -24.0028337593      -32.7027399246      -56.2481015712  TIP3      13181           0.0000000000
     61796     13374  TIP3      OH2           -26.8829762739      -21.0440254220      -58.0905937483  TIP3      13182           0.0000000000
     61797     13374  TIP3      H1            -27.7019144697      -20.5120521617      -58.0168617807  TIP3      13182           0.0000000000
     61798     13374  TIP3      H2            -26.3439891924      -20.4935875914      -58.6771184579  TIP3      13182           0.0000000000
     61799     13375  TIP3      OH2           -27.3290813796      -31.4790090763      -56.0675906573  TIP3      13183           0.0000000000
     61800     13375  TIP3      H1            -26.5646944652      -30.8713513574      -56.0349037497  TIP3      13183           0.0000000000
     61801     13375  TIP3      H2            -27.5903942548      -31.5631644670      -55.1294212687  TIP3      13183           0.0000000000
     61802     13376  TIP3      OH2           -26.7827320954      -30.4245398979      -46.8830860851  TIP3      13184           0.0000000000
     61803     13376  TIP3      H1            -26.7090929963      -29.8743684669      -46.0796868097  TIP3      13184           0.0000000000
     61804     13376  TIP3      H2            -26.1237099396      -31.1227056527      -46.7860231642  TIP3      13184           0.0000000000
     61805     13377  TIP3      OH2           -26.4687213106      -34.3875116216      -55.1474335375  TIP3      13185           0.0000000000
     61806     13377  TIP3      H1            -26.8173032294      -33.7163640111      -54.5362830884  TIP3      13185           0.0000000000
     61807     13377  TIP3      H2            -25.8120870168      -33.8383999218      -55.6356897041  TIP3      13185           0.0000000000
     61808     13378  TIP3      OH2           -29.4793369694      -20.0181487476      -58.0620138494  TIP3      13186           0.0000000000
     61809     13378  TIP3      H1            -29.3901146380      -19.2005386174      -58.6129244613  TIP3      13186           0.0000000000
     61810     13378  TIP3      H2            -29.7530190669      -19.6477408812      -57.1925733614  TIP3      13186           0.0000000000
     61811     13379  TIP3      OH2           -30.8372594897      -33.3004207787      -58.4977867928  TIP3      13187           0.0000000000
     61812     13379  TIP3      H1            -30.9080959525      -32.4069150502      -58.1070424894  TIP3      13187           0.0000000000
     61813     13379  TIP3      H2            -29.9153733999      -33.4968657376      -58.2409548579  TIP3      13187           0.0000000000
     61814     13380  TIP3      OH2           -20.6118625988      -32.5603131525      -46.0228714126  TIP3      13188           0.0000000000
     61815     13380  TIP3      H1            -21.5390781493      -32.2410613775      -46.1633128934  TIP3      13188           0.0000000000
     61816     13380  TIP3      H2            -20.3127586031      -32.5861093801      -46.9526607728  TIP3      13188           0.0000000000
     61817     13381  TIP3      OH2           -21.9958797949      -28.7670681737      -52.0380342028  TIP3      13189           0.0000000000
     61818     13381  TIP3      H1            -22.8231809911      -29.2112145944      -52.3083923575  TIP3      13189           0.0000000000
     61819     13381  TIP3      H2            -21.5153697940      -29.4528643831      -51.5186786149  TIP3      13189           0.0000000000
     61820     13382  TIP3      OH2           -32.6205636425      -22.8351435429      -59.4442783928  TIP3      13190           0.0000000000
     61821     13382  TIP3      H1            -31.9506213279      -22.2060074738      -59.1325830238  TIP3      13190           0.0000000000
     61822     13382  TIP3      H2            -32.0884278578      -23.3149986176      -60.1125997859  TIP3      13190           0.0000000000
     61823     13383  TIP3      OH2           -34.3149460803      -30.1769642667      -60.2803489340  TIP3      13191           0.0000000000
     61824     13383  TIP3      H1            -34.2349582632      -29.2205127997      -60.1059199319  TIP3      13191           0.0000000000
     61825     13383  TIP3      H2            -35.1859247062      -30.3508056523      -60.6525392248  TIP3      13191           0.0000000000
     61826     13384  TIP3      OH2           -20.9335412286      -19.5077922152      -50.3603749996  TIP3      13192           0.0000000000
     61827     13384  TIP3      H1            -21.0217800713      -18.8279210577      -51.0558346921  TIP3      13192           0.0000000000
     61828     13384  TIP3      H2            -19.9690686017      -19.4560709094      -50.1865063939  TIP3      13192           0.0000000000
     61829     13385  TIP3      OH2           -33.6490032474      -35.2431942272      -51.4875913490  TIP3      13193           0.0000000000
     61830     13385  TIP3      H1            -33.6282142015      -35.3161339621      -52.4702796141  TIP3      13193           0.0000000000
     61831     13385  TIP3      H2            -33.8650862562      -36.1559854064      -51.2617822287  TIP3      13193           0.0000000000
     61832     13386  TIP3      OH2           -34.4726564476      -21.4609281283      -55.3890959701  TIP3      13194           0.0000000000
     61833     13386  TIP3      H1            -35.3289782637      -21.0270091653      -55.4494443830  TIP3      13194           0.0000000000
     61834     13386  TIP3      H2            -33.9949401503      -21.0077046905      -56.1000727013  TIP3      13194           0.0000000000
     61835     13387  TIP3      OH2           -34.9738869098      -18.7906260892      -44.1369867028  TIP3      13195           0.0000000000
     61836     13387  TIP3      H1            -34.5638263929      -19.0203170196      -43.2884669609  TIP3      13195           0.0000000000
     61837     13387  TIP3      H2            -35.5017121437      -19.5996842071      -44.2932250993  TIP3      13195           0.0000000000
     61838     13388  TIP3      OH2           -30.5955578057      -19.9108281605      -42.5226989130  TIP3      13196           0.0000000000
     61839     13388  TIP3      H1            -29.8365558002      -20.4037484525      -42.1892719125  TIP3      13196           0.0000000000
     61840     13388  TIP3      H2            -30.6238899954      -20.1822041432      -43.4604892320  TIP3      13196           0.0000000000
     61841     13389  TIP3      OH2           -26.4658819808      -20.3789925643      -61.1101275794  TIP3      13197           0.0000000000
     61842     13389  TIP3      H1            -27.1577698935      -21.0422013751      -60.8871814798  TIP3      13197           0.0000000000
     61843     13389  TIP3      H2            -25.7485841025      -20.9799342832      -61.3623943540  TIP3      13197           0.0000000000
     61844     13390  TIP3      OH2           -24.0974371568      -21.5127700786      -43.7670142557  TIP3      13198           0.0000000000
     61845     13390  TIP3      H1            -24.4123666752      -22.4001421403      -43.4925112352  TIP3      13198           0.0000000000
     61846     13390  TIP3      H2            -23.3285011702      -21.3940328937      -43.1747720792  TIP3      13198           0.0000000000
     61847     13391  TIP3      OH2           -21.9068492069      -20.6407444468      -60.9291637915  TIP3      13199           0.0000000000
     61848     13391  TIP3      H1            -21.6109633754      -21.4155310515      -60.4248484728  TIP3      13199           0.0000000000
     61849     13391  TIP3      H2            -21.1448731564      -20.4140238854      -61.4806401972  TIP3      13199           0.0000000000
     61850     13392  TIP3      OH2           -35.4054360004      -25.0388194160      -43.1390995974  TIP3      13200           0.0000000000
     61851     13392  TIP3      H1            -35.1916494264      -25.9347504469      -43.4614668395  TIP3      13200           0.0000000000
     61852     13392  TIP3      H2            -36.1223650913      -24.7642342585      -43.7202966051  TIP3      13200           0.0000000000
     61853     13393  TIP3      OH2           -31.0205160934      -24.6959972557      -61.1123242133  TIP3      13201           0.0000000000
     61854     13393  TIP3      H1            -30.8845014518      -25.4589461189      -60.5308280496  TIP3      13201           0.0000000000
     61855     13393  TIP3      H2            -30.2707286933      -24.8151551506      -61.7277610058  TIP3      13201           0.0000000000
     61856     13394  TIP3      OH2           -28.6533945246      -25.0540232458      -43.7435145487  TIP3      13202           0.0000000000
     61857     13394  TIP3      H1            -28.9879130228      -24.7420015864      -44.6069718070  TIP3      13202           0.0000000000
     61858     13394  TIP3      H2            -28.5797199602      -26.0325965379      -43.8519023537  TIP3      13202           0.0000000000
     61859     13395  TIP3      OH2           -25.5915256022      -23.5886646326      -61.3322980592  TIP3      13203           0.0000000000
     61860     13395  TIP3      H1            -25.8609871217      -23.5082710012      -60.4039553384  TIP3      13203           0.0000000000
     61861     13395  TIP3      H2            -25.7781172317      -24.5468527332      -61.4769014441  TIP3      13203           0.0000000000
     61862     13396  TIP3      OH2           -22.9575940968      -25.1956500345      -46.3510666859  TIP3      13204           0.0000000000
     61863     13396  TIP3      H1            -22.1695605724      -24.6129155252      -46.4132441780  TIP3      13204           0.0000000000
     61864     13396  TIP3      H2            -23.6572204005      -24.5276812381      -46.3153139729  TIP3      13204           0.0000000000
     61865     13397  TIP3      OH2           -34.5134884484      -27.8285158503      -43.7567878868  TIP3      13205           0.0000000000
     61866     13397  TIP3      H1            -34.0302961858      -28.6692671892      -43.8399901783  TIP3      13205           0.0000000000
     61867     13397  TIP3      H2            -34.6887054011      -27.8193752248      -42.8040946360  TIP3      13205           0.0000000000
     61868     13398  TIP3      OH2           -29.8157215601      -26.6798705469      -58.6753368998  TIP3      13206           0.0000000000
     61869     13398  TIP3      H1            -30.3213690858      -27.2196818015      -58.0518623935  TIP3      13206           0.0000000000
     61870     13398  TIP3      H2            -29.5191918046      -27.3510912649      -59.3334295703  TIP3      13206           0.0000000000
     61871     13399  TIP3      OH2           -30.5521567155      -28.8819526894      -46.3959301163  TIP3      13207           0.0000000000
     61872     13399  TIP3      H1            -31.1528048328      -28.1637444583      -46.1363402471  TIP3      13207           0.0000000000
     61873     13399  TIP3      H2            -30.1543197898      -28.5066623477      -47.2004444873  TIP3      13207           0.0000000000
     61874     13400  TIP3      OH2           -28.7415060014      -28.4552766688      -60.4817186219  TIP3      13208           0.0000000000
     61875     13400  TIP3      H1            -28.8936097238      -28.5459959343      -61.4435465204  TIP3      13208           0.0000000000
     61876     13400  TIP3      H2            -27.7652917371      -28.4055951839      -60.4166216115  TIP3      13208           0.0000000000
     61877     13401  TIP3      OH2           -25.4767686128      -26.3041548255      -43.0572143512  TIP3      13209           0.0000000000
     61878     13401  TIP3      H1            -24.5204132138      -26.3169585768      -43.1817319870  TIP3      13209           0.0000000000
     61879     13401  TIP3      H2            -25.6468663890      -27.0743695953      -42.4918364020  TIP3      13209           0.0000000000
     61880     13402  TIP3      OH2           -19.4130676976      -26.1373200755      -61.0693447789  TIP3      13210           0.0000000000
     61881     13402  TIP3      H1            -19.6035628001      -26.5191401222      -61.9423406705  TIP3      13210           0.0000000000
     61882     13402  TIP3      H2            -19.3237532545      -25.1765598900      -61.2583578828  TIP3      13210           0.0000000000
     61883     13403  TIP3      OH2           -30.1289152946      -31.4979610989      -45.3351146589  TIP3      13211           0.0000000000
     61884     13403  TIP3      H1            -30.0228451612      -32.2100045022      -45.9873049224  TIP3      13211           0.0000000000
     61885     13403  TIP3      H2            -30.2128027744      -30.6896572627      -45.8873699404  TIP3      13211           0.0000000000
     61886     13404  TIP3      OH2           -29.7438612484      -33.0913081676      -47.8123529867  TIP3      13212           0.0000000000
     61887     13404  TIP3      H1            -29.2299738693      -32.6166431345      -48.5068130063  TIP3      13212           0.0000000000
     61888     13404  TIP3      H2            -30.6372488256      -33.1999895924      -48.2193686476  TIP3      13212           0.0000000000
     61889     13405  TIP3      OH2           -28.2059301873      -27.6248586811      -47.5374837715  TIP3      13213           0.0000000000
     61890     13405  TIP3      H1            -27.4499631516      -27.7894373160      -48.1112897519  TIP3      13213           0.0000000000
     61891     13405  TIP3      H2            -28.5678963206      -26.7900608767      -47.8779535071  TIP3      13213           0.0000000000
     61892     13406  TIP3      OH2           -23.8093018015      -29.8736102196      -42.5836297413  TIP3      13214           0.0000000000
     61893     13406  TIP3      H1            -23.5718021721      -30.8096021804      -42.6705580285  TIP3      13214           0.0000000000
     61894     13406  TIP3      H2            -22.9437836296      -29.4306749262      -42.5459858985  TIP3      13214           0.0000000000
     61895     13407  TIP3      OH2           -22.4593413517      -27.0787167126      -44.4118324420  TIP3      13215           0.0000000000
     61896     13407  TIP3      H1            -22.7139421410      -26.3581628672      -45.0294477133  TIP3      13215           0.0000000000
     61897     13407  TIP3      H2            -21.4972409497      -27.1091442365      -44.5973414035  TIP3      13215           0.0000000000
     61898     13408  TIP3      OH2           -31.7146962016      -30.2315123947      -43.4259673237  TIP3      13216           0.0000000000
     61899     13408  TIP3      H1            -32.4726836326      -30.8335667114      -43.5839990832  TIP3      13216           0.0000000000
     61900     13408  TIP3      H2            -31.0469290178      -30.6017129056      -44.0330801151  TIP3      13216           0.0000000000
     61901     13409  TIP3      OH2           -29.0949277573      -35.4788226994      -47.1166216055  TIP3      13217           0.0000000000
     61902     13409  TIP3      H1            -29.1719096844      -34.5428705409      -47.4199669410  TIP3      13217           0.0000000000
     61903     13409  TIP3      H2            -29.6823806098      -35.9013368841      -47.7617648360  TIP3      13217           0.0000000000
     61904     13410  TIP3      OH2           -27.6992561108      -31.3157789938      -43.7794299092  TIP3      13218           0.0000000000
     61905     13410  TIP3      H1            -27.9813749680      -31.6235647946      -42.8977846200  TIP3      13218           0.0000000000
     61906     13410  TIP3      H2            -28.4759407924      -31.5628849398      -44.3100248082  TIP3      13218           0.0000000000
     61907     13411  TIP3      OH2           -24.9589288372      -32.1898818063      -44.6659796925  TIP3      13219           0.0000000000
     61908     13411  TIP3      H1            -25.9265455025      -32.1675923194      -44.5576211396  TIP3      13219           0.0000000000
     61909     13411  TIP3      H2            -24.6797636408      -32.8305104353      -43.9822854317  TIP3      13219           0.0000000000
     61910     13412  TIP3      OH2           -23.3648965196      -33.4751344261      -42.7488159628  TIP3      13220           0.0000000000
     61911     13412  TIP3      H1            -23.4573225214      -34.4602391937      -42.7744399082  TIP3      13220           0.0000000000
     61912     13412  TIP3      H2            -23.6571632241      -33.2816938711      -41.8414610402  TIP3      13220           0.0000000000
     61913     13413  TIP3      OH2           -33.4595831578      -32.3267922707      -43.6309344498  TIP3      13221           0.0000000000
     61914     13413  TIP3      H1            -33.3210749545      -33.0552016851      -44.2617690955  TIP3      13221           0.0000000000
     61915     13413  TIP3      H2            -33.6543294974      -32.8004022868      -42.8037194426  TIP3      13221           0.0000000000
     61916     13414  TIP3      OH2           -28.7540279939       36.7217590189      -44.6575517623  TIP3      13222           0.0000000000
     61917     13414  TIP3      H1            -28.0704613521       36.0502487163      -44.6133438932  TIP3      13222           0.0000000000
     61918     13414  TIP3      H2            -28.8570536415       36.9294343576      -45.6102884538  TIP3      13222           0.0000000000
     61919     13415  TIP3      OH2           -28.3433055028      -34.5960325955      -42.6188525396  TIP3      13223           0.0000000000
     61920     13415  TIP3      H1            -28.5280606010      -35.1702930162      -43.3937561621  TIP3      13223           0.0000000000
     61921     13415  TIP3      H2            -28.9836871618      -33.8740031504      -42.6856129307  TIP3      13223           0.0000000000
     61922     13416  TIP3      OH2           -28.9112308032      -17.7540889710      -59.4047961796  TIP3      13224           0.0000000000
     61923     13416  TIP3      H1            -27.9439087955      -17.6720607639      -59.3360274684  TIP3      13224           0.0000000000
     61924     13416  TIP3      H2            -29.0584035341      -17.1538873831      -60.1448505941  TIP3      13224           0.0000000000
     61925     13417  TIP3      OH2           -35.3163559907      -23.1826184569      -59.9211823091  TIP3      13225           0.0000000000
     61926     13417  TIP3      H1            -34.3550449464      -23.0695502501      -59.7477410333  TIP3      13225           0.0000000000
     61927     13417  TIP3      H2            -35.2800274818      -23.8251665140      -60.6555484121  TIP3      13225           0.0000000000
     61928     13418  TIP3      OH2            36.9191478204      -17.7389468211      -55.1530086090  TIP3      13226           0.0000000000
     61929     13418  TIP3      H1             35.9794686880      -17.8292792007      -55.4375904728  TIP3      13226           0.0000000000
     61930     13418  TIP3      H2             36.9341068083      -18.3104458303      -54.3551128638  TIP3      13226           0.0000000000
     61931     13419  TIP3      OH2           -35.7211972881      -19.6177345926      -53.1354391935  TIP3      13227           0.0000000000
     61932     13419  TIP3      H1            -36.0903098813      -20.5009739226      -52.9151769154  TIP3      13227           0.0000000000
     61933     13419  TIP3      H2            -35.4756240299      -19.3452308250      -52.2339156423  TIP3      13227           0.0000000000
     61934     13420  TIP3      OH2           -18.2132271210      -18.8651169303      -50.1649283627  TIP3      13228           0.0000000000
     61935     13420  TIP3      H1            -18.1795999606      -18.7070120808      -49.2056335300  TIP3      13228           0.0000000000
     61936     13420  TIP3      H2            -17.5087657253      -18.2828823489      -50.4680875429  TIP3      13228           0.0000000000
     61937     13421  TIP3      OH2           -18.6423198730      -19.2705271847      -47.2175188493  TIP3      13229           0.0000000000
     61938     13421  TIP3      H1            -19.1113889493      -20.0406786331      -47.5997391619  TIP3      13229           0.0000000000
     61939     13421  TIP3      H2            -18.1534688497      -19.7166231920      -46.5058753514  TIP3      13229           0.0000000000
     61940     13422  TIP3      OH2           -20.1951079994      -23.5491767523      -42.5467771096  TIP3      13230           0.0000000000
     61941     13422  TIP3      H1            -21.1007074329      -23.5774100533      -42.1810094194  TIP3      13230           0.0000000000
     61942     13422  TIP3      H2            -19.8232650983      -22.7447000993      -42.1342610565  TIP3      13230           0.0000000000
     61943     13423  TIP3      OH2           -18.8776914919      -25.2172365079      -57.1162643901  TIP3      13231           0.0000000000
     61944     13423  TIP3      H1            -18.0057690425      -24.8270545023      -56.9301232928  TIP3      13231           0.0000000000
     61945     13423  TIP3      H2            -18.8954643924      -25.9371369859      -56.4482062089  TIP3      13231           0.0000000000
     61946     13424  TIP3      OH2           -18.5205303945      -27.1429604107      -55.2271140063  TIP3      13232           0.0000000000
     61947     13424  TIP3      H1            -19.2721567799      -27.6426931333      -54.8366038069  TIP3      13232           0.0000000000
     61948     13424  TIP3      H2            -17.9238562208      -27.0148101803      -54.4639263426  TIP3      13232           0.0000000000
     61949     13425  TIP3      OH2           -18.7629238799      -24.4473537274      -50.2428637728  TIP3      13233           0.0000000000
     61950     13425  TIP3      H1            -17.9502997714      -24.8257096603      -50.6246960992  TIP3      13233           0.0000000000
     61951     13425  TIP3      H2            -18.6169901656      -23.4948244224      -50.4145847593  TIP3      13233           0.0000000000
     61952     13426  TIP3      OH2           -20.2037365307      -21.5414534415      -47.9762524310  TIP3      13234           0.0000000000
     61953     13426  TIP3      H1            -20.8940120016      -21.2014908984      -47.3867683009  TIP3      13234           0.0000000000
     61954     13426  TIP3      H2            -20.7524551260      -21.9460547648      -48.6829753582  TIP3      13234           0.0000000000
     61955     13427  TIP3      OH2           -18.2194622652      -27.3209388280      -58.8360718896  TIP3      13235           0.0000000000
     61956     13427  TIP3      H1            -18.7827889747      -26.9780307724      -59.5607374794  TIP3      13235           0.0000000000
     61957     13427  TIP3      H2            -18.3186823667      -26.6061794461      -58.1796826013  TIP3      13235           0.0000000000
     61958     13428  TIP3      OH2           -19.8362722751      -30.0863976646      -60.3290893726  TIP3      13236           0.0000000000
     61959     13428  TIP3      H1            -19.7686850425      -29.4217430051      -61.0210411645  TIP3      13236           0.0000000000
     61960     13428  TIP3      H2            -20.0316854755      -30.9094867631      -60.8193716799  TIP3      13236           0.0000000000
     61961     13429  TIP3      OH2           -20.6989503222      -28.6697622721      -54.6578992063  TIP3      13237           0.0000000000
     61962     13429  TIP3      H1            -20.8467839017      -29.6245586235      -54.7004713816  TIP3      13237           0.0000000000
     61963     13429  TIP3      H2            -21.0298532506      -28.4558091041      -53.7654397778  TIP3      13237           0.0000000000
     61964     13430  TIP3      OH2           -35.6776245995      -26.6004607122      -50.6790024613  TIP3      13238           0.0000000000
     61965     13430  TIP3      H1            -35.4737980632      -26.6400827590      -51.6373752137  TIP3      13238           0.0000000000
     61966     13430  TIP3      H2            -34.7975960382      -26.7102222367      -50.2596547577  TIP3      13238           0.0000000000
     61967     13431  TIP3      OH2           -19.8372133803      -26.7050885421      -44.9689439043  TIP3      13239           0.0000000000
     61968     13431  TIP3      H1            -19.2231901364      -27.4585766483      -44.8370056859  TIP3      13239           0.0000000000
     61969     13431  TIP3      H2            -19.2385775082      -25.9294382693      -44.9668883324  TIP3      13239           0.0000000000
     61970     13432  TIP3      OH2           -18.3443558788      -28.8233328578      -44.3187683464  TIP3      13240           0.0000000000
     61971     13432  TIP3      H1            -19.2240600925      -29.2247923231      -44.4733202906  TIP3      13240           0.0000000000
     61972     13432  TIP3      H2            -17.7669847348      -29.6022010781      -44.3934742252  TIP3      13240           0.0000000000
     61973     13433  TIP3      OH2           -20.5988781808      -32.6093124798      -61.1712416076  TIP3      13241           0.0000000000
     61974     13433  TIP3      H1            -20.0073916119      -33.0538859253      -60.5329172336  TIP3      13241           0.0000000000
     61975     13433  TIP3      H2            -21.4580528509      -33.0468313363      -61.0322060784  TIP3      13241           0.0000000000
     61976     13434  TIP3      OH2           -21.0546254318      -31.0734583767      -56.2395583103  TIP3      13242           0.0000000000
     61977     13434  TIP3      H1            -20.7363570569      -31.9910059143      -56.0874708969  TIP3      13242           0.0000000000
     61978     13434  TIP3      H2            -20.2351340080      -30.6697030166      -56.5545776946  TIP3      13242           0.0000000000
     61979     13435  TIP3      OH2           -20.3951763376      -30.5191435005      -50.7635400143  TIP3      13243           0.0000000000
     61980     13435  TIP3      H1            -19.4307880495      -30.3084245459      -50.7719209304  TIP3      13243           0.0000000000
     61981     13435  TIP3      H2            -20.5797419090      -30.4075029616      -49.8179724990  TIP3      13243           0.0000000000
     61982     13436  TIP3      OH2           -20.3414369434      -29.8038113553      -47.9867056146  TIP3      13244           0.0000000000
     61983     13436  TIP3      H1            -21.2189861201      -29.5244317276      -47.6561301842  TIP3      13244           0.0000000000
     61984     13436  TIP3      H2            -19.8970853711      -28.9491559133      -48.1993295973  TIP3      13244           0.0000000000
     61985     13437  TIP3      OH2           -35.7992098281      -31.3981067692      -44.4545940895  TIP3      13245           0.0000000000
     61986     13437  TIP3      H1            -34.9123593066      -31.6212857430      -44.1433846112  TIP3      13245           0.0000000000
     61987     13437  TIP3      H2            -36.3822592188      -32.0961934022      -44.0698962416  TIP3      13245           0.0000000000
     61988     13438  TIP3      OH2           -17.9938773808      -35.7439736291      -42.6144932325  TIP3      13246           0.0000000000
     61989     13438  TIP3      H1            -17.7582534460      -36.4149564349      -43.2700074142  TIP3      13246           0.0000000000
     61990     13438  TIP3      H2            -17.9884874752      -34.9249466146      -43.1359831806  TIP3      13246           0.0000000000
     61991     13439  TIP3      OH2           -20.3662834791      -33.7693665813      -56.1494212043  TIP3      13247           0.0000000000
     61992     13439  TIP3      H1            -20.1643616648      -34.2426773386      -55.3121930151  TIP3      13247           0.0000000000
     61993     13439  TIP3      H2            -20.9453985477      -34.4177923606      -56.6182678351  TIP3      13247           0.0000000000
     61994     13440  TIP3      OH2           -34.8619836519      -32.9756198288      -51.6557393374  TIP3      13248           0.0000000000
     61995     13440  TIP3      H1            -34.4365434808      -33.8047905555      -51.3330964737  TIP3      13248           0.0000000000
     61996     13440  TIP3      H2            -34.3307082144      -32.3096869938      -51.1877993551  TIP3      13248           0.0000000000
     61997     13441  TIP3      OH2           -36.0118778433      -29.2411883911      -50.1976498090  TIP3      13249           0.0000000000
     61998     13441  TIP3      H1            -35.9777246003      -29.6741621771      -51.0769528508  TIP3      13249           0.0000000000
     61999     13441  TIP3      H2            -35.9411847631      -28.3261646157      -50.4818632569  TIP3      13249           0.0000000000
     62000     13442  TIP3      OH2           -18.5278465322      -33.7026956426      -44.2990513466  TIP3      13250           0.0000000000
     62001     13442  TIP3      H1            -19.4548347332      -33.3957719191      -44.3485742434  TIP3      13250           0.0000000000
     62002     13442  TIP3      H2            -18.4904313997      -34.2246927197      -45.1150114750  TIP3      13250           0.0000000000
     62003     13443  TIP3      OH2           -18.5177459386      -33.7584954954      -59.5917479345  TIP3      13251           0.0000000000
     62004     13443  TIP3      H1            -18.1401363407      -34.4855791202      -60.1404244771  TIP3      13251           0.0000000000
     62005     13443  TIP3      H2            -17.8058476256      -33.1103020779      -59.5647530058  TIP3      13251           0.0000000000
     62006     13444  TIP3      OH2           -35.7697755412      -33.8077331242      -56.9050175518  TIP3      13252           0.0000000000
     62007     13444  TIP3      H1            -36.7036156264      -33.5839104250      -56.7931000421  TIP3      13252           0.0000000000
     62008     13444  TIP3      H2            -35.5355060427      -33.0702499807      -57.5063146671  TIP3      13252           0.0000000000
     62009     13445  TIP3      OH2           -21.4906387999      -18.7801841334      -54.5349959144  TIP3      13253           0.0000000000
     62010     13445  TIP3      H1            -20.8037785907      -19.0843303258      -55.1556635540  TIP3      13253           0.0000000000
     62011     13445  TIP3      H2            -20.9756631599      -18.2836470940      -53.8827573780  TIP3      13253           0.0000000000
     62012     13446  TIP3      OH2            36.9597927179      -35.0425855062      -47.9213950969  TIP3      13254           0.0000000000
     62013     13446  TIP3      H1             36.1575890811      -35.3108981471      -47.4790770256  TIP3      13254           0.0000000000
     62014     13446  TIP3      H2             36.5207074481      -34.6113037359      -48.6774654522  TIP3      13254           0.0000000000
     62015     13447  TIP3      OH2           -34.0741628258      -21.8517789371      -44.0178342340  TIP3      13255           0.0000000000
     62016     13447  TIP3      H1            -34.9202780159      -21.6768423814      -44.4468371403  TIP3      13255           0.0000000000
     62017     13447  TIP3      H2            -34.3296270608      -21.9542155569      -43.1003195666  TIP3      13255           0.0000000000
     62018     13448  TIP3      OH2           -31.1076508857      -20.8512485072      -47.7195572318  TIP3      13256           0.0000000000
     62019     13448  TIP3      H1            -31.5055514577      -20.0161847448      -48.0214920295  TIP3      13256           0.0000000000
     62020     13448  TIP3      H2            -30.1993243266      -20.7642637232      -48.0658179204  TIP3      13256           0.0000000000
     62021     13449  TIP3      OH2           -26.8216649911      -19.4507977228      -44.8492329739  TIP3      13257           0.0000000000
     62022     13449  TIP3      H1            -26.6852890787      -19.8053715648      -43.9408441761  TIP3      13257           0.0000000000
     62023     13449  TIP3      H2            -25.9175269695      -19.1477181610      -45.0886948162  TIP3      13257           0.0000000000
     62024     13450  TIP3      OH2           -24.5333999018      -18.1831727401      -45.5353526073  TIP3      13258           0.0000000000
     62025     13450  TIP3      H1            -23.8013545677      -18.7678695656      -45.7735445144  TIP3      13258           0.0000000000
     62026     13450  TIP3      H2            -24.1576108512      -17.7443564952      -44.7416443666  TIP3      13258           0.0000000000
     62027     13451  TIP3      OH2           -19.5119236466      -35.5503005853      -46.5219055072  TIP3      13259           0.0000000000
     62028     13451  TIP3      H1            -20.3542424290      -35.2404327468      -46.8945316116  TIP3      13259           0.0000000000
     62029     13451  TIP3      H2            -19.3586549555      -36.4025723710      -46.9829803562  TIP3      13259           0.0000000000
     62030     13452  TIP3      OH2           -33.6845528693      -17.6316356079      -47.7341893281  TIP3      13260           0.0000000000
     62031     13452  TIP3      H1            -34.4345374077      -17.1430244699      -48.1288616786  TIP3      13260           0.0000000000
     62032     13452  TIP3      H2            -34.0321984681      -17.8250004755      -46.8497152261  TIP3      13260           0.0000000000
     62033     13453  TIP3      OH2           -31.2347630773      -18.0510932929      -48.6966467159  TIP3      13261           0.0000000000
     62034     13453  TIP3      H1            -32.1315085472      -17.9227782435      -48.3010798555  TIP3      13261           0.0000000000
     62035     13453  TIP3      H2            -31.2918528950      -17.4559555124      -49.4635258523  TIP3      13261           0.0000000000
     62036     13454  TIP3      OH2           -26.5401157813      -18.1451288087      -49.5170494285  TIP3      13262           0.0000000000
     62037     13454  TIP3      H1            -27.0038162580      -17.5890137104      -50.1602967440  TIP3      13262           0.0000000000
     62038     13454  TIP3      H2            -26.4100455100      -17.5157576870      -48.7766407706  TIP3      13262           0.0000000000
     62039     13455  TIP3      OH2           -24.2544898021      -19.3403214487      -48.4808394616  TIP3      13263           0.0000000000
     62040     13455  TIP3      H1            -25.1066968148      -19.0617356039      -48.8537971860  TIP3      13263           0.0000000000
     62041     13455  TIP3      H2            -23.7670829377      -18.5035790240      -48.5751529863  TIP3      13263           0.0000000000
     62042     13456  TIP3      OH2           -21.6725239848      -17.7695557222      -48.2631679454  TIP3      13264           0.0000000000
     62043     13456  TIP3      H1            -21.7237635750      -16.8085561666      -48.4905500900  TIP3      13264           0.0000000000
     62044     13456  TIP3      H2            -21.4576010206      -18.1403177984      -49.1412826007  TIP3      13264           0.0000000000
     62045     13457  TIP3      OH2           -34.3117903717      -18.9835026409      -50.8252324806  TIP3      13265           0.0000000000
     62046     13457  TIP3      H1            -34.3147200366      -19.4337734078      -49.9537664682  TIP3      13265           0.0000000000
     62047     13457  TIP3      H2            -33.4940729048      -19.3603490281      -51.2105647654  TIP3      13265           0.0000000000
     62048     13458  TIP3      OH2           -32.2055810301      -20.2733280780      -52.1500407949  TIP3      13266           0.0000000000
     62049     13458  TIP3      H1            -32.3635074206      -21.2101821724      -51.9186510576  TIP3      13266           0.0000000000
     62050     13458  TIP3      H2            -31.3396095061      -20.1207311492      -51.7131873012  TIP3      13266           0.0000000000
     62051     13459  TIP3      OH2           -29.5969841749      -19.7976543724      -51.2794326004  TIP3      13267           0.0000000000
     62052     13459  TIP3      H1            -29.4219373746      -20.7185884171      -51.5427974691  TIP3      13267           0.0000000000
     62053     13459  TIP3      H2            -29.5267599961      -19.8471254694      -50.3153490910  TIP3      13267           0.0000000000
     62054     13460  TIP3      OH2           -26.2424193209      -34.0773580487      -52.1613275224  TIP3      13268           0.0000000000
     62055     13460  TIP3      H1            -26.8277196927      -34.7975898119      -51.8794024225  TIP3      13268           0.0000000000
     62056     13460  TIP3      H2            -25.5606628372      -34.5714085954      -52.6557380807  TIP3      13268           0.0000000000
     62057     13461  TIP3      OH2           -20.9822077871      -36.0670467806      -52.0481753708  TIP3      13269           0.0000000000
     62058     13461  TIP3      H1            -20.3619672567      -35.5144162144      -52.5710041901  TIP3      13269           0.0000000000
     62059     13461  TIP3      H2            -21.8478000745      -35.7255267079      -52.2906727030  TIP3      13269           0.0000000000
     62060     13462  TIP3      OH2           -19.2917757171      -34.8139583269      -53.8007357688  TIP3      13270           0.0000000000
     62061     13462  TIP3      H1            -18.6612979486      -35.4093093756      -54.2183548161  TIP3      13270           0.0000000000
     62062     13462  TIP3      H2            -18.7880540921      -33.9786448219      -53.7176823701  TIP3      13270           0.0000000000
     62063     13463  TIP3      OH2           -33.7704605891      -35.4817905515      -54.2814412996  TIP3      13271           0.0000000000
     62064     13463  TIP3      H1            -34.5158727018      -35.7394565481      -54.8339313354  TIP3      13271           0.0000000000
     62065     13463  TIP3      H2            -33.2922028582      -36.3285139455      -54.2274953344  TIP3      13271           0.0000000000
     62066     13464  TIP3      OH2           -34.9326562618      -35.7861113999      -58.6040385049  TIP3      13272           0.0000000000
     62067     13464  TIP3      H1            -34.4791958759      -35.1145445626      -59.1258789493  TIP3      13272           0.0000000000
     62068     13464  TIP3      H2            -35.5457460958      -35.2215842023      -58.1044476436  TIP3      13272           0.0000000000
     62069     13465  TIP3      OH2           -29.2185366190      -35.6595870839      -54.5214682172  TIP3      13273           0.0000000000
     62070     13465  TIP3      H1            -28.3663231176      -35.1969284646      -54.5588560939  TIP3      13273           0.0000000000
     62071     13465  TIP3      H2            -29.3191754126      -35.8154095744      -53.5761680358  TIP3      13273           0.0000000000
     62072     13466  TIP3      OH2           -23.8315450508      -35.2012918325      -52.7301908905  TIP3      13274           0.0000000000
     62073     13466  TIP3      H1            -23.6900883202      -35.2490071550      -53.6797519807  TIP3      13274           0.0000000000
     62074     13466  TIP3      H2            -23.9212097244      -36.1772952776      -52.5926353464  TIP3      13274           0.0000000000
     62075     13467  TIP3      OH2           -22.2924699160      -35.4992835765      -57.1683007477  TIP3      13275           0.0000000000
     62076     13467  TIP3      H1            -23.0479405535      -34.9356455821      -57.3911898386  TIP3      13275           0.0000000000
     62077     13467  TIP3      H2            -22.6980391301      -36.3626394780      -57.0181896046  TIP3      13275           0.0000000000
     62078     13468  TIP3      OH2           -35.0641264218      -19.7817121432      -57.5230007533  TIP3      13276           0.0000000000
     62079     13468  TIP3      H1            -35.6747678962      -19.8066228060      -58.2738520816  TIP3      13276           0.0000000000
     62080     13468  TIP3      H2            -35.0457752788      -18.8283803251      -57.3783138552  TIP3      13276           0.0000000000
     62081     13469  TIP3      OH2           -33.1731238378      -33.8478878696      -60.0197295582  TIP3      13277           0.0000000000
     62082     13469  TIP3      H1            -32.6409714034      -34.4305648742      -60.5992141280  TIP3      13277           0.0000000000
     62083     13469  TIP3      H2            -32.4805829715      -33.5074885886      -59.4284885433  TIP3      13277           0.0000000000
     62084     13470  TIP3      OH2           -28.2070664915      -33.5805788352      -57.6109859527  TIP3      13278           0.0000000000
     62085     13470  TIP3      H1            -27.8486388491      -34.1462749605      -56.9049224109  TIP3      13278           0.0000000000
     62086     13470  TIP3      H2            -28.0509253107      -32.7067178887      -57.1839581127  TIP3      13278           0.0000000000
     62087     13471  TIP3      OH2           -26.1965555325      -18.5025990881      -59.2127717884  TIP3      13279           0.0000000000
     62088     13471  TIP3      H1            -25.2789094590      -18.2776460873      -59.4345920092  TIP3      13279           0.0000000000
     62089     13471  TIP3      H2            -26.4168451853      -19.0241435296      -60.0134059805  TIP3      13279           0.0000000000
     62090     13472  TIP3      OH2           -19.5066243954      -19.0037120877      -56.4909951266  TIP3      13280           0.0000000000
     62091     13472  TIP3      H1            -19.6922612813      -19.7861194585      -57.0640168500  TIP3      13280           0.0000000000
     62092     13472  TIP3      H2            -19.5685978274      -18.2689036511      -57.1355681494  TIP3      13280           0.0000000000
     62093     13473  TIP3      OH2           -33.9783758950      -34.9829060304      -44.9479420866  TIP3      13281           0.0000000000
     62094     13473  TIP3      H1            -34.3049600279      -35.7387978669      -44.4440406329  TIP3      13281           0.0000000000
     62095     13473  TIP3      H2            -33.0660287068      -34.9728904542      -44.5633342340  TIP3      13281           0.0000000000
     62096     13474  TIP3      OH2           -32.1369617920      -35.3879470967      -43.3102407646  TIP3      13282           0.0000000000
     62097     13474  TIP3      H1            -31.1960219288      -35.5789581202      -43.4464657163  TIP3      13282           0.0000000000
     62098     13474  TIP3      H2            -32.2866156591      -36.2440359007      -42.8608915067  TIP3      13282           0.0000000000
     62099     13475  TIP3      OH2           -33.2770815621      -18.8553597023      -60.6154281718  TIP3      13283           0.0000000000
     62100     13475  TIP3      H1            -33.5357064620      -18.5852366444      -59.7233053765  TIP3      13283           0.0000000000
     62101     13475  TIP3      H2            -32.4694763496      -19.3799360868      -60.4492540624  TIP3      13283           0.0000000000
     62102     13476  TIP3      OH2           -23.5563477379       37.0674922333      -43.1371058086  TIP3      13284           0.0000000000
     62103     13476  TIP3      H1            -23.4950704006       36.5097592547      -42.3332193604  TIP3      13284           0.0000000000
     62104     13476  TIP3      H2            -22.6622529981       36.8542324418      -43.4478947529  TIP3      13284           0.0000000000
     62105     13477  TIP3      OH2           -20.2542743107      -20.2551858443      -44.4205263620  TIP3      13285           0.0000000000
     62106     13477  TIP3      H1            -21.0583950335      -20.3910751412      -44.9674071679  TIP3      13285           0.0000000000
     62107     13477  TIP3      H2            -20.3704932971      -19.3081062351      -44.2036035830  TIP3      13285           0.0000000000
     62108     13478  TIP3      OH2            -5.8093321775      -26.3802988989      -54.4499469312  TIP3      13286           0.0000000000
     62109     13478  TIP3      H1             -5.8255358798      -25.3985814060      -54.4669612430  TIP3      13286           0.0000000000
     62110     13478  TIP3      H2             -6.5421251523      -26.6085384091      -55.0441773472  TIP3      13286           0.0000000000
     62111     13479  TIP3      OH2            -6.9538835792      -27.1214394495      -50.9339724617  TIP3      13287           0.0000000000
     62112     13479  TIP3      H1             -6.9669048155      -27.7737301109      -50.2209705931  TIP3      13287           0.0000000000
     62113     13479  TIP3      H2             -7.3154799397      -27.6191781052      -51.6850596323  TIP3      13287           0.0000000000
     62114     13480  TIP3      OH2           -14.6053695719      -27.4712549681      -49.4095941995  TIP3      13288           0.0000000000
     62115     13480  TIP3      H1            -14.5177857396      -28.1236189021      -48.6826373220  TIP3      13288           0.0000000000
     62116     13480  TIP3      H2            -13.8723075546      -26.8805923808      -49.1696946942  TIP3      13288           0.0000000000
     62117     13481  TIP3      OH2            -3.2701735018      -24.1731061475      -52.6551096229  TIP3      13289           0.0000000000
     62118     13481  TIP3      H1             -3.6822320144      -24.8907701143      -52.1639391474  TIP3      13289           0.0000000000
     62119     13481  TIP3      H2             -3.2441464380      -23.4657984276      -51.9839316053  TIP3      13289           0.0000000000
     62120     13482  TIP3      OH2           -13.6804828395      -22.9948009569      -50.8975973358  TIP3      13290           0.0000000000
     62121     13482  TIP3      H1            -13.9762371537      -23.8634595550      -51.2276802304  TIP3      13290           0.0000000000
     62122     13482  TIP3      H2            -12.7263638665      -23.1833015028      -50.8118337622  TIP3      13290           0.0000000000
     62123     13483  TIP3      OH2           -17.0402440032      -29.4473126485      -55.3919291438  TIP3      13291           0.0000000000
     62124     13483  TIP3      H1            -17.4760324733      -28.5795706146      -55.4586070323  TIP3      13291           0.0000000000
     62125     13483  TIP3      H2            -17.6004982365      -29.9848128521      -55.9666160156  TIP3      13291           0.0000000000
     62126     13484  TIP3      OH2           -16.3228176643      -27.2001644417      -53.2481105142  TIP3      13292           0.0000000000
     62127     13484  TIP3      H1            -16.0544660930      -28.0277964459      -52.8000359985  TIP3      13292           0.0000000000
     62128     13484  TIP3      H2            -15.6300819647      -27.1076008063      -53.9179910238  TIP3      13292           0.0000000000
     62129     13485  TIP3      OH2            -6.1421813099      -19.0189282815      -52.4119824358  TIP3      13293           0.0000000000
     62130     13485  TIP3      H1             -5.4997045702      -19.7084722377      -52.7057794586  TIP3      13293           0.0000000000
     62131     13485  TIP3      H2             -6.3632209056      -19.3563536497      -51.5444046159  TIP3      13293           0.0000000000
     62132     13486  TIP3      OH2            -8.5690089338      -24.7072910250      -50.4858807567  TIP3      13294           0.0000000000
     62133     13486  TIP3      H1             -8.2381562851      -25.3513949859      -51.1288132819  TIP3      13294           0.0000000000
     62134     13486  TIP3      H2             -7.7755337045      -24.5665775692      -49.9425482887  TIP3      13294           0.0000000000
     62135     13487  TIP3      OH2             0.0365679924      -33.0849198118      -49.7549892617  TIP3      13295           0.0000000000
     62136     13487  TIP3      H1              0.2007099405      -32.5081938680      -48.9736073566  TIP3      13295           0.0000000000
     62137     13487  TIP3      H2              0.5565570789      -32.6048602406      -50.4105623726  TIP3      13295           0.0000000000
     62138     13488  TIP3      OH2            -5.4107847856      -30.2543964117      -50.1432066314  TIP3      13296           0.0000000000
     62139     13488  TIP3      H1             -5.2601573912      -31.2207893091      -50.1424055998  TIP3      13296           0.0000000000
     62140     13488  TIP3      H2             -5.5156441725      -30.1088573147      -51.1033632963  TIP3      13296           0.0000000000
     62141     13489  TIP3      OH2           -12.2887793188      -32.1577118622      -52.9373748756  TIP3      13297           0.0000000000
     62142     13489  TIP3      H1            -12.1887876955      -31.3245024637      -53.4366205060  TIP3      13297           0.0000000000
     62143     13489  TIP3      H2            -12.7038525054      -32.7253373079      -53.6165582727  TIP3      13297           0.0000000000
     62144     13490  TIP3      OH2            -4.4558043874      -32.2090813562      -54.6519065636  TIP3      13298           0.0000000000
     62145     13490  TIP3      H1             -3.9061915182      -32.3219323499      -53.8357105052  TIP3      13298           0.0000000000
     62146     13490  TIP3      H2             -4.0120616713      -31.4435316767      -55.0585273211  TIP3      13298           0.0000000000
     62147     13491  TIP3      OH2           -15.6760598095      -29.7526207262      -52.2025118612  TIP3      13299           0.0000000000
     62148     13491  TIP3      H1            -15.0059880570      -30.2962420274      -51.7480045808  TIP3      13299           0.0000000000
     62149     13491  TIP3      H2            -15.5693013927      -30.0699456666      -53.1141703965  TIP3      13299           0.0000000000
     62150     13492  TIP3      OH2           -10.5128794851      -28.1988895023      -52.8840714694  TIP3      13300           0.0000000000
     62151     13492  TIP3      H1             -9.8446645438      -28.7820098692      -52.4885999943  TIP3      13300           0.0000000000
     62152     13492  TIP3      H2            -11.0336049263      -28.8512820293      -53.3938076250  TIP3      13300           0.0000000000
     62153     13493  TIP3      OH2             0.4678680882      -31.6564920863      -47.4701813068  TIP3      13301           0.0000000000
     62154     13493  TIP3      H1             -0.1590997299      -30.9085314545      -47.5733269829  TIP3      13301           0.0000000000
     62155     13493  TIP3      H2              0.4905285832      -31.7641269666      -46.5121631069  TIP3      13301           0.0000000000
     62156     13494  TIP3      OH2           -13.3762265221      -33.2116500539      -48.9100920041  TIP3      13302           0.0000000000
     62157     13494  TIP3      H1            -13.7020723821      -32.6764386073      -49.6627210845  TIP3      13302           0.0000000000
     62158     13494  TIP3      H2            -14.0820890405      -33.0358428853      -48.2383833207  TIP3      13302           0.0000000000
     62159     13495  TIP3      OH2            -6.0991436334      -23.7878607016      -55.3524673614  TIP3      13303           0.0000000000
     62160     13495  TIP3      H1             -6.3618374296      -24.0579270530      -56.2417395210  TIP3      13303           0.0000000000
     62161     13495  TIP3      H2             -6.3990327106      -22.8506585461      -55.2994837701  TIP3      13303           0.0000000000
     62162     13496  TIP3      OH2           -10.8882362219      -25.6230949397      -48.7612710134  TIP3      13304           0.0000000000
     62163     13496  TIP3      H1            -11.5731424939      -25.0160078268      -48.3876143309  TIP3      13304           0.0000000000
     62164     13496  TIP3      H2            -10.1736272340      -24.9967634811      -48.9255877805  TIP3      13304           0.0000000000
     62165     13497  TIP3      OH2            -2.7403483178      -32.7779467498      -52.6129552695  TIP3      13305           0.0000000000
     62166     13497  TIP3      H1             -2.9879546052      -33.4872125048      -52.0049136194  TIP3      13305           0.0000000000
     62167     13497  TIP3      H2             -2.0921854084      -32.3039051897      -52.0546878724  TIP3      13305           0.0000000000
     62168     13498  TIP3      OH2           -13.8299688291      -31.3609945265      -50.8871509395  TIP3      13306           0.0000000000
     62169     13498  TIP3      H1            -13.1777826800      -30.7145746772      -50.5461835075  TIP3      13306           0.0000000000
     62170     13498  TIP3      H2            -13.3112747057      -31.8083657970      -51.6022883144  TIP3      13306           0.0000000000
     62171     13499  TIP3      OH2           -12.4984253096      -23.5900892759      -48.0520295089  TIP3      13307           0.0000000000
     62172     13499  TIP3      H1            -12.4881588512      -22.6287826679      -48.1594729786  TIP3      13307           0.0000000000
     62173     13499  TIP3      H2            -13.2337129380      -23.7092939378      -47.3980018158  TIP3      13307           0.0000000000
     62174     13500  TIP3      OH2           -16.3782256583      -24.0157256284      -57.0411982203  TIP3      13308           0.0000000000
     62175     13500  TIP3      H1            -16.5946585011      -23.6623841569      -57.9215108169  TIP3      13308           0.0000000000
     62176     13500  TIP3      H2            -16.2476787409      -23.1932674730      -56.5271842776  TIP3      13308           0.0000000000
     62177     13501  TIP3      OH2            -2.7417695948      -22.3354669101      -50.2868475166  TIP3      13309           0.0000000000
     62178     13501  TIP3      H1             -3.7100272443      -22.2230147798      -50.1655198229  TIP3      13309           0.0000000000
     62179     13501  TIP3      H2             -2.4709350028      -21.4200510691      -50.4904265084  TIP3      13309           0.0000000000
     62180     13502  TIP3      OH2            -2.3733408329      -34.0593529117      -48.8546657796  TIP3      13310           0.0000000000
     62181     13502  TIP3      H1             -3.1240097900      -33.4666196181      -48.9898313807  TIP3      13310           0.0000000000
     62182     13502  TIP3      H2             -1.6896543386      -33.6457321235      -49.4164605270  TIP3      13310           0.0000000000
     62183     13503  TIP3      OH2            -9.4795754727      -35.9248649046      -51.6073966302  TIP3      13311           0.0000000000
     62184     13503  TIP3      H1             -9.4893214289      -36.8807266964      -51.4421893106  TIP3      13311           0.0000000000
     62185     13503  TIP3      H2            -10.2651528680      -35.6571404195      -51.1044172682  TIP3      13311           0.0000000000
     62186     13504  TIP3      OH2            -4.4763354887      -20.5520560578      -53.6995196964  TIP3      13312           0.0000000000
     62187     13504  TIP3      H1             -4.0515915967      -21.2716906603      -54.2097174852  TIP3      13312           0.0000000000
     62188     13504  TIP3      H2             -4.0447189361      -19.7628027673      -54.0908620913  TIP3      13312           0.0000000000
     62189     13505  TIP3      OH2            -3.2648468042      -22.6256054867      -55.1797057254  TIP3      13313           0.0000000000
     62190     13505  TIP3      H1             -3.5680258878      -23.3221531004      -55.7833896316  TIP3      13313           0.0000000000
     62191     13505  TIP3      H2             -3.2330391758      -23.1158778433      -54.3386323324  TIP3      13313           0.0000000000
     62192     13506  TIP3      OH2            -1.6531061048      -24.0275223630      -46.6876850976  TIP3      13314           0.0000000000
     62193     13506  TIP3      H1             -1.5051996726      -24.6827913217      -47.4053407004  TIP3      13314           0.0000000000
     62194     13506  TIP3      H2             -1.4452100002      -23.1863919399      -47.1331637298  TIP3      13314           0.0000000000
     62195     13507  TIP3      OH2            -7.1435151857      -27.1669550529      -56.9170142535  TIP3      13315           0.0000000000
     62196     13507  TIP3      H1             -7.8387189022      -26.5768717287      -57.2681128708  TIP3      13315           0.0000000000
     62197     13507  TIP3      H2             -6.4411179121      -27.0458610636      -57.5835522928  TIP3      13315           0.0000000000
     62198     13508  TIP3      OH2            -7.0719049193      -28.5725511568      -59.9157021257  TIP3      13316           0.0000000000
     62199     13508  TIP3      H1             -6.3663385253      -28.5884306828      -59.2511744556  TIP3      13316           0.0000000000
     62200     13508  TIP3      H2             -6.7662140019      -29.2897764825      -60.4851635653  TIP3      13316           0.0000000000
     62201     13509  TIP3      OH2             0.2361116069      -27.7142812244      -48.6430193258  TIP3      13317           0.0000000000
     62202     13509  TIP3      H1             -0.4224243270      -26.9912462784      -48.6036715740  TIP3      13317           0.0000000000
     62203     13509  TIP3      H2              0.7262075040      -27.4792741772      -49.4506551883  TIP3      13317           0.0000000000
     62204     13510  TIP3      OH2            -3.7078976353      -26.9403122662      -56.0006798320  TIP3      13318           0.0000000000
     62205     13510  TIP3      H1             -4.4506123288      -26.6855910965      -55.3997319453  TIP3      13318           0.0000000000
     62206     13510  TIP3      H2             -3.2304072972      -27.6095081176      -55.4783167608  TIP3      13318           0.0000000000
     62207     13511  TIP3      OH2            -3.7783528807      -28.7684999982      -46.8747500726  TIP3      13319           0.0000000000
     62208     13511  TIP3      H1             -3.7694074442      -27.9460660728      -46.3564043987  TIP3      13319           0.0000000000
     62209     13511  TIP3      H2             -4.4048978659      -28.4749147643      -47.5689051805  TIP3      13319           0.0000000000
     62210     13512  TIP3      OH2           -12.1036957389      -26.2732828303      -54.0720591521  TIP3      13320           0.0000000000
     62211     13512  TIP3      H1            -12.4072371286      -26.6290248454      -54.9409076869  TIP3      13320           0.0000000000
     62212     13512  TIP3      H2            -11.4717027076      -26.9588562432      -53.7626058162  TIP3      13320           0.0000000000
     62213     13513  TIP3      OH2           -10.7752619664      -22.9047920476      -51.3653976825  TIP3      13321           0.0000000000
     62214     13513  TIP3      H1            -10.7872853520      -23.3764632338      -52.2157997257  TIP3      13321           0.0000000000
     62215     13513  TIP3      H2             -9.9886677260      -23.2675090907      -50.9257144564  TIP3      13321           0.0000000000
     62216     13514  TIP3      OH2           -11.7625429381      -27.5376646395      -50.4417798048  TIP3      13322           0.0000000000
     62217     13514  TIP3      H1            -11.2092285894      -27.4221455658      -51.2380491914  TIP3      13322           0.0000000000
     62218     13514  TIP3      H2            -11.3914673992      -26.8571803340      -49.8217345838  TIP3      13322           0.0000000000
     62219     13515  TIP3      OH2            -5.3405076065      -21.9537172949      -49.7126794695  TIP3      13323           0.0000000000
     62220     13515  TIP3      H1             -5.6326782720      -21.3168884720      -49.0517596974  TIP3      13323           0.0000000000
     62221     13515  TIP3      H2             -5.6029016408      -22.8054624826      -49.2933253420  TIP3      13323           0.0000000000
     62222     13516  TIP3      OH2           -10.6277401389      -22.5727085021      -45.9313445124  TIP3      13324           0.0000000000
     62223     13516  TIP3      H1            -11.1971539020      -22.2905123311      -45.1976634227  TIP3      13324           0.0000000000
     62224     13516  TIP3      H2            -11.2353446418      -23.2605000137      -46.3209213263  TIP3      13324           0.0000000000
     62225     13517  TIP3      OH2            -4.8253842998      -27.7322662892      -58.3383285629  TIP3      13325           0.0000000000
     62226     13517  TIP3      H1             -4.2705934277      -27.5546009146      -57.5379231006  TIP3      13325           0.0000000000
     62227     13517  TIP3      H2             -4.3760102921      -27.2347698533      -59.0587538700  TIP3      13325           0.0000000000
     62228     13518  TIP3      OH2           -13.9614300405      -27.0554918461      -46.5630527857  TIP3      13326           0.0000000000
     62229     13518  TIP3      H1            -13.7230993417      -26.3117482578      -45.9483368049  TIP3      13326           0.0000000000
     62230     13518  TIP3      H2            -14.8592540536      -26.8009661860      -46.7808537782  TIP3      13326           0.0000000000
     62231     13519  TIP3      OH2            -7.1018216748      -21.0029977884      -54.8710228075  TIP3      13327           0.0000000000
     62232     13519  TIP3      H1             -6.6857509151      -20.6931735180      -54.0558089940  TIP3      13327           0.0000000000
     62233     13519  TIP3      H2             -7.6894191440      -20.2749980072      -55.1054072978  TIP3      13327           0.0000000000
     62234     13520  TIP3      OH2           -12.6035099243      -20.9901667978      -44.9689967434  TIP3      13328           0.0000000000
     62235     13520  TIP3      H1            -12.5972909174      -21.1856345548      -45.9276320355  TIP3      13328           0.0000000000
     62236     13520  TIP3      H2            -13.5119524532      -21.2260427515      -44.7184774841  TIP3      13328           0.0000000000
     62237     13521  TIP3      OH2            -1.0927898970      -35.8232485234      -58.6352888323  TIP3      13329           0.0000000000
     62238     13521  TIP3      H1             -1.9898520959      -35.8394711662      -58.2699357610  TIP3      13329           0.0000000000
     62239     13521  TIP3      H2             -0.8931636414      -34.9304469491      -58.9420062674  TIP3      13329           0.0000000000
     62240     13522  TIP3      OH2           -13.1248596010      -27.2700449158      -56.4669438143  TIP3      13330           0.0000000000
     62241     13522  TIP3      H1            -13.3924638500      -26.4535495246      -56.9503574115  TIP3      13330           0.0000000000
     62242     13522  TIP3      H2            -13.7966786103      -27.9026553282      -56.7140977175  TIP3      13330           0.0000000000
     62243     13523  TIP3      OH2             0.0092358428      -21.6446317486      -60.0850338522  TIP3      13331           0.0000000000
     62244     13523  TIP3      H1              0.1753407882      -20.7015490070      -59.9156099990  TIP3      13331           0.0000000000
     62245     13523  TIP3      H2              0.9327413968      -21.9577419423      -60.0885902150  TIP3      13331           0.0000000000
     62246     13524  TIP3      OH2           -17.0817193025      -24.8063379698      -47.5709506709  TIP3      13332           0.0000000000
     62247     13524  TIP3      H1            -17.4907216860      -24.9043441207      -48.4477595729  TIP3      13332           0.0000000000
     62248     13524  TIP3      H2            -16.9395918149      -25.7501469974      -47.3540254872  TIP3      13332           0.0000000000
     62249     13525  TIP3      OH2           -17.2644707182      -22.0859259035      -50.8013551512  TIP3      13333           0.0000000000
     62250     13525  TIP3      H1            -16.3023805767      -22.1967918764      -50.8254359043  TIP3      13333           0.0000000000
     62251     13525  TIP3      H2            -17.3527486575      -21.2698705910      -50.2932486660  TIP3      13333           0.0000000000
     62252     13526  TIP3      OH2             0.9658253198      -21.3790194349      -45.1032416037  TIP3      13334           0.0000000000
     62253     13526  TIP3      H1              0.8471107813      -22.3378817479      -45.1332898657  TIP3      13334           0.0000000000
     62254     13526  TIP3      H2              0.0915857952      -21.1306850380      -44.7199103350  TIP3      13334           0.0000000000
     62255     13527  TIP3      OH2            -8.0422454217      -21.8340903455      -46.2363016624  TIP3      13335           0.0000000000
     62256     13527  TIP3      H1             -8.0328549407      -20.9955007680      -45.7270162829  TIP3      13335           0.0000000000
     62257     13527  TIP3      H2             -8.9485683501      -22.1884355472      -46.0323394843  TIP3      13335           0.0000000000
     62258     13528  TIP3      OH2            -7.6177544346      -18.0871565647      -56.4478436131  TIP3      13336           0.0000000000
     62259     13528  TIP3      H1             -7.7558088433      -18.1582343127      -57.4089170961  TIP3      13336           0.0000000000
     62260     13528  TIP3      H2             -7.6360968029      -17.1309512288      -56.2871927797  TIP3      13336           0.0000000000
     62261     13529  TIP3      OH2           -14.0237084610      -19.1760885219      -54.6107387725  TIP3      13337           0.0000000000
     62262     13529  TIP3      H1            -13.8384050606      -19.6499536250      -53.7711909909  TIP3      13337           0.0000000000
     62263     13529  TIP3      H2            -14.8278848516      -19.6505739894      -54.8861544874  TIP3      13337           0.0000000000
     62264     13530  TIP3      OH2            -4.5811922404      -18.8839823966      -59.4698702998  TIP3      13338           0.0000000000
     62265     13530  TIP3      H1             -4.1267634327      -19.6426420957      -59.9036583666  TIP3      13338           0.0000000000
     62266     13530  TIP3      H2             -4.5415715309      -19.1447976247      -58.5256259414  TIP3      13338           0.0000000000
     62267     13531  TIP3      OH2            -4.8768831467      -18.9460562142      -56.6907739577  TIP3      13339           0.0000000000
     62268     13531  TIP3      H1             -5.8410402471      -18.8729464700      -56.5270412446  TIP3      13339           0.0000000000
     62269     13531  TIP3      H2             -4.6503108886      -19.6931846667      -56.1166194146  TIP3      13339           0.0000000000
     62270     13532  TIP3      OH2            -1.8869487895      -29.9273595394      -44.6362919816  TIP3      13340           0.0000000000
     62271     13532  TIP3      H1             -2.3615525650      -29.4679207381      -45.3491607027  TIP3      13340           0.0000000000
     62272     13532  TIP3      H2             -1.9012917247      -30.8454153054      -44.9449564290  TIP3      13340           0.0000000000
     62273     13533  TIP3      OH2           -14.7544972234      -23.4704683960      -46.6118956436  TIP3      13341           0.0000000000
     62274     13533  TIP3      H1            -14.4965296135      -23.8851572655      -45.7585535218  TIP3      13341           0.0000000000
     62275     13533  TIP3      H2            -15.5950031250      -23.9150193274      -46.8352454986  TIP3      13341           0.0000000000
     62276     13534  TIP3      OH2           -12.0929189314      -35.0650249094      -50.6503524823  TIP3      13342           0.0000000000
     62277     13534  TIP3      H1            -12.9832893540      -35.1254022771      -51.0488187165  TIP3      13342           0.0000000000
     62278     13534  TIP3      H2            -12.2014510184      -34.2085058308      -50.2066536610  TIP3      13342           0.0000000000
     62279     13535  TIP3      OH2            -7.4437937178      -35.3377862678      -47.2776463303  TIP3      13343           0.0000000000
     62280     13535  TIP3      H1             -7.0206200146      -35.7556863411      -46.5259144123  TIP3      13343           0.0000000000
     62281     13535  TIP3      H2             -8.3964272898      -35.4455078101      -47.1127478236  TIP3      13343           0.0000000000
     62282     13536  TIP3      OH2            -4.1377753653      -31.5571308873      -46.4111552871  TIP3      13344           0.0000000000
     62283     13536  TIP3      H1             -4.7205711370      -31.7092672119      -45.6322781545  TIP3      13344           0.0000000000
     62284     13536  TIP3      H2             -4.3026507415      -30.6283274538      -46.6590646791  TIP3      13344           0.0000000000
     62285     13537  TIP3      OH2            -3.3744395196      -26.7015460828      -60.5172417137  TIP3      13345           0.0000000000
     62286     13537  TIP3      H1             -3.3983485002      -26.8860021269      -61.4838558709  TIP3      13345           0.0000000000
     62287     13537  TIP3      H2             -2.5200230328      -26.2499292383      -60.4718722863  TIP3      13345           0.0000000000
     62288     13538  TIP3      OH2            -7.7455020252      -32.7962724277      -59.9737113989  TIP3      13346           0.0000000000
     62289     13538  TIP3      H1             -8.1268910381      -32.8553828169      -59.0867824040  TIP3      13346           0.0000000000
     62290     13538  TIP3      H2             -8.0920606502      -33.6488851282      -60.3071869322  TIP3      13346           0.0000000000
     62291     13539  TIP3      OH2           -11.9618759013      -30.0460513751      -49.4071741087  TIP3      13347           0.0000000000
     62292     13539  TIP3      H1            -12.7053783408      -30.0539647730      -48.7792502711  TIP3      13347           0.0000000000
     62293     13539  TIP3      H2            -12.0116352012      -29.1350834368      -49.7825319967  TIP3      13347           0.0000000000
     62294     13540  TIP3      OH2           -12.0037831514      -29.9388583508      -54.5676648447  TIP3      13348           0.0000000000
     62295     13540  TIP3      H1            -12.9460911063      -30.1768662676      -54.6961528948  TIP3      13348           0.0000000000
     62296     13540  TIP3      H2            -11.6307961292      -30.2302276087      -55.4216216064  TIP3      13348           0.0000000000
     62297     13541  TIP3      OH2            -6.4721182242      -29.4576950969      -55.8002911815  TIP3      13349           0.0000000000
     62298     13541  TIP3      H1             -6.8757911757      -28.6269134631      -56.1505359186  TIP3      13349           0.0000000000
     62299     13541  TIP3      H2             -5.7821943381      -29.5896501881      -56.4676888156  TIP3      13349           0.0000000000
     62300     13542  TIP3      OH2            -7.4240037818      -29.2240284292      -44.3634353261  TIP3      13350           0.0000000000
     62301     13542  TIP3      H1             -7.9585199658      -29.9934971085      -44.0486872499  TIP3      13350           0.0000000000
     62302     13542  TIP3      H2             -6.5913408068      -29.3472070843      -43.8790858281  TIP3      13350           0.0000000000
     62303     13543  TIP3      OH2            -5.4255295137      -29.9524223895      -52.9626555719  TIP3      13351           0.0000000000
     62304     13543  TIP3      H1             -5.7435042844      -29.3732632638      -53.6764432084  TIP3      13351           0.0000000000
     62305     13543  TIP3      H2             -5.3793576238      -30.7971306576      -53.4229108784  TIP3      13351           0.0000000000
     62306     13544  TIP3      OH2           -14.3527850536      -29.8184525344      -47.7611930949  TIP3      13352           0.0000000000
     62307     13544  TIP3      H1            -14.2496411115      -29.3657711252      -46.8970425998  TIP3      13352           0.0000000000
     62308     13544  TIP3      H2            -14.8020107201      -30.6420276716      -47.5259772431  TIP3      13352           0.0000000000
     62309     13545  TIP3      OH2           -10.9767821764      -32.3875251589      -60.8803110749  TIP3      13353           0.0000000000
     62310     13545  TIP3      H1            -11.4416533503      -32.8255146397      -60.1418909850  TIP3      13353           0.0000000000
     62311     13545  TIP3      H2            -11.6815401800      -31.9871723098      -61.4040509041  TIP3      13353           0.0000000000
     62312     13546  TIP3      OH2           -17.6798686739      -32.6641239916      -53.7808088325  TIP3      13354           0.0000000000
     62313     13546  TIP3      H1            -17.0023666706      -32.7007322722      -53.0717587500  TIP3      13354           0.0000000000
     62314     13546  TIP3      H2            -17.2319717878      -33.0575150938      -54.5477196436  TIP3      13354           0.0000000000
     62315     13547  TIP3      OH2           -16.4205434122      -31.9580293570      -58.3812948554  TIP3      13355           0.0000000000
     62316     13547  TIP3      H1            -15.9083613573      -31.3737413384      -58.9724356017  TIP3      13355           0.0000000000
     62317     13547  TIP3      H2            -17.1143337384      -31.3355407557      -58.0890323541  TIP3      13355           0.0000000000
     62318     13548  TIP3      OH2            -6.2600021136      -28.3579889762      -48.3960902417  TIP3      13356           0.0000000000
     62319     13548  TIP3      H1             -5.8756236402      -29.0460321621      -48.9793773613  TIP3      13356           0.0000000000
     62320     13548  TIP3      H2             -6.7229776002      -28.8892386619      -47.7235151022  TIP3      13356           0.0000000000
     62321     13549  TIP3      OH2            -9.4644150558      -32.3912526791      -53.5764828427  TIP3      13357           0.0000000000
     62322     13549  TIP3      H1            -10.3966906162      -32.3883239653      -53.2552437281  TIP3      13357           0.0000000000
     62323     13549  TIP3      H2             -8.9596183676      -32.5419508220      -52.7573666803  TIP3      13357           0.0000000000
     62324     13550  TIP3      OH2           -14.6415837704      -30.8318271715      -54.6912574035  TIP3      13358           0.0000000000
     62325     13550  TIP3      H1            -15.5268470802      -30.6825744216      -55.0832004190  TIP3      13358           0.0000000000
     62326     13550  TIP3      H2            -14.3466227572      -31.6616507011      -55.1039839313  TIP3      13358           0.0000000000
     62327     13551  TIP3      OH2           -10.9944342246      -30.7903928904      -57.0658015949  TIP3      13359           0.0000000000
     62328     13551  TIP3      H1            -10.0404847235      -30.6786905006      -56.9065317591  TIP3      13359           0.0000000000
     62329     13551  TIP3      H2            -11.2397408064      -30.0961057172      -57.7103312740  TIP3      13359           0.0000000000
     62330     13552  TIP3      OH2            -5.0428749684      -33.1691616058      -50.3422901873  TIP3      13360           0.0000000000
     62331     13552  TIP3      H1             -5.7216981779      -33.0910696147      -49.6345795468  TIP3      13360           0.0000000000
     62332     13552  TIP3      H2             -5.5671691222      -33.4395551920      -51.1014505182  TIP3      13360           0.0000000000
     62333     13553  TIP3      OH2           -12.2934684441      -29.6110394492      -59.4762455377  TIP3      13361           0.0000000000
     62334     13553  TIP3      H1            -12.8264198919      -29.9886352049      -60.1964134189  TIP3      13361           0.0000000000
     62335     13553  TIP3      H2            -11.4723288001      -29.4033113244      -59.9492235738  TIP3      13361           0.0000000000
     62336     13554  TIP3      OH2            -1.8467388777      -17.5079014534      -43.9932413353  TIP3      13362           0.0000000000
     62337     13554  TIP3      H1             -1.5800885968      -17.1243100336      -44.8475962406  TIP3      13362           0.0000000000
     62338     13554  TIP3      H2             -1.1226017382      -17.1879505102      -43.4344307238  TIP3      13362           0.0000000000
     62339     13555  TIP3      OH2           -14.4022365779      -24.9797676931      -44.3490057452  TIP3      13363           0.0000000000
     62340     13555  TIP3      H1            -13.5193386078      -24.8308754307      -43.9308312981  TIP3      13363           0.0000000000
     62341     13555  TIP3      H2            -15.0453621354      -24.8861047732      -43.6419809195  TIP3      13363           0.0000000000
     62342     13556  TIP3      OH2            -8.1600339718      -29.6325422409      -51.6701369423  TIP3      13364           0.0000000000
     62343     13556  TIP3      H1             -7.5673502494      -30.1808407548      -52.1966265795  TIP3      13364           0.0000000000
     62344     13556  TIP3      H2             -8.3195019574      -30.1748951048      -50.8846010662  TIP3      13364           0.0000000000
     62345     13557  TIP3      OH2           -13.1734716743      -33.4529462035      -55.2239343853  TIP3      13365           0.0000000000
     62346     13557  TIP3      H1            -13.4860474689      -34.3733318848      -55.2062786887  TIP3      13365           0.0000000000
     62347     13557  TIP3      H2            -12.3933605234      -33.5373174088      -55.7821604373  TIP3      13365           0.0000000000
     62348     13558  TIP3      OH2            -9.5199605327      -31.2520638986      -49.2655981637  TIP3      13366           0.0000000000
     62349     13558  TIP3      H1            -10.3644415729      -30.7667155415      -49.1562242178  TIP3      13366           0.0000000000
     62350     13558  TIP3      H2             -8.9765646402      -30.9371755791      -48.5208481365  TIP3      13366           0.0000000000
     62351     13559  TIP3      OH2            -8.9160620335      -25.1343979588      -57.5389246691  TIP3      13367           0.0000000000
     62352     13559  TIP3      H1             -9.7541173363      -25.5173702380      -57.8881899403  TIP3      13367           0.0000000000
     62353     13559  TIP3      H2             -9.1868483023      -24.9207919331      -56.6226881991  TIP3      13367           0.0000000000
     62354     13560  TIP3      OH2            -1.7539903821      -25.8742837760      -48.7513482643  TIP3      13368           0.0000000000
     62355     13560  TIP3      H1             -1.1922959112      -25.3911076468      -49.3844538712  TIP3      13368           0.0000000000
     62356     13560  TIP3      H2             -2.6149900292      -25.8303473119      -49.2145860908  TIP3      13368           0.0000000000
     62357     13561  TIP3      OH2            -5.1317686474      -32.2786416052      -59.3163049360  TIP3      13369           0.0000000000
     62358     13561  TIP3      H1             -6.0666467529      -32.1040131648      -59.5535005784  TIP3      13369           0.0000000000
     62359     13561  TIP3      H2             -4.7809379167      -31.3994156038      -59.0556395927  TIP3      13369           0.0000000000
     62360     13562  TIP3      OH2            -7.3991827318      -24.8014983272      -46.2917677571  TIP3      13370           0.0000000000
     62361     13562  TIP3      H1             -7.8259020242      -25.2390167484      -45.5418690262  TIP3      13370           0.0000000000
     62362     13562  TIP3      H2             -7.7353866844      -23.8992619093      -46.2124312452  TIP3      13370           0.0000000000
     62363     13563  TIP3      OH2            -4.3564363066      -30.3637491267      -57.7447705227  TIP3      13371           0.0000000000
     62364     13563  TIP3      H1             -3.4588479663      -30.4672961826      -57.3661500613  TIP3      13371           0.0000000000
     62365     13563  TIP3      H2             -4.2843563851      -29.5293551238      -58.2518584526  TIP3      13371           0.0000000000
     62366     13564  TIP3      OH2           -13.8323465241      -25.6853692331      -51.7411062370  TIP3      13372           0.0000000000
     62367     13564  TIP3      H1            -13.1581400701      -25.7509670208      -52.4501472825  TIP3      13372           0.0000000000
     62368     13564  TIP3      H2            -13.7651626834      -26.5472529865      -51.2981746847  TIP3      13372           0.0000000000
     62369     13565  TIP3      OH2            -6.8540427786      -23.6067802724      -58.5199731500  TIP3      13373           0.0000000000
     62370     13565  TIP3      H1             -7.2123748166      -22.7646408434      -58.1653752873  TIP3      13373           0.0000000000
     62371     13565  TIP3      H2             -7.5841876827      -24.2281465095      -58.3116354277  TIP3      13373           0.0000000000
     62372     13566  TIP3      OH2           -16.8701637708      -27.2767116902      -46.4885509035  TIP3      13374           0.0000000000
     62373     13566  TIP3      H1            -16.6538079498      -27.7164278992      -45.6404816512  TIP3      13374           0.0000000000
     62374     13566  TIP3      H2            -17.4691508576      -27.9035156258      -46.9277075972  TIP3      13374           0.0000000000
     62375     13567  TIP3      OH2            -9.8324360596      -27.7734316337      -44.2797297326  TIP3      13375           0.0000000000
     62376     13567  TIP3      H1            -10.1637917579      -27.9767137670      -45.1672838073  TIP3      13375           0.0000000000
     62377     13567  TIP3      H2             -8.8964208314      -28.0339747726      -44.3390339149  TIP3      13375           0.0000000000
     62378     13568  TIP3      OH2            -5.1415065690      -22.3824020692      -46.3609633091  TIP3      13376           0.0000000000
     62379     13568  TIP3      H1             -6.0689427493      -22.2061920921      -46.5938492639  TIP3      13376           0.0000000000
     62380     13568  TIP3      H2             -5.1784669840      -22.0903632098      -45.4305592759  TIP3      13376           0.0000000000
     62381     13569  TIP3      OH2             0.4588987985      -30.1847050123      -57.9350789311  TIP3      13377           0.0000000000
     62382     13569  TIP3      H1             -0.0033922264      -30.4845819153      -58.7373361617  TIP3      13377           0.0000000000
     62383     13569  TIP3      H2              0.6448992729      -29.2616275380      -58.2221195415  TIP3      13377           0.0000000000
     62384     13570  TIP3      OH2             0.5103283988      -24.3400423819      -45.1686468334  TIP3      13378           0.0000000000
     62385     13570  TIP3      H1             -0.3820439688      -24.1211334506      -45.5339786401  TIP3      13378           0.0000000000
     62386     13570  TIP3      H2              1.0563978897      -24.3934854369      -45.9803611638  TIP3      13378           0.0000000000
     62387     13571  TIP3      OH2            -1.2227586337      -21.3760189210      -57.5821651588  TIP3      13379           0.0000000000
     62388     13571  TIP3      H1             -1.5524040499      -22.2135537485      -57.2321979108  TIP3      13379           0.0000000000
     62389     13571  TIP3      H2             -0.8664220066      -21.5952863253      -58.4588041802  TIP3      13379           0.0000000000
     62390     13572  TIP3      OH2            -3.9785884588      -26.5600921042      -50.4670599862  TIP3      13380           0.0000000000
     62391     13572  TIP3      H1             -4.9188871703      -26.7686563102      -50.5798008597  TIP3      13380           0.0000000000
     62392     13572  TIP3      H2             -3.5471935032      -27.3182829994      -50.9058717473  TIP3      13380           0.0000000000
     62393     13573  TIP3      OH2           -11.4942159402      -22.1013216303      -54.1067465710  TIP3      13381           0.0000000000
     62394     13573  TIP3      H1            -10.9587900970      -21.4559398614      -54.5939110396  TIP3      13381           0.0000000000
     62395     13573  TIP3      H2            -12.2468588309      -22.1305464622      -54.7459554492  TIP3      13381           0.0000000000
     62396     13574  TIP3      OH2           -15.6899171803      -27.3873535368      -59.7944727542  TIP3      13382           0.0000000000
     62397     13574  TIP3      H1            -15.1162694351      -26.7183411904      -59.3765306074  TIP3      13382           0.0000000000
     62398     13574  TIP3      H2            -16.5851635630      -27.0820289251      -59.5516772923  TIP3      13382           0.0000000000
     62399     13575  TIP3      OH2           -10.0152796404      -24.5648526823      -54.7943410824  TIP3      13383           0.0000000000
     62400     13575  TIP3      H1            -10.3751809261      -23.6581681745      -54.7976573721  TIP3      13383           0.0000000000
     62401     13575  TIP3      H2            -10.7823936739      -25.0430503386      -54.4303661393  TIP3      13383           0.0000000000
     62402     13576  TIP3      OH2            -9.5951155453      -20.3757235374      -48.4475886144  TIP3      13384           0.0000000000
     62403     13576  TIP3      H1             -9.1237786644      -19.5696977309      -48.7226094909  TIP3      13384           0.0000000000
     62404     13576  TIP3      H2             -9.0016387700      -20.7378946161      -47.7622381209  TIP3      13384           0.0000000000
     62405     13577  TIP3      OH2           -11.3543387568      -19.5701471629      -55.3352170629  TIP3      13385           0.0000000000
     62406     13577  TIP3      H1            -12.3235528844      -19.4887467815      -55.1956966131  TIP3      13385           0.0000000000
     62407     13577  TIP3      H2            -11.0138490087      -18.7322675342      -54.9760546717  TIP3      13385           0.0000000000
     62408     13578  TIP3      OH2            -6.0918914000      -24.3881056586      -48.8192490897  TIP3      13386           0.0000000000
     62409     13578  TIP3      H1             -6.4096345751      -24.5745040948      -47.9095798927  TIP3      13386           0.0000000000
     62410     13578  TIP3      H2             -5.4367595946      -25.0875711893      -48.9857382709  TIP3      13386           0.0000000000
     62411     13579  TIP3      OH2            -3.7403307133      -23.3008771051      -59.7331061674  TIP3      13387           0.0000000000
     62412     13579  TIP3      H1             -3.4393913337      -23.7770065256      -58.9324088992  TIP3      13387           0.0000000000
     62413     13579  TIP3      H2             -4.6961302564      -23.4848521835      -59.6493210260  TIP3      13387           0.0000000000
     62414     13580  TIP3      OH2            -3.2503290315      -19.7994026436      -46.3361642501  TIP3      13388           0.0000000000
     62415     13580  TIP3      H1             -3.9427521281      -20.2945642311      -46.8127405303  TIP3      13388           0.0000000000
     62416     13580  TIP3      H2             -3.0696401110      -19.0991188856      -46.9978145421  TIP3      13388           0.0000000000
     62417     13581  TIP3      OH2             0.7311607535      -18.9532809525      -59.4789381143  TIP3      13389           0.0000000000
     62418     13581  TIP3      H1              1.4189764995      -18.2884151387      -59.6845639221  TIP3      13389           0.0000000000
     62419     13581  TIP3      H2              0.0162150397      -18.3420079905      -59.1934784620  TIP3      13389           0.0000000000
     62420     13582  TIP3      OH2           -15.1969725693      -32.5668439133      -46.9236034927  TIP3      13390           0.0000000000
     62421     13582  TIP3      H1            -16.1025763464      -32.2098436955      -46.9630008259  TIP3      13390           0.0000000000
     62422     13582  TIP3      H2            -15.3298008492      -33.4354659267      -46.5065087078  TIP3      13390           0.0000000000
     62423     13583  TIP3      OH2            -2.9509647140      -24.6708730924      -57.4932885669  TIP3      13391           0.0000000000
     62424     13583  TIP3      H1             -3.1946147736      -25.4557848992      -56.9557107982  TIP3      13391           0.0000000000
     62425     13583  TIP3      H2             -1.9983970339      -24.6298325679      -57.3117987999  TIP3      13391           0.0000000000
     62426     13584  TIP3      OH2           -15.5808408696      -20.7743637175      -48.5121829699  TIP3      13392           0.0000000000
     62427     13584  TIP3      H1            -15.2555756480      -21.6900133280      -48.4973021910  TIP3      13392           0.0000000000
     62428     13584  TIP3      H2            -15.3148418771      -20.4686071782      -47.6380028526  TIP3      13392           0.0000000000
     62429     13585  TIP3      OH2            -9.5894879699      -22.2238322057      -61.2942889886  TIP3      13393           0.0000000000
     62430     13585  TIP3      H1             -9.5081900205      -23.0233279949      -61.8297199339  TIP3      13393           0.0000000000
     62431     13585  TIP3      H2            -10.0244710811      -22.6186750431      -60.4884873907  TIP3      13393           0.0000000000
     62432     13586  TIP3      OH2           -10.5741592783      -22.6884262990      -58.9161310604  TIP3      13394           0.0000000000
     62433     13586  TIP3      H1            -10.6717112241      -23.1997292373      -58.0922520590  TIP3      13394           0.0000000000
     62434     13586  TIP3      H2            -10.7728511264      -21.8129889737      -58.5075215041  TIP3      13394           0.0000000000
     62435     13587  TIP3      OH2           -14.3111113684      -25.4534707963      -58.3357189970  TIP3      13395           0.0000000000
     62436     13587  TIP3      H1            -14.9733162899      -25.0478066372      -57.7425698905  TIP3      13395           0.0000000000
     62437     13587  TIP3      H2            -13.7519502135      -24.6770221642      -58.5348302705  TIP3      13395           0.0000000000
     62438     13588  TIP3      OH2            -6.4471398321      -32.7830434234      -47.9916617872  TIP3      13396           0.0000000000
     62439     13588  TIP3      H1             -5.7321098992      -32.7187321715      -47.3478255485  TIP3      13396           0.0000000000
     62440     13588  TIP3      H2             -6.8193319544      -33.6686161603      -47.8087359905  TIP3      13396           0.0000000000
     62441     13589  TIP3      OH2            -5.6344257607      -33.2010680801      -56.8875940207  TIP3      13397           0.0000000000
     62442     13589  TIP3      H1             -5.5534264963      -32.7263443228      -57.7577803945  TIP3      13397           0.0000000000
     62443     13589  TIP3      H2             -5.2983278323      -32.5193667864      -56.2825913363  TIP3      13397           0.0000000000
     62444     13590  TIP3      OH2            -7.9950218842      -21.0296215866      -58.0731874087  TIP3      13398           0.0000000000
     62445     13590  TIP3      H1             -8.8533793344      -20.5481854189      -58.0157086331  TIP3      13398           0.0000000000
     62446     13590  TIP3      H2             -7.5009550450      -20.4822864243      -58.6915511539  TIP3      13398           0.0000000000
     62447     13591  TIP3      OH2            -8.4378191571      -31.5075565231      -56.0602022114  TIP3      13399           0.0000000000
     62448     13591  TIP3      H1             -7.7215078039      -30.8432350550      -56.0349084149  TIP3      13399           0.0000000000
     62449     13591  TIP3      H2             -8.7535165929      -31.5438673061      -55.1333433200  TIP3      13399           0.0000000000
     62450     13592  TIP3      OH2            -7.9286836355      -30.4269831559      -46.8821887882  TIP3      13400           0.0000000000
     62451     13592  TIP3      H1             -7.8533079984      -29.8754828527      -46.0799721484  TIP3      13400           0.0000000000
     62452     13592  TIP3      H2             -7.2678566494      -31.1230622128      -46.7861382001  TIP3      13400           0.0000000000
     62453     13593  TIP3      OH2            -7.5601547982      -34.3905767967      -55.1224911206  TIP3      13401           0.0000000000
     62454     13593  TIP3      H1             -7.9840537722      -33.7300185570      -54.5441907502  TIP3      13401           0.0000000000
     62455     13593  TIP3      H2             -6.9926499350      -33.8040282994      -55.6568102237  TIP3      13401           0.0000000000
     62456     13594  TIP3      OH2           -10.5850464228      -19.9914084424      -58.0727508594  TIP3      13402           0.0000000000
     62457     13594  TIP3      H1            -10.5420067924      -19.1713740654      -58.6088946729  TIP3      13402           0.0000000000
     62458     13594  TIP3      H2            -10.9122180402      -19.6807079104      -57.1979114949  TIP3      13402           0.0000000000
     62459     13595  TIP3      OH2           -11.9938516714      -33.2985098500      -58.4953877971  TIP3      13403           0.0000000000
     62460     13595  TIP3      H1            -12.0500336312      -32.4031375869      -58.1069924831  TIP3      13403           0.0000000000
     62461     13595  TIP3      H2            -11.0712561472      -33.4995108982      -58.2470204846  TIP3      13403           0.0000000000
     62462     13596  TIP3      OH2            -1.7534730090      -32.5590565670      -46.0221986010  TIP3      13404           0.0000000000
     62463     13596  TIP3      H1             -2.6787052455      -32.2330923196      -46.1587232435  TIP3      13404           0.0000000000
     62464     13596  TIP3      H2             -1.4568410900      -32.5861832798      -46.9519866923  TIP3      13404           0.0000000000
     62465     13597  TIP3      OH2            -3.1531088480      -28.7597137659      -52.0193493571  TIP3      13405           0.0000000000
     62466     13597  TIP3      H1             -3.9737245158      -29.2041149477      -52.3005643102  TIP3      13405           0.0000000000
     62467     13597  TIP3      H2             -2.6566223844      -29.4521579075      -51.5236025719  TIP3      13405           0.0000000000
     62468     13598  TIP3      OH2           -13.7911127864      -22.7740322040      -59.5930704928  TIP3      13406           0.0000000000
     62469     13598  TIP3      H1            -13.1307036667      -22.3032288967      -59.0309163443  TIP3      13406           0.0000000000
     62470     13598  TIP3      H2            -13.1954480643      -23.3247008423      -60.1261774315  TIP3      13406           0.0000000000
     62471     13599  TIP3      OH2           -15.4094837692      -30.1614079384      -60.2846430819  TIP3      13407           0.0000000000
     62472     13599  TIP3      H1            -15.3880942107      -29.2023573899      -60.0884354762  TIP3      13407           0.0000000000
     62473     13599  TIP3      H2            -16.2956257613      -30.3418775721      -60.6037968121  TIP3      13407           0.0000000000
     62474     13600  TIP3      OH2            -2.0736606273      -19.5154910012      -50.3625187487  TIP3      13408           0.0000000000
     62475     13600  TIP3      H1             -2.1658153654      -18.8303474906      -51.0541406052  TIP3      13408           0.0000000000
     62476     13600  TIP3      H2             -1.1109453782      -19.4570704872      -50.1864028779  TIP3      13408           0.0000000000
     62477     13601  TIP3      OH2           -14.8251766861      -35.2255001465      -51.4997475099  TIP3      13409           0.0000000000
     62478     13601  TIP3      H1            -14.7655136929      -35.3265583120      -52.4782021184  TIP3      13409           0.0000000000
     62479     13601  TIP3      H2            -14.9712553354      -36.1490734859      -51.2742273597  TIP3      13409           0.0000000000
     62480     13602  TIP3      OH2           -15.6595107107      -21.4459891571      -55.3767787469  TIP3      13410           0.0000000000
     62481     13602  TIP3      H1            -16.4982921109      -20.9869100289      -55.4872402513  TIP3      13410           0.0000000000
     62482     13602  TIP3      H2            -15.1227317026      -21.0609032313      -56.0894452777  TIP3      13410           0.0000000000
     62483     13603  TIP3      OH2           -16.4322696780      -18.8175463421      -44.1275503915  TIP3      13411           0.0000000000
     62484     13603  TIP3      H1            -15.8223075391      -19.0122759850      -43.3900437574  TIP3      13411           0.0000000000
     62485     13603  TIP3      H2            -16.8184998067      -19.6926247027      -44.3079460075  TIP3      13411           0.0000000000
     62486     13604  TIP3      OH2           -11.7561020336      -19.9191116145      -42.5249486419  TIP3      13412           0.0000000000
     62487     13604  TIP3      H1            -10.9921319724      -20.4079388029      -42.1965941635  TIP3      13412           0.0000000000
     62488     13604  TIP3      H2            -11.7785394730      -20.1948887173      -43.4657423153  TIP3      13412           0.0000000000
     62489     13605  TIP3      OH2            -7.6090623523      -20.3821891727      -61.1114046415  TIP3      13413           0.0000000000
     62490     13605  TIP3      H1             -8.3031002844      -21.0420454543      -60.8870527434  TIP3      13413           0.0000000000
     62491     13605  TIP3      H2             -6.8936392505      -20.9829420067      -61.3614232052  TIP3      13413           0.0000000000
     62492     13606  TIP3      OH2            -5.2125678952      -21.5085936014      -43.7577098456  TIP3      13414           0.0000000000
     62493     13606  TIP3      H1             -5.5475690069      -22.3924876551      -43.4922301042  TIP3      13414           0.0000000000
     62494     13606  TIP3      H2             -4.4531227005      -21.3960716839      -43.1593560577  TIP3      13414           0.0000000000
     62495     13607  TIP3      OH2            -3.0516927869      -20.6391109398      -60.9282771038  TIP3      13415           0.0000000000
     62496     13607  TIP3      H1             -2.7558646315      -21.4150517626      -60.4248640992  TIP3      13415           0.0000000000
     62497     13607  TIP3      H2             -2.2890102770      -20.4141492719      -61.4804904401  TIP3      13415           0.0000000000
     62498     13608  TIP3      OH2           -16.6291947752      -25.0721674565      -43.0450342115  TIP3      13416           0.0000000000
     62499     13608  TIP3      H1            -16.3301615999      -25.9217185791      -43.4333875999  TIP3      13416           0.0000000000
     62500     13608  TIP3      H2            -17.2552857778      -24.7810271740      -43.7270249007  TIP3      13416           0.0000000000
     62501     13609  TIP3      OH2           -12.1759310791      -24.7169294191      -61.1380207536  TIP3      13417           0.0000000000
     62502     13609  TIP3      H1            -12.0261420061      -25.4417277695      -60.5094557113  TIP3      13417           0.0000000000
     62503     13609  TIP3      H2            -11.3990618242      -24.8164160270      -61.7182028847  TIP3      13417           0.0000000000
     62504     13610  TIP3      OH2            -9.6169224512      -25.0505660695      -43.6935738812  TIP3      13418           0.0000000000
     62505     13610  TIP3      H1            -10.1522233706      -24.7805895656      -44.4879009829  TIP3      13418           0.0000000000
     62506     13610  TIP3      H2             -9.7293534018      -26.0196693133      -43.8241490373  TIP3      13418           0.0000000000
     62507     13611  TIP3      OH2            -6.7310039358      -23.5903662588      -61.3315111420  TIP3      13419           0.0000000000
     62508     13611  TIP3      H1             -7.0048766280      -23.5072298404      -60.4043847909  TIP3      13419           0.0000000000
     62509     13611  TIP3      H2             -6.9240125571      -24.5470377513      -61.4761719030  TIP3      13419           0.0000000000
     62510     13612  TIP3      OH2            -4.1009662148      -25.1958682647      -46.3516509115  TIP3      13420           0.0000000000
     62511     13612  TIP3      H1             -3.3143080011      -24.6117743876      -46.4129655172  TIP3      13420           0.0000000000
     62512     13612  TIP3      H2             -4.8029444632      -24.5293567427      -46.3140555869  TIP3      13420           0.0000000000
     62513     13613  TIP3      OH2           -15.6633415519      -27.8365241076      -43.7463958095  TIP3      13421           0.0000000000
     62514     13613  TIP3      H1            -15.1611252722      -28.6527736189      -43.8452885519  TIP3      13421           0.0000000000
     62515     13613  TIP3      H2            -15.8156011255      -27.8008258901      -42.7921514974  TIP3      13421           0.0000000000
     62516     13614  TIP3      OH2           -10.9422000819      -26.7005924799      -58.6809330731  TIP3      13422           0.0000000000
     62517     13614  TIP3      H1            -11.4714582162      -27.2082230314      -58.0477380509  TIP3      13422           0.0000000000
     62518     13614  TIP3      H2            -10.6651783593      -27.3704991394      -59.3388989380  TIP3      13422           0.0000000000
     62519     13615  TIP3      OH2           -11.7076588865      -28.8848219068      -46.4118990991  TIP3      13423           0.0000000000
     62520     13615  TIP3      H1            -12.2475626915      -28.1252156854      -46.1211994433  TIP3      13423           0.0000000000
     62521     13615  TIP3      H2            -11.2954170588      -28.4826374447      -47.1937827334  TIP3      13423           0.0000000000
     62522     13616  TIP3      OH2            -9.8848275392      -28.4605483903      -60.4823353661  TIP3      13424           0.0000000000
     62523     13616  TIP3      H1            -10.0382312276      -28.5420092067      -61.4442712386  TIP3      13424           0.0000000000
     62524     13616  TIP3      H2             -8.9090620992      -28.4052403712      -60.4162377279  TIP3      13424           0.0000000000
     62525     13617  TIP3      OH2            -6.6127088151      -26.2992604629      -43.0523661470  TIP3      13425           0.0000000000
     62526     13617  TIP3      H1             -5.6593477120      -26.3156286959      -43.1811146268  TIP3      13425           0.0000000000
     62527     13617  TIP3      H2             -6.7881320061      -27.0721543337      -42.4922210275  TIP3      13425           0.0000000000
     62528     13618  TIP3      OH2            -0.5593758430      -26.1383722208      -61.0712100886  TIP3      13426           0.0000000000
     62529     13618  TIP3      H1             -0.7455019272      -26.5192837673      -61.9428544860  TIP3      13426           0.0000000000
     62530     13618  TIP3      H2             -0.4673074129      -25.1758880026      -61.2579248331  TIP3      13426           0.0000000000
     62531     13619  TIP3      OH2           -11.2947478631      -31.4888232270      -45.3385678141  TIP3      13427           0.0000000000
     62532     13619  TIP3      H1            -11.1688997410      -32.2020842842      -45.9875773797  TIP3      13427           0.0000000000
     62533     13619  TIP3      H2            -11.3371145736      -30.6711698692      -45.8867080332  TIP3      13427           0.0000000000
     62534     13620  TIP3      OH2           -10.8895563898      -33.0930982327      -47.8130475747  TIP3      13428           0.0000000000
     62535     13620  TIP3      H1            -10.3747831616      -32.6183464716      -48.5061028683  TIP3      13428           0.0000000000
     62536     13620  TIP3      H2            -11.7853950318      -33.1959104083      -48.2154782057  TIP3      13428           0.0000000000
     62537     13621  TIP3      OH2            -9.3420901034      -27.6465665294      -47.5441031870  TIP3      13429           0.0000000000
     62538     13621  TIP3      H1             -8.5869478435      -27.7771999997      -48.1213137718  TIP3      13429           0.0000000000
     62539     13621  TIP3      H2             -9.7118402414      -26.7999970469      -47.8509778303  TIP3      13429           0.0000000000
     62540     13622  TIP3      OH2            -4.9527621168      -29.8733770928      -42.5841156650  TIP3      13430           0.0000000000
     62541     13622  TIP3      H1             -4.7159102769      -30.8096095711      -42.6703596854  TIP3      13430           0.0000000000
     62542     13622  TIP3      H2             -4.0871137269      -29.4308146700      -42.5464938031  TIP3      13430           0.0000000000
     62543     13623  TIP3      OH2            -3.6070189000      -27.0769838636      -44.4109940251  TIP3      13431           0.0000000000
     62544     13623  TIP3      H1             -3.8609988341      -26.3570068310      -45.0293567038  TIP3      13431           0.0000000000
     62545     13623  TIP3      H2             -2.6507777425      -27.1089947703      -44.6008556658  TIP3      13431           0.0000000000
     62546     13624  TIP3      OH2           -12.8214891169      -30.2785177498      -43.3905290293  TIP3      13432           0.0000000000
     62547     13624  TIP3      H1            -13.6000160503      -30.8336031625      -43.5926165614  TIP3      13432           0.0000000000
     62548     13624  TIP3      H2            -12.1703162913      -30.5906489376      -44.0457363720  TIP3      13432           0.0000000000
     62549     13625  TIP3      OH2           -10.2404466927      -35.4807823382      -47.1172816136  TIP3      13433           0.0000000000
     62550     13625  TIP3      H1            -10.2973016962      -34.5400523167      -47.4168001213  TIP3      13433           0.0000000000
     62551     13625  TIP3      H2            -10.8234045806      -35.8950805772      -47.7694122610  TIP3      13433           0.0000000000
     62552     13626  TIP3      OH2            -8.8492680048      -31.3171822815      -43.7802222416  TIP3      13434           0.0000000000
     62553     13626  TIP3      H1             -9.1271436250      -31.6227859814      -42.8968718380  TIP3      13434           0.0000000000
     62554     13626  TIP3      H2             -9.6237119961      -31.5635461769      -44.3102834670  TIP3      13434           0.0000000000
     62555     13627  TIP3      OH2            -6.1028422626      -32.1904205510      -44.6665229788  TIP3      13435           0.0000000000
     62556     13627  TIP3      H1             -7.0704428134      -32.1672481722      -44.5574104853  TIP3      13435           0.0000000000
     62557     13627  TIP3      H2             -5.8237108557      -32.8305261780      -43.9822815687  TIP3      13435           0.0000000000
     62558     13628  TIP3      OH2            -4.5087785235      -33.4750657663      -42.7487943427  TIP3      13436           0.0000000000
     62559     13628  TIP3      H1             -4.6013724698      -34.4602104230      -42.7744708000  TIP3      13436           0.0000000000
     62560     13628  TIP3      H2             -4.8012002342      -33.2817515137      -41.8414672088  TIP3      13436           0.0000000000
     62561     13629  TIP3      OH2           -14.7636957308      -32.3170615993      -43.6640906234  TIP3      13437           0.0000000000
     62562     13629  TIP3      H1            -14.4959006795      -33.0514469073      -44.2474643508  TIP3      13437           0.0000000000
     62563     13629  TIP3      H2            -14.8300183035      -32.7721524039      -42.8005624188  TIP3      13437           0.0000000000
     62564     13630  TIP3      OH2            -9.8975267116       36.7218673998      -44.6582932592  TIP3      13438           0.0000000000
     62565     13630  TIP3      H1             -9.2140011530       36.0502335756      -44.6135133181  TIP3      13438           0.0000000000
     62566     13630  TIP3      H2            -10.0003425583       36.9296785777      -45.6107387346  TIP3      13438           0.0000000000
     62567     13631  TIP3      OH2            -9.4866642454      -34.5958399531      -42.6190298197  TIP3      13439           0.0000000000
     62568     13631  TIP3      H1             -9.6720590074      -35.1704931427      -43.3934206957  TIP3      13439           0.0000000000
     62569     13631  TIP3      H2            -10.1276120266      -33.8740972152      -42.6851982866  TIP3      13439           0.0000000000
     62570     13632  TIP3      OH2           -10.0548166506      -17.7461368090      -59.4025652570  TIP3      13440           0.0000000000
     62571     13632  TIP3      H1             -9.0867042475      -17.6721282117      -59.3371135972  TIP3      13440           0.0000000000
     62572     13632  TIP3      H2            -10.2001944324      -17.1532339738      -60.1482172881  TIP3      13440           0.0000000000
     62573     13633  TIP3      OH2           -16.5034096136      -23.1799678220      -59.9432035176  TIP3      13441           0.0000000000
     62574     13633  TIP3      H1            -15.5340105749      -23.0844967863      -59.7477462607  TIP3      13441           0.0000000000
     62575     13633  TIP3      H2            -16.4327687109      -23.8316438373      -60.6771770493  TIP3      13441           0.0000000000
     62576     13634  TIP3      OH2           -17.7203261547      -17.7991353010      -54.9705434736  TIP3      13442           0.0000000000
     62577     13634  TIP3      H1            -18.4396396813      -18.2853532511      -55.4293865561  TIP3      13442           0.0000000000
     62578     13634  TIP3      H2            -17.4376255200      -18.4519486780      -54.3040640763  TIP3      13442           0.0000000000
     62579     13635  TIP3      OH2           -16.9011740961      -19.6602638073      -53.0923509566  TIP3      13443           0.0000000000
     62580     13635  TIP3      H1            -17.2478618265      -20.5410815116      -52.8943385819  TIP3      13443           0.0000000000
     62581     13635  TIP3      H2            -16.6691690808      -19.3318106567      -52.2079666932  TIP3      13443           0.0000000000
     62582     13636  TIP3      OH2             0.6428975697      -18.8653641227      -50.1641379891  TIP3      13444           0.0000000000
     62583     13636  TIP3      H1              0.6734220790      -18.7051620597      -49.2049805637  TIP3      13444           0.0000000000
     62584     13636  TIP3      H2              1.3466757969      -18.2826664378      -50.4671985211  TIP3      13444           0.0000000000
     62585     13637  TIP3      OH2             0.2147640569      -19.2689584453      -47.2162455657  TIP3      13445           0.0000000000
     62586     13637  TIP3      H1             -0.2551810207      -20.0402371233      -47.5996880953  TIP3      13445           0.0000000000
     62587     13637  TIP3      H2              0.7027064326      -19.7172553325      -46.5054920197  TIP3      13445           0.0000000000
     62588     13638  TIP3      OH2            -1.3382239012      -23.5502616112      -42.5445523899  TIP3      13446           0.0000000000
     62589     13638  TIP3      H1             -2.2449466466      -23.5765254333      -42.1815706769  TIP3      13446           0.0000000000
     62590     13638  TIP3      H2             -0.9669604451      -22.7437960266      -42.1346296146  TIP3      13446           0.0000000000
     62591     13639  TIP3      OH2            -0.0202758664      -25.2230690478      -57.1192790504  TIP3      13447           0.0000000000
     62592     13639  TIP3      H1              0.8422478979      -24.8253956239      -56.9301982125  TIP3      13447           0.0000000000
     62593     13639  TIP3      H2             -0.0253665098      -25.9509685244      -56.4561165862  TIP3      13447           0.0000000000
     62594     13640  TIP3      OH2             0.3112985673      -27.1013573882      -55.2133121076  TIP3      13448           0.0000000000
     62595     13640  TIP3      H1             -0.4033034610      -27.6610102109      -54.8403682918  TIP3      13448           0.0000000000
     62596     13640  TIP3      H2              0.9464677276      -27.0299847761      -54.4746229565  TIP3      13448           0.0000000000
     62597     13641  TIP3      OH2             0.0930534214      -24.4493752195      -50.2430008329  TIP3      13449           0.0000000000
     62598     13641  TIP3      H1              0.9058033859      -24.8263816748      -50.6242016712  TIP3      13449           0.0000000000
     62599     13641  TIP3      H2              0.2389921405      -23.4950360130      -50.4151095728  TIP3      13449           0.0000000000
     62600     13642  TIP3      OH2            -1.3476293469      -21.5417059919      -47.9759867578  TIP3      13450           0.0000000000
     62601     13642  TIP3      H1             -2.0381114272      -21.2012256687      -47.3869571513  TIP3      13450           0.0000000000
     62602     13642  TIP3      H2             -1.8962233574      -21.9452471616      -48.6829577862  TIP3      13450           0.0000000000
     62603     13643  TIP3      OH2             0.6248126751      -27.3207960545      -58.8376948277  TIP3      13451           0.0000000000
     62604     13643  TIP3      H1              0.0737610643      -26.9762143083      -59.5671393940  TIP3      13451           0.0000000000
     62605     13643  TIP3      H2              0.5470594686      -26.6097541946      -58.1793173827  TIP3      13451           0.0000000000
     62606     13644  TIP3      OH2            -1.0155600264      -30.0756754814      -60.3418995364  TIP3      13452           0.0000000000
     62607     13644  TIP3      H1             -0.8898588363      -29.4203321081      -61.0306303594  TIP3      13452           0.0000000000
     62608     13644  TIP3      H2             -1.1544555910      -30.9168533208      -60.8183311743  TIP3      13452           0.0000000000
     62609     13645  TIP3      OH2            -1.8560084111      -28.6795538382      -54.6673381654  TIP3      13453           0.0000000000
     62610     13645  TIP3      H1             -1.9842719531      -29.6304574605      -54.6887840871  TIP3      13453           0.0000000000
     62611     13645  TIP3      H2             -2.1802212244      -28.4505701414      -53.7764074357  TIP3      13453           0.0000000000
     62612     13646  TIP3      OH2           -16.8398540578      -26.5873056933      -50.6001474747  TIP3      13454           0.0000000000
     62613     13646  TIP3      H1            -16.6624840038      -26.6665641559      -51.5634194864  TIP3      13454           0.0000000000
     62614     13646  TIP3      H2            -15.9459137896      -26.7654843188      -50.2494634769  TIP3      13454           0.0000000000
     62615     13647  TIP3      OH2            -0.9797832639      -26.7027353423      -44.9676135227  TIP3      13455           0.0000000000
     62616     13647  TIP3      H1             -0.3711903371      -27.4610685718      -44.8367893841  TIP3      13455           0.0000000000
     62617     13647  TIP3      H2             -0.3775619432      -25.9301243117      -44.9662928979  TIP3      13455           0.0000000000
     62618     13648  TIP3      OH2             0.5172607281      -28.8205939218      -44.3193007175  TIP3      13456           0.0000000000
     62619     13648  TIP3      H1             -0.3649041447      -29.2209399031      -44.4732603967  TIP3      13456           0.0000000000
     62620     13648  TIP3      H2              1.0869864966      -29.6051474811      -44.3940262117  TIP3      13456           0.0000000000
     62621     13649  TIP3      OH2            -1.7426293329      -32.5955614706      -61.1655131129  TIP3      13457           0.0000000000
     62622     13649  TIP3      H1             -1.1434482058      -33.0615080611      -60.5511371460  TIP3      13457           0.0000000000
     62623     13649  TIP3      H2             -2.5982856584      -33.0510574915      -61.0530585673  TIP3      13457           0.0000000000
     62624     13650  TIP3      OH2            -2.1959318335      -31.0954438267      -56.2541565476  TIP3      13458           0.0000000000
     62625     13650  TIP3      H1             -1.8237998071      -31.9794383294      -56.0803919277  TIP3      13458           0.0000000000
     62626     13650  TIP3      H2             -1.3815663471      -30.6490414817      -56.5524107422  TIP3      13458           0.0000000000
     62627     13651  TIP3      OH2            -1.5421512755      -30.5212951171      -50.7640349200  TIP3      13459           0.0000000000
     62628     13651  TIP3      H1             -0.5778511391      -30.3079818852      -50.7736728000  TIP3      13459           0.0000000000
     62629     13651  TIP3      H2             -1.7240000983      -30.4062607037      -49.8180565118  TIP3      13459           0.0000000000
     62630     13652  TIP3      OH2            -1.4738368029      -29.8017479875      -47.9784419823  TIP3      13460           0.0000000000
     62631     13652  TIP3      H1             -2.3580629191      -29.5217954123      -47.6570481351  TIP3      13460           0.0000000000
     62632     13652  TIP3      H2             -1.0380023840      -28.9459992746      -48.1995436040  TIP3      13460           0.0000000000
     62633     13653  TIP3      OH2           -17.2313057470      -31.2627838061      -44.4381082422  TIP3      13461           0.0000000000
     62634     13653  TIP3      H1            -16.2917451483      -31.4809715095      -44.2698275602  TIP3      13461           0.0000000000
     62635     13653  TIP3      H2            -17.6700697089      -32.1043760811      -44.1885516755  TIP3      13461           0.0000000000
     62636     13654  TIP3      OH2             0.8642660674      -35.7436095205      -42.6142810291  TIP3      13462           0.0000000000
     62637     13654  TIP3      H1              1.0970060293      -36.4154269360      -43.2699315270  TIP3      13462           0.0000000000
     62638     13654  TIP3      H2              0.8660336324      -34.9248546676      -43.1360496642  TIP3      13462           0.0000000000
     62639     13655  TIP3      OH2            -1.6704602448      -33.7762586228      -56.0911901175  TIP3      13463           0.0000000000
     62640     13655  TIP3      H1             -1.2572911644      -34.2409887743      -55.3246470947  TIP3      13463           0.0000000000
     62641     13655  TIP3      H2             -1.9276441656      -34.5049985464      -56.6973737772  TIP3      13463           0.0000000000
     62642     13656  TIP3      OH2           -16.0523668411      -32.9413411899      -51.6376508189  TIP3      13464           0.0000000000
     62643     13656  TIP3      H1            -15.6181469262      -33.7849943511      -51.3614533992  TIP3      13464           0.0000000000
     62644     13656  TIP3      H2            -15.4780670659      -32.2938226859      -51.2133436525  TIP3      13464           0.0000000000
     62645     13657  TIP3      OH2           -17.7378618924      -29.9924549976      -50.5601311876  TIP3      13465           0.0000000000
     62646     13657  TIP3      H1            -17.1734705999      -30.2449146686      -51.3195740143  TIP3      13465           0.0000000000
     62647     13657  TIP3      H2            -17.2692393959      -29.1889353480      -50.2910093988  TIP3      13465           0.0000000000
     62648     13658  TIP3      OH2             0.3288105501      -33.7040293256      -44.2990515424  TIP3      13466           0.0000000000
     62649     13658  TIP3      H1             -0.5981011567      -33.3957616948      -44.3478464388  TIP3      13466           0.0000000000
     62650     13658  TIP3      H2              0.3649155121      -34.2244679976      -45.1156938017  TIP3      13466           0.0000000000
     62651     13659  TIP3      OH2             0.2799174428      -33.7790055667      -59.6135666650  TIP3      13467           0.0000000000
     62652     13659  TIP3      H1              0.7193540123      -34.4796799012      -60.1441981707  TIP3      13467           0.0000000000
     62653     13659  TIP3      H2              1.0005476722      -33.1189226520      -59.5193649014  TIP3      13467           0.0000000000
     62654     13660  TIP3      OH2           -17.3632952521      -33.7594249733      -56.4556071939  TIP3      13468           0.0000000000
     62655     13660  TIP3      H1            -18.3043114661      -33.5755742823      -56.6349811917  TIP3      13468           0.0000000000
     62656     13660  TIP3      H2            -16.9480280338      -33.2766984279      -57.1958730693  TIP3      13468           0.0000000000
     62657     13661  TIP3      OH2            -2.6296002972      -18.7871584452      -54.5313790198  TIP3      13469           0.0000000000
     62658     13661  TIP3      H1             -1.9480743276      -19.0851821198      -55.1580506519  TIP3      13469           0.0000000000
     62659     13661  TIP3      H2             -2.1175995074      -18.2836326822      -53.8823363650  TIP3      13469           0.0000000000
     62660     13662  TIP3      OH2           -17.4177215047      -34.9973382978      -48.1724251136  TIP3      13470           0.0000000000
     62661     13662  TIP3      H1            -18.0943234444      -35.2411407028      -47.5238478715  TIP3      13470           0.0000000000
     62662     13662  TIP3      H2            -17.8992318857      -34.4029031063      -48.7739162851  TIP3      13470           0.0000000000
     62663     13663  TIP3      OH2           -15.1850875658      -21.8627908867      -44.0215541180  TIP3      13471           0.0000000000
     62664     13663  TIP3      H1            -16.0223532592      -21.6729538404      -44.4722393063  TIP3      13471           0.0000000000
     62665     13663  TIP3      H2            -15.4508369518      -21.9697400882      -43.1090374661  TIP3      13471           0.0000000000
     62666     13664  TIP3      OH2           -12.3100091594      -20.8777267652      -47.7729742481  TIP3      13472           0.0000000000
     62667     13664  TIP3      H1            -12.6103739878      -19.9977941279      -48.0215263485  TIP3      13472           0.0000000000
     62668     13664  TIP3      H2            -11.3647746911      -20.8129924458      -48.0285207747  TIP3      13472           0.0000000000
     62669     13665  TIP3      OH2            -7.9627151022      -19.4416791127      -44.8399857504  TIP3      13473           0.0000000000
     62670     13665  TIP3      H1             -7.8169035543      -19.8013825960      -43.9337858886  TIP3      13473           0.0000000000
     62671     13665  TIP3      H2             -7.0597433814      -19.1469743708      -45.0902828490  TIP3      13473           0.0000000000
     62672     13666  TIP3      OH2            -5.6777359651      -18.1823869291      -45.5359884820  TIP3      13474           0.0000000000
     62673     13666  TIP3      H1             -4.9468263150      -18.7678242646      -45.7759632366  TIP3      13474           0.0000000000
     62674     13666  TIP3      H2             -5.3016072273      -17.7447048717      -44.7416331158  TIP3      13474           0.0000000000
     62675     13667  TIP3      OH2            -0.6536927066      -35.5466686064      -46.5230020658  TIP3      13475           0.0000000000
     62676     13667  TIP3      H1             -1.5023310776      -35.2347068303      -46.8826213377  TIP3      13475           0.0000000000
     62677     13667  TIP3      H2             -0.5048562897      -36.4001513391      -46.9842236947  TIP3      13475           0.0000000000
     62678     13668  TIP3      OH2           -14.8603270247      -17.6408517637      -47.7577166428  TIP3      13476           0.0000000000
     62679     13668  TIP3      H1            -15.5904521036      -17.1372582905      -48.1529421024  TIP3      13476           0.0000000000
     62680     13668  TIP3      H2            -15.1706215326      -17.8291937068      -46.8605047631  TIP3      13476           0.0000000000
     62681     13669  TIP3      OH2           -12.3885842654      -18.0406395891      -48.6893827905  TIP3      13477           0.0000000000
     62682     13669  TIP3      H1            -13.2814363470      -17.9261639723      -48.2874502515  TIP3      13477           0.0000000000
     62683     13669  TIP3      H2            -12.4509899430      -17.4480024674      -49.4641541818  TIP3      13477           0.0000000000
     62684     13670  TIP3      OH2            -7.6843660128      -18.1661502359      -49.4934125348  TIP3      13478           0.0000000000
     62685     13670  TIP3      H1             -8.1401230443      -17.6107524336      -50.1525908204  TIP3      13478           0.0000000000
     62686     13670  TIP3      H2             -7.5503716758      -17.5188302744      -48.7707263858  TIP3      13478           0.0000000000
     62687     13671  TIP3      OH2            -5.3972916729      -19.3408884126      -48.4809413855  TIP3      13479           0.0000000000
     62688     13671  TIP3      H1             -6.2506547517      -19.0619963154      -48.8531211763  TIP3      13479           0.0000000000
     62689     13671  TIP3      H2             -4.9108900052      -18.5036039089      -48.5759774347  TIP3      13479           0.0000000000
     62690     13672  TIP3      OH2            -2.8156850355      -17.7704821176      -48.2646128072  TIP3      13480           0.0000000000
     62691     13672  TIP3      H1             -2.8679526457      -16.8093724523      -48.4918968265  TIP3      13480           0.0000000000
     62692     13672  TIP3      H2             -2.5978555143      -18.1430677719      -49.1413873806  TIP3      13480           0.0000000000
     62693     13673  TIP3      OH2           -15.4030000318      -18.9880305842      -50.8080448793  TIP3      13481           0.0000000000
     62694     13673  TIP3      H1            -15.4817182608      -19.4532353211      -49.9499376030  TIP3      13481           0.0000000000
     62695     13673  TIP3      H2            -14.5843061588      -19.3698471810      -51.1995128337  TIP3      13481           0.0000000000
     62696     13674  TIP3      OH2           -13.3461295376      -20.2491249697      -52.1140935271  TIP3      13482           0.0000000000
     62697     13674  TIP3      H1            -13.4748973514      -21.2052268446      -51.9669413346  TIP3      13482           0.0000000000
     62698     13674  TIP3      H2            -12.4573501329      -20.1325970499      -51.7250683185  TIP3      13482           0.0000000000
     62699     13675  TIP3      OH2           -10.7158986745      -19.7954005416      -51.2807465598  TIP3      13483           0.0000000000
     62700     13675  TIP3      H1            -10.5815002114      -20.7232533037      -51.5532930315  TIP3      13483           0.0000000000
     62701     13675  TIP3      H2            -10.6778448474      -19.8668862813      -50.3150692318  TIP3      13483           0.0000000000
     62702     13676  TIP3      OH2            -7.3782158567      -34.0777687945      -52.1750518113  TIP3      13484           0.0000000000
     62703     13676  TIP3      H1             -7.9749942684      -34.7830721982      -51.8680636756  TIP3      13484           0.0000000000
     62704     13676  TIP3      H2             -6.7079242928      -34.5958041167      -52.6489796790  TIP3      13484           0.0000000000
     62705     13677  TIP3      OH2            -2.1241705379      -36.0842528191      -52.0758927888  TIP3      13485           0.0000000000
     62706     13677  TIP3      H1             -1.5255530821      -35.4894810318      -52.5604453662  TIP3      13485           0.0000000000
     62707     13677  TIP3      H2             -2.9952735326      -35.7313986568      -52.2595797667  TIP3      13485           0.0000000000
     62708     13678  TIP3      OH2            -0.4444944839      -34.8296715549      -53.8151039398  TIP3      13486           0.0000000000
     62709     13678  TIP3      H1              0.1917080473      -35.4108726757      -54.2395046501  TIP3      13486           0.0000000000
     62710     13678  TIP3      H2              0.0508504747      -33.9758307946      -53.7148081093  TIP3      13486           0.0000000000
     62711     13679  TIP3      OH2           -14.9309432149      -35.4829110191      -54.2730524295  TIP3      13487           0.0000000000
     62712     13679  TIP3      H1            -15.6982725743      -35.7210233585      -54.8126838576  TIP3      13487           0.0000000000
     62713     13679  TIP3      H2            -14.4494284484      -36.3299033895      -54.2423790006  TIP3      13487           0.0000000000
     62714     13680  TIP3      OH2           -16.1048153789      -35.7627520599      -58.5626105902  TIP3      13488           0.0000000000
     62715     13680  TIP3      H1            -15.6831317780      -35.1117701532      -59.1399268320  TIP3      13488           0.0000000000
     62716     13680  TIP3      H2            -16.7374611993      -35.2134390179      -58.0856465486  TIP3      13488           0.0000000000
     62717     13681  TIP3      OH2           -10.3723336963      -35.6644692992      -54.5198384943  TIP3      13489           0.0000000000
     62718     13681  TIP3      H1             -9.5260359418      -35.1977223089      -54.5534353771  TIP3      13489           0.0000000000
     62719     13681  TIP3      H2            -10.4695230000      -35.8180242076      -53.5742412863  TIP3      13489           0.0000000000
     62720     13682  TIP3      OH2            -4.9596837324      -35.1935403422      -52.7376256865  TIP3      13490           0.0000000000
     62721     13682  TIP3      H1             -4.8637039016      -35.3074025070      -53.6769662966  TIP3      13490           0.0000000000
     62722     13682  TIP3      H2             -5.0748645822      -36.1634240563      -52.5531698130  TIP3      13490           0.0000000000
     62723     13683  TIP3      OH2            -3.4552012548      -35.6183121489      -57.2389629079  TIP3      13491           0.0000000000
     62724     13683  TIP3      H1             -4.1916854929      -35.1231215509      -57.6236499829  TIP3      13491           0.0000000000
     62725     13683  TIP3      H2             -3.8466439213      -36.4963832284      -57.0690777682  TIP3      13491           0.0000000000
     62726     13684  TIP3      OH2           -16.2418210422      -19.8111604507      -57.5355605157  TIP3      13492           0.0000000000
     62727     13684  TIP3      H1            -16.8725831808      -19.8305210632      -58.2732497988  TIP3      13492           0.0000000000
     62728     13684  TIP3      H2            -16.2084209574      -18.8582148585      -57.3748646837  TIP3      13492           0.0000000000
     62729     13685  TIP3      OH2           -14.3320707813      -33.8889110328      -60.0424389589  TIP3      13493           0.0000000000
     62730     13685  TIP3      H1            -13.7591942013      -34.4378006888      -60.6078681234  TIP3      13493           0.0000000000
     62731     13685  TIP3      H2            -13.6761973157      -33.5071286735      -59.4275572043  TIP3      13493           0.0000000000
     62732     13686  TIP3      OH2            -9.3146224732      -33.5783572806      -57.6217789558  TIP3      13494           0.0000000000
     62733     13686  TIP3      H1             -9.0159020689      -34.1529809710      -56.8994885671  TIP3      13494           0.0000000000
     62734     13686  TIP3      H2             -9.2110732193      -32.7039354412      -57.1824022178  TIP3      13494           0.0000000000
     62735     13687  TIP3      OH2            -7.3414138416      -18.4961257943      -59.2165143549  TIP3      13495           0.0000000000
     62736     13687  TIP3      H1             -6.4216208618      -18.2771726365      -59.4344953546  TIP3      13495           0.0000000000
     62737     13687  TIP3      H2             -7.5607584976      -19.0241386427      -60.0126606913  TIP3      13495           0.0000000000
     62738     13688  TIP3      OH2            -0.6404572163      -19.0051691998      -56.4962925466  TIP3      13496           0.0000000000
     62739     13688  TIP3      H1             -0.8366026428      -19.7869693657      -57.0658091543  TIP3      13496           0.0000000000
     62740     13688  TIP3      H2             -0.7129352995      -18.2686565185      -57.1371142463  TIP3      13496           0.0000000000
     62741     13689  TIP3      OH2           -15.1158374796      -35.0230819233      -44.9522296139  TIP3      13497           0.0000000000
     62742     13689  TIP3      H1            -15.4528710128      -35.7544798923      -44.4286130030  TIP3      13497           0.0000000000
     62743     13689  TIP3      H2            -14.2143753063      -34.9840830021      -44.5450061071  TIP3      13497           0.0000000000
     62744     13690  TIP3      OH2           -13.2718920375      -35.3742506661      -43.3052116717  TIP3      13498           0.0000000000
     62745     13690  TIP3      H1            -12.3311006758      -35.5732025527      -43.4351517260  TIP3      13498           0.0000000000
     62746     13690  TIP3      H2            -13.4396261381      -36.2320599900      -42.8656314955  TIP3      13498           0.0000000000
     62747     13691  TIP3      OH2           -14.4136788946      -18.8108127280      -60.5995220715  TIP3      13499           0.0000000000
     62748     13691  TIP3      H1            -14.6760943371      -18.5841754869      -59.6967348407  TIP3      13499           0.0000000000
     62749     13691  TIP3      H2            -13.6481143223      -19.4028600967      -60.4419859882  TIP3      13499           0.0000000000
     62750     13692  TIP3      OH2            -4.7006486156       37.0674505728      -43.1366822100  TIP3      13500           0.0000000000
     62751     13692  TIP3      H1             -4.6395865379       36.5097529414      -42.3329065884  TIP3      13500           0.0000000000
     62752     13692  TIP3      H2             -3.8062940634       36.8535502877      -43.4458790777  TIP3      13500           0.0000000000
     62753     13693  TIP3      OH2            -1.3982455396      -20.2547694616      -44.4207254487  TIP3      13501           0.0000000000
     62754     13693  TIP3      H1             -2.2027407992      -20.3911422024      -44.9671241463  TIP3      13501           0.0000000000
     62755     13693  TIP3      H2             -1.5147758923      -19.3078098939      -44.2036260826  TIP3      13501           0.0000000000
     62756     13694  TIP3      OH2            13.0777512029      -26.3635950500      -54.4880305603  TIP3      13502           0.0000000000
     62757     13694  TIP3      H1             13.0155110637      -25.3884233355      -54.4242637534  TIP3      13502           0.0000000000
     62758     13694  TIP3      H2             12.2769170961      -26.6140634600      -54.9784628767  TIP3      13502           0.0000000000
     62759     13695  TIP3      OH2            11.9006583452      -27.1246261346      -50.9402001676  TIP3      13503           0.0000000000
     62760     13695  TIP3      H1             11.8918151537      -27.7723398932      -50.2217549665  TIP3      13503           0.0000000000
     62761     13695  TIP3      H2             11.5505845366      -27.6341211803      -51.6904222353  TIP3      13503           0.0000000000
     62762     13696  TIP3      OH2             4.2536281933      -27.4472728258      -49.3863474981  TIP3      13504           0.0000000000
     62763     13696  TIP3      H1              4.3397320030      -28.1329224386      -48.6927422921  TIP3      13504           0.0000000000
     62764     13696  TIP3      H2              5.0028536586      -26.8755140339      -49.1641136290  TIP3      13504           0.0000000000
     62765     13697  TIP3      OH2            15.5865671025      -24.1729203241      -52.6546218373  TIP3      13505           0.0000000000
     62766     13697  TIP3      H1             15.1743871962      -24.8906522226      -52.1635486471  TIP3      13505           0.0000000000
     62767     13697  TIP3      H2             15.6123716515      -23.4665984595      -51.9839781898  TIP3      13505           0.0000000000
     62768     13698  TIP3      OH2             5.1792434606      -22.9982763912      -50.8872362775  TIP3      13506           0.0000000000
     62769     13698  TIP3      H1              4.8683352947      -23.8682179545      -51.2049608659  TIP3      13506           0.0000000000
     62770     13698  TIP3      H2              6.1347557061      -23.1810619679      -50.8407105210  TIP3      13506           0.0000000000
     62771     13699  TIP3      OH2             1.7423366730      -29.4525403940      -55.2852303561  TIP3      13507           0.0000000000
     62772     13699  TIP3      H1              1.4113778352      -28.5637517419      -55.4909086799  TIP3      13507           0.0000000000
     62773     13699  TIP3      H2              1.3168416324      -29.9708498709      -55.9892733885  TIP3      13507           0.0000000000
     62774     13700  TIP3      OH2             2.5471557745      -27.1890753752      -53.2257097679  TIP3      13508           0.0000000000
     62775     13700  TIP3      H1              2.8016048470      -28.0404776911      -52.8149167128  TIP3      13508           0.0000000000
     62776     13700  TIP3      H2              3.2114846638      -27.1171485655      -53.9317168564  TIP3      13508           0.0000000000
     62777     13701  TIP3      OH2            12.7056516912      -19.0152871473      -52.4168922837  TIP3      13509           0.0000000000
     62778     13701  TIP3      H1             13.3551863752      -19.7033827798      -52.7042727079  TIP3      13509           0.0000000000
     62779     13701  TIP3      H2             12.4903278936      -19.3520474992      -51.5474200314  TIP3      13509           0.0000000000
     62780     13702  TIP3      OH2            10.2770643780      -24.7255350614      -50.4663050432  TIP3      13510           0.0000000000
     62781     13702  TIP3      H1             10.6143804615      -25.3509557885      -51.1248967358  TIP3      13510           0.0000000000
     62782     13702  TIP3      H2             11.0872221579      -24.5653377569      -49.9509982237  TIP3      13510           0.0000000000
     62783     13703  TIP3      OH2            18.8611757483      -33.0681641055      -49.7453305131  TIP3      13511           0.0000000000
     62784     13703  TIP3      H1             19.0527868341      -32.4939212458      -48.9696423720  TIP3      13511           0.0000000000
     62785     13703  TIP3      H2             19.4268311838      -32.6439899636      -50.4052912038  TIP3      13511           0.0000000000
     62786     13704  TIP3      OH2            13.4442226058      -30.2550110658      -50.1417249644  TIP3      13512           0.0000000000
     62787     13704  TIP3      H1             13.6010966102      -31.2208941795      -50.1429129496  TIP3      13512           0.0000000000
     62788     13704  TIP3      H2             13.3405599055      -30.1091793462      -51.1034648034  TIP3      13512           0.0000000000
     62789     13705  TIP3      OH2             6.5444469145      -32.1627931985      -52.9249658321  TIP3      13513           0.0000000000
     62790     13705  TIP3      H1              6.6669557494      -31.3276099889      -53.4196181884  TIP3      13513           0.0000000000
     62791     13705  TIP3      H2              6.1644331681      -32.7011340629      -53.6509727617  TIP3      13513           0.0000000000
     62792     13706  TIP3      OH2            14.2960011910      -32.1048263962      -54.5662825469  TIP3      13514           0.0000000000
     62793     13706  TIP3      H1             14.9476793663      -32.3884660999      -53.8843944497  TIP3      13514           0.0000000000
     62794     13706  TIP3      H2             14.8493928241      -31.5165532964      -55.0972252054  TIP3      13514           0.0000000000
     62795     13707  TIP3      OH2             3.1708060333      -29.7482946042      -52.1822337836  TIP3      13515           0.0000000000
     62796     13707  TIP3      H1              3.8561941264      -30.2796267690      -51.7443548074  TIP3      13515           0.0000000000
     62797     13707  TIP3      H2              3.2882790283      -30.0557487826      -53.1044764549  TIP3      13515           0.0000000000
     62798     13708  TIP3      OH2             8.3273895217      -28.2056854810      -52.8736181211  TIP3      13516           0.0000000000
     62799     13708  TIP3      H1              9.0104852580      -28.7820079759      -52.4896219464  TIP3      13516           0.0000000000
     62800     13708  TIP3      H2              7.8199926665      -28.8573666138      -53.3986030824  TIP3      13516           0.0000000000
     62801     13709  TIP3      OH2            19.3256922946      -31.6555666557      -47.4660591346  TIP3      13517           0.0000000000
     62802     13709  TIP3      H1             18.6993046352      -30.9086914150      -47.5690450157  TIP3      13517           0.0000000000
     62803     13709  TIP3      H2             19.3470499105      -31.7649218973      -46.5100103146  TIP3      13517           0.0000000000
     62804     13710  TIP3      OH2             5.4796112480      -33.2179492626      -48.8876984468  TIP3      13518           0.0000000000
     62805     13710  TIP3      H1              5.1749528755      -32.6785324357      -49.6539969147  TIP3      13518           0.0000000000
     62806     13710  TIP3      H2              4.7464792243      -33.0189654238      -48.2488140059  TIP3      13518           0.0000000000
     62807     13711  TIP3      OH2            12.7654186023      -23.7886710820      -55.3638601097  TIP3      13519           0.0000000000
     62808     13711  TIP3      H1             12.4267129818      -24.0126114195      -56.2292199918  TIP3      13519           0.0000000000
     62809     13711  TIP3      H2             12.4589192801      -22.8500606182      -55.2551771209  TIP3      13519           0.0000000000
     62810     13712  TIP3      OH2             7.9788598793      -25.6230785060      -48.6600889670  TIP3      13520           0.0000000000
     62811     13712  TIP3      H1              7.2747067801      -24.9780085239      -48.4387161193  TIP3      13520           0.0000000000
     62812     13712  TIP3      H2              8.6858007555      -25.0247722469      -48.9498414932  TIP3      13520           0.0000000000
     62813     13713  TIP3      OH2            16.1156907740      -32.7570928692      -52.5895473540  TIP3      13521           0.0000000000
     62814     13713  TIP3      H1             15.8656245879      -33.4961168127      -52.0238610662  TIP3      13521           0.0000000000
     62815     13713  TIP3      H2             16.7775903963      -32.3052366442      -52.0404191110  TIP3      13521           0.0000000000
     62816     13714  TIP3      OH2             5.0411306001      -31.4191928131      -50.8501672058  TIP3      13522           0.0000000000
     62817     13714  TIP3      H1              5.6577957960      -30.7150402736      -50.5576215035  TIP3      13522           0.0000000000
     62818     13714  TIP3      H2              5.5505348483      -31.8029327270      -51.6050243895  TIP3      13522           0.0000000000
     62819     13715  TIP3      OH2             6.4291010164      -23.6165641544      -47.8382427147  TIP3      13523           0.0000000000
     62820     13715  TIP3      H1              6.3795809975      -22.7034553139      -48.1764606325  TIP3      13523           0.0000000000
     62821     13715  TIP3      H2              5.5462392369      -23.6976426844      -47.3961585723  TIP3      13523           0.0000000000
     62822     13716  TIP3      OH2             2.5067101552      -24.0109165222      -57.0471072352  TIP3      13524           0.0000000000
     62823     13716  TIP3      H1              2.2585343235      -23.6694579710      -57.9241005429  TIP3      13524           0.0000000000
     62824     13716  TIP3      H2              2.5876428828      -23.1828357412      -56.5321426705  TIP3      13524           0.0000000000
     62825     13717  TIP3      OH2            16.1160194172      -22.3353777233      -50.2873079912  TIP3      13525           0.0000000000
     62826     13717  TIP3      H1             15.1478364480      -22.2238880633      -50.1673028762  TIP3      13525           0.0000000000
     62827     13717  TIP3      H2             16.3851534712      -21.4198442429      -50.4903774561  TIP3      13525           0.0000000000
     62828     13718  TIP3      OH2            16.4749027165      -34.0544729595      -48.8367575449  TIP3      13526           0.0000000000
     62829     13718  TIP3      H1             15.7256723008      -33.4663857996      -48.9938907004  TIP3      13526           0.0000000000
     62830     13718  TIP3      H2             17.1601645622      -33.6502888553      -49.4067402511  TIP3      13526           0.0000000000
     62831     13719  TIP3      OH2             9.3938487490      -35.9323985002      -51.6174094701  TIP3      13527           0.0000000000
     62832     13719  TIP3      H1              9.3682946346      -36.8866465954      -51.4444606667  TIP3      13527           0.0000000000
     62833     13719  TIP3      H2              8.6143794106      -35.6550626933      -51.1147945405  TIP3      13527           0.0000000000
     62834     13720  TIP3      OH2            14.3768212669      -20.5509771791      -53.7008897483  TIP3      13528           0.0000000000
     62835     13720  TIP3      H1             14.8029471530      -21.2715219437      -54.2094818143  TIP3      13528           0.0000000000
     62836     13720  TIP3      H2             14.8113233292      -19.7628499126      -54.0911763579  TIP3      13528           0.0000000000
     62837     13721  TIP3      OH2            15.5863838379      -22.6213287171      -55.1798059341  TIP3      13529           0.0000000000
     62838     13721  TIP3      H1             15.3004808818      -23.3229430058      -55.7748656588  TIP3      13529           0.0000000000
     62839     13721  TIP3      H2             15.6306577486      -23.1010346209      -54.3316021920  TIP3      13529           0.0000000000
     62840     13722  TIP3      OH2            17.2013701512      -24.0278335347      -46.6875826829  TIP3      13530           0.0000000000
     62841     13722  TIP3      H1             17.3507271359      -24.6828485344      -47.4051926301  TIP3      13530           0.0000000000
     62842     13722  TIP3      H2             17.4107021090      -23.1867798064      -47.1328623153  TIP3      13530           0.0000000000
     62843     13723  TIP3      OH2            11.6207987658      -27.1304672462      -56.8271856420  TIP3      13531           0.0000000000
     62844     13723  TIP3      H1             10.8846052976      -26.6285794438      -57.2537930985  TIP3      13531           0.0000000000
     62845     13723  TIP3      H2             12.2009975162      -27.4487899469      -57.5278895169  TIP3      13531           0.0000000000
     62846     13724  TIP3      OH2            11.8203285912      -28.5249651970      -59.9062534100  TIP3      13532           0.0000000000
     62847     13724  TIP3      H1             12.5054452179      -28.6816029443      -59.2498162101  TIP3      13532           0.0000000000
     62848     13724  TIP3      H2             12.0466419486      -29.2648777359      -60.4917881122  TIP3      13532           0.0000000000
     62849     13725  TIP3      OH2            19.0933441350      -27.7155183253      -48.6434089553  TIP3      13533           0.0000000000
     62850     13725  TIP3      H1             18.4344740638      -26.9936655194      -48.6057332384  TIP3      13533           0.0000000000
     62851     13725  TIP3      H2             19.5875764086      -27.4842266034      -49.4508849363  TIP3      13533           0.0000000000
     62852     13726  TIP3      OH2            15.0941934096      -26.9600197256      -56.0372766692  TIP3      13534           0.0000000000
     62853     13726  TIP3      H1             14.4282024661      -26.6945111999      -55.3534789024  TIP3      13534           0.0000000000
     62854     13726  TIP3      H2             15.6353852992      -27.5870099125      -55.5078920083  TIP3      13534           0.0000000000
     62855     13727  TIP3      OH2            15.0766890706      -28.7687022430      -46.8745121801  TIP3      13535           0.0000000000
     62856     13727  TIP3      H1             15.0869237157      -27.9461439787      -46.3562205714  TIP3      13535           0.0000000000
     62857     13727  TIP3      H2             14.4515460629      -28.4745028255      -47.5693065309  TIP3      13535           0.0000000000
     62858     13728  TIP3      OH2             6.7537152520      -26.2774958231      -54.0821428141  TIP3      13536           0.0000000000
     62859     13728  TIP3      H1              6.4306098394      -26.6746991247      -54.9346010354  TIP3      13536           0.0000000000
     62860     13728  TIP3      H2              7.3766601940      -26.9642267050      -53.7509340414  TIP3      13536           0.0000000000
     62861     13729  TIP3      OH2             8.0802786233      -22.8864639914      -51.4030972795  TIP3      13537           0.0000000000
     62862     13729  TIP3      H1              8.0678869291      -23.4104525467      -52.2117359531  TIP3      13537           0.0000000000
     62863     13729  TIP3      H2              8.8640890538      -23.2443844705      -50.9469682238  TIP3      13537           0.0000000000
     62864     13730  TIP3      OH2             7.0905435033      -27.5254768861      -50.4202209229  TIP3      13538           0.0000000000
     62865     13730  TIP3      H1              7.6379343559      -27.4257691475      -51.2242424629  TIP3      13538           0.0000000000
     62866     13730  TIP3      H2              7.4791480644      -26.8521206567      -49.8172601746  TIP3      13538           0.0000000000
     62867     13731  TIP3      OH2            13.5132335441      -21.9518688945      -49.7136933202  TIP3      13539           0.0000000000
     62868     13731  TIP3      H1             13.2231884725      -21.3166894049      -49.0522327845  TIP3      13539           0.0000000000
     62869     13731  TIP3      H2             13.2533516563      -22.8051591148      -49.2944828113  TIP3      13539           0.0000000000
     62870     13732  TIP3      OH2             8.0444698249      -23.0935265670      -45.7278887361  TIP3      13540           0.0000000000
     62871     13732  TIP3      H1              7.6294634299      -22.3545650188      -45.2377675540  TIP3      13540           0.0000000000
     62872     13732  TIP3      H2              7.3721463831      -23.2932593336      -46.4252711476  TIP3      13540           0.0000000000
     62873     13733  TIP3      OH2            14.0908023781      -27.7630076584      -58.3627408734  TIP3      13541           0.0000000000
     62874     13733  TIP3      H1             14.6831739770      -27.6657657751      -57.5634100690  TIP3      13541           0.0000000000
     62875     13733  TIP3      H2             14.5946338990      -27.3541455970      -59.1144204018  TIP3      13541           0.0000000000
     62876     13734  TIP3      OH2             4.9856701482      -26.9354616392      -46.5752751480  TIP3      13542           0.0000000000
     62877     13734  TIP3      H1              5.0391835512      -26.2661796961      -45.8672178242  TIP3      13542           0.0000000000
     62878     13734  TIP3      H2              4.0430088938      -26.8469468450      -46.7856625009  TIP3      13542           0.0000000000
     62879     13735  TIP3      OH2            11.7445631177      -21.0182981625      -54.8774314279  TIP3      13543           0.0000000000
     62880     13735  TIP3      H1             12.1701471386      -20.7062544079      -54.0670725943  TIP3      13543           0.0000000000
     62881     13735  TIP3      H2             11.1857747702      -20.2652072629      -55.1062851055  TIP3      13543           0.0000000000
     62882     13736  TIP3      OH2             6.2913007639      -21.0596196031      -44.9812877826  TIP3      13544           0.0000000000
     62883     13736  TIP3      H1              6.2298570679      -21.1580493940      -45.9468704003  TIP3      13544           0.0000000000
     62884     13736  TIP3      H2              5.3615028589      -21.1932164801      -44.7135138899  TIP3      13544           0.0000000000
     62885     13737  TIP3      OH2            17.7161794968      -35.8505611833      -58.6835688647  TIP3      13545           0.0000000000
     62886     13737  TIP3      H1             16.8603101693      -35.8124917547      -58.2216184440  TIP3      13545           0.0000000000
     62887     13737  TIP3      H2             17.9573232826      -34.9402674212      -58.8960969305  TIP3      13545           0.0000000000
     62888     13738  TIP3      OH2             5.7075547479      -27.2350818149      -56.4296013610  TIP3      13546           0.0000000000
     62889     13738  TIP3      H1              5.4260509351      -26.4921148054      -56.9971021168  TIP3      13546           0.0000000000
     62890     13738  TIP3      H2              5.0993308648      -27.9459144772      -56.7141928541  TIP3      13546           0.0000000000
     62891     13739  TIP3      OH2            18.8650621647      -21.6438564661      -60.0843573212  TIP3      13547           0.0000000000
     62892     13739  TIP3      H1             19.0317906880      -20.7007952369      -59.9154707064  TIP3      13547           0.0000000000
     62893     13739  TIP3      H2             19.7884094529      -21.9572374196      -60.0885329716  TIP3      13547           0.0000000000
     62894     13740  TIP3      OH2             1.8230391933      -24.8136567719      -47.5685389671  TIP3      13548           0.0000000000
     62895     13740  TIP3      H1              1.3780631803      -24.8981106060      -48.4330975604  TIP3      13548           0.0000000000
     62896     13740  TIP3      H2              1.9031037650      -25.7630158575      -47.3544838696  TIP3      13548           0.0000000000
     62897     13741  TIP3      OH2             1.5807934801      -22.0832722483      -50.7960283290  TIP3      13549           0.0000000000
     62898     13741  TIP3      H1              2.5391055661      -22.1993461241      -50.8156149400  TIP3      13549           0.0000000000
     62899     13741  TIP3      H2              1.4988729116      -21.2652836028      -50.2911056811  TIP3      13549           0.0000000000
     62900     13742  TIP3      OH2            19.8232710917      -21.3780637848      -45.1028377543  TIP3      13550           0.0000000000
     62901     13742  TIP3      H1             19.7038473023      -22.3405126433      -45.1359514027  TIP3      13550           0.0000000000
     62902     13742  TIP3      H2             18.9478321428      -21.1310316190      -44.7200974315  TIP3      13550           0.0000000000
     62903     13743  TIP3      OH2            10.7774035772      -21.8399582865      -46.2444972449  TIP3      13551           0.0000000000
     62904     13743  TIP3      H1             10.8363950046      -20.9976954298      -45.7352803405  TIP3      13551           0.0000000000
     62905     13743  TIP3      H2              9.9049023684      -22.1990436682      -45.9925966221  TIP3      13551           0.0000000000
     62906     13744  TIP3      OH2            11.2237107707      -18.0974609654      -56.4557991764  TIP3      13552           0.0000000000
     62907     13744  TIP3      H1             11.1102373184      -18.1753518548      -57.4200203723  TIP3      13552           0.0000000000
     62908     13744  TIP3      H2             11.2232259473      -17.1364369178      -56.2977296723  TIP3      13552           0.0000000000
     62909     13745  TIP3      OH2             4.8562846151      -19.2177972092      -54.6297359358  TIP3      13553           0.0000000000
     62910     13745  TIP3      H1              5.0031148482      -19.6326341610      -53.7528782930  TIP3      13553           0.0000000000
     62911     13745  TIP3      H2              4.0088720806      -19.6282999255      -54.8693926111  TIP3      13553           0.0000000000
     62912     13746  TIP3      OH2            14.2759404531      -18.8856932208      -59.4714078284  TIP3      13554           0.0000000000
     62913     13746  TIP3      H1             14.7291824613      -19.6399232817      -59.9083001338  TIP3      13554           0.0000000000
     62914     13746  TIP3      H2             14.3156875073      -19.1462911533      -58.5273805167  TIP3      13554           0.0000000000
     62915     13747  TIP3      OH2            13.9723810752      -18.9486957275      -56.6951542156  TIP3      13555           0.0000000000
     62916     13747  TIP3      H1             13.0101569489      -18.8732728242      -56.5246833136  TIP3      13555           0.0000000000
     62917     13747  TIP3      H2             14.2044594920      -19.6918174070      -56.1174645002  TIP3      13555           0.0000000000
     62918     13748  TIP3      OH2            16.9694622179      -29.9274028210      -44.6363903567  TIP3      13556           0.0000000000
     62919     13748  TIP3      H1             16.4944412644      -29.4679352898      -45.3489939195  TIP3      13556           0.0000000000
     62920     13748  TIP3      H2             16.9539878134      -30.8457513249      -44.9438362776  TIP3      13556           0.0000000000
     62921     13749  TIP3      OH2             4.1087439612      -23.5030536857      -46.6310337992  TIP3      13557           0.0000000000
     62922     13749  TIP3      H1              4.3293408507      -23.8678352299      -45.7490931673  TIP3      13557           0.0000000000
     62923     13749  TIP3      H2              3.2388193435      -23.9005025076      -46.8441405908  TIP3      13557           0.0000000000
     62924     13750  TIP3      OH2             6.7762397852      -35.0731441211      -50.6179956227  TIP3      13558           0.0000000000
     62925     13750  TIP3      H1              5.8952190219      -35.1254359015      -51.0209014709  TIP3      13558           0.0000000000
     62926     13750  TIP3      H2              6.6792310650      -34.1914944219      -50.2277565440  TIP3      13558           0.0000000000
     62927     13751  TIP3      OH2            11.3949677040      -35.3251441106      -47.2632875286  TIP3      13559           0.0000000000
     62928     13751  TIP3      H1             11.8548208117      -35.7625482547      -46.5401480834  TIP3      13559           0.0000000000
     62929     13751  TIP3      H2             10.4586814024      -35.4802980392      -47.1060887032  TIP3      13559           0.0000000000
     62930     13752  TIP3      OH2            14.7186861704      -31.5567208179      -46.4116744680  TIP3      13560           0.0000000000
     62931     13752  TIP3      H1             14.1346483957      -31.7107154180      -45.6333104740  TIP3      13560           0.0000000000
     62932     13752  TIP3      H2             14.5536430360      -30.6280649492      -46.6585092406  TIP3      13560           0.0000000000
     62933     13753  TIP3      OH2            15.4660153010      -26.6666686637      -60.5015184864  TIP3      13561           0.0000000000
     62934     13753  TIP3      H1             15.4562951730      -26.8842910300      -61.4718740457  TIP3      13561           0.0000000000
     62935     13753  TIP3      H2             16.3527645552      -26.2618335440      -60.4901103676  TIP3      13561           0.0000000000
     62936     13754  TIP3      OH2            11.0749860021      -32.7836808828      -59.9979052536  TIP3      13562           0.0000000000
     62937     13754  TIP3      H1             10.7478357755      -32.8628148084      -59.0898519238  TIP3      13562           0.0000000000
     62938     13754  TIP3      H2             10.7560776191      -33.6530806146      -60.3127066867  TIP3      13562           0.0000000000
     62939     13755  TIP3      OH2             6.8971602495      -30.0588263978      -49.4000454841  TIP3      13563           0.0000000000
     62940     13755  TIP3      H1              6.1335379559      -30.0485189355      -48.7968852362  TIP3      13563           0.0000000000
     62941     13755  TIP3      H2              6.8498637215      -29.1603343420      -49.7999905060  TIP3      13563           0.0000000000
     62942     13756  TIP3      OH2             6.8488925877      -29.9710258823      -54.5405876813  TIP3      13564           0.0000000000
     62943     13756  TIP3      H1              5.9041629013      -30.1748036419      -54.7159453552  TIP3      13564           0.0000000000
     62944     13756  TIP3      H2              7.2211418975      -30.2157069110      -55.4123584099  TIP3      13564           0.0000000000
     62945     13757  TIP3      OH2            12.3972133699      -29.4270075330      -55.7846175313  TIP3      13565           0.0000000000
     62946     13757  TIP3      H1             11.9492456119      -28.6353697525      -56.1346366851  TIP3      13565           0.0000000000
     62947     13757  TIP3      H2             13.0727377890      -29.6354498773      -56.4528692936  TIP3      13565           0.0000000000
     62948     13758  TIP3      OH2            11.4322106979      -29.2165469521      -44.3586660030  TIP3      13566           0.0000000000
     62949     13758  TIP3      H1             10.9072736502      -29.9882142039      -44.0400728923  TIP3      13566           0.0000000000
     62950     13758  TIP3      H2             12.2680597618      -29.3435884823      -43.8810310899  TIP3      13566           0.0000000000
     62951     13759  TIP3      OH2            13.4092171238      -29.9499148189      -52.9379253368  TIP3      13567           0.0000000000
     62952     13759  TIP3      H1             13.1173924128      -29.3923701101      -53.6750551474  TIP3      13567           0.0000000000
     62953     13759  TIP3      H2             13.4972882083      -30.7944113681      -53.4138172236  TIP3      13567           0.0000000000
     62954     13760  TIP3      OH2             4.5338630886      -29.8301372456      -47.7442692125  TIP3      13568           0.0000000000
     62955     13760  TIP3      H1              4.5759741649      -29.3844335061      -46.8783581224  TIP3      13568           0.0000000000
     62956     13760  TIP3      H2              4.0368140617      -30.6344107521      -47.5497304901  TIP3      13568           0.0000000000
     62957     13761  TIP3      OH2             7.8800820825      -32.4005438380      -60.8860708060  TIP3      13569           0.0000000000
     62958     13761  TIP3      H1              7.4104177656      -32.8130319328      -60.1344499329  TIP3      13569           0.0000000000
     62959     13761  TIP3      H2              7.1716676381      -31.9740851254      -61.3864452411  TIP3      13569           0.0000000000
     62960     13762  TIP3      OH2             1.1423675752      -32.7822859675      -53.7599121451  TIP3      13570           0.0000000000
     62961     13762  TIP3      H1              1.8416771989      -32.6298435715      -53.0927149612  TIP3      13570           0.0000000000
     62962     13762  TIP3      H2              1.6441464365      -32.9870054881      -54.5687679522  TIP3      13570           0.0000000000
     62963     13763  TIP3      OH2             2.1110347169      -32.1608792343      -58.6027672982  TIP3      13571           0.0000000000
     62964     13763  TIP3      H1              2.8698308251      -31.6079778129      -58.8821028829  TIP3      13571           0.0000000000
     62965     13763  TIP3      H2              1.7190614579      -31.4545783984      -58.0521866377  TIP3      13571           0.0000000000
     62966     13764  TIP3      OH2            12.5952723372      -28.3591376730      -48.3975245410  TIP3      13572           0.0000000000
     62967     13764  TIP3      H1             12.9813024834      -29.0464685756      -48.9799887482  TIP3      13572           0.0000000000
     62968     13764  TIP3      H2             12.1351648612      -28.8876434090      -47.7229372578  TIP3      13572           0.0000000000
     62969     13765  TIP3      OH2             9.3964449957      -32.4125733787      -53.5792306230  TIP3      13573           0.0000000000
     62970     13765  TIP3      H1              8.4721087332      -32.3967576305      -53.2661785282  TIP3      13573           0.0000000000
     62971     13765  TIP3      H2              9.8942038281      -32.5439017371      -52.7542320205  TIP3      13573           0.0000000000
     62972     13766  TIP3      OH2             4.1499606058      -30.9159328225      -54.5862129018  TIP3      13574           0.0000000000
     62973     13766  TIP3      H1              3.3968868817      -30.6120686348      -55.1404113922  TIP3      13574           0.0000000000
     62974     13766  TIP3      H2              4.5274700719      -31.6022049900      -55.1668580322  TIP3      13574           0.0000000000
     62975     13767  TIP3      OH2             7.8586684223      -30.8093955687      -57.0705872812  TIP3      13575           0.0000000000
     62976     13767  TIP3      H1              8.8058293802      -30.6686664594      -56.9105630026  TIP3      13575           0.0000000000
     62977     13767  TIP3      H2              7.5764868628      -30.1113913151      -57.7012095427  TIP3      13575           0.0000000000
     62978     13768  TIP3      OH2            13.8129342474      -33.1701911848      -50.3207714315  TIP3      13576           0.0000000000
     62979     13768  TIP3      H1             13.1198638371      -33.0903606077      -49.6328706365  TIP3      13576           0.0000000000
     62980     13768  TIP3      H2             13.3188132234      -33.4328805731      -51.1095210944  TIP3      13576           0.0000000000
     62981     13769  TIP3      OH2             6.6408348092      -29.6040180117      -59.4925791008  TIP3      13577           0.0000000000
     62982     13769  TIP3      H1              6.0238907303      -29.9850152061      -60.1448155394  TIP3      13577           0.0000000000
     62983     13769  TIP3      H2              7.4187239315      -29.3983071265      -60.0143961501  TIP3      13577           0.0000000000
     62984     13770  TIP3      OH2            17.0101875624      -17.5078435584      -43.9930597556  TIP3      13578           0.0000000000
     62985     13770  TIP3      H1             17.2753288918      -17.1241246963      -44.8483355309  TIP3      13578           0.0000000000
     62986     13770  TIP3      H2             17.7299609622      -17.1858561519      -43.4324431892  TIP3      13578           0.0000000000
     62987     13771  TIP3      OH2             4.6866639554      -25.0392783583      -44.4207670077  TIP3      13579           0.0000000000
     62988     13771  TIP3      H1              5.4066765650      -24.7925209523      -43.8173585025  TIP3      13579           0.0000000000
     62989     13771  TIP3      H2              3.9137832483      -24.9583502110      -43.8200369681  TIP3      13579           0.0000000000
     62990     13772  TIP3      OH2            10.6921423934      -29.6317065754      -51.6723539929  TIP3      13580           0.0000000000
     62991     13772  TIP3      H1             11.2917120805      -30.1747583875      -52.1983758229  TIP3      13580           0.0000000000
     62992     13772  TIP3      H2             10.5412753144      -30.1754896356      -50.8890695126  TIP3      13580           0.0000000000
     62993     13773  TIP3      OH2             5.7535743013      -33.4650086960      -55.1541243067  TIP3      13581           0.0000000000
     62994     13773  TIP3      H1              5.3594385540      -34.3464197104      -55.2727102510  TIP3      13581           0.0000000000
     62995     13773  TIP3      H2              6.4546020528      -33.4944803790      -55.8146099912  TIP3      13581           0.0000000000
     62996     13774  TIP3      OH2             9.3202085271      -31.2792947216      -49.2352554535  TIP3      13582           0.0000000000
     62997     13774  TIP3      H1              8.5033643639      -30.7392641696      -49.1755433497  TIP3      13582           0.0000000000
     62998     13774  TIP3      H2              9.8944526626      -30.9155704684      -48.5347415799  TIP3      13582           0.0000000000
     62999     13775  TIP3      OH2             9.9475260615      -25.1290524916      -57.5462819077  TIP3      13583           0.0000000000
     63000     13775  TIP3      H1              9.1121232217      -25.5336260787      -57.8909129983  TIP3      13583           0.0000000000
     63001     13775  TIP3      H2              9.6727376526      -24.9381055822      -56.6225122530  TIP3      13583           0.0000000000
     63002     13776  TIP3      OH2            17.1018465270      -25.8744290456      -48.7513709719  TIP3      13584           0.0000000000
     63003     13776  TIP3      H1             17.6636542999      -25.3911554572      -49.3843629748  TIP3      13584           0.0000000000
     63004     13776  TIP3      H2             16.2411510517      -25.8302434785      -49.2148570783  TIP3      13584           0.0000000000
     63005     13777  TIP3      OH2            13.7288476710      -32.2598839635      -59.3613416422  TIP3      13585           0.0000000000
     63006     13777  TIP3      H1             12.7807117964      -32.1026579257      -59.5223183308  TIP3      13585           0.0000000000
     63007     13777  TIP3      H2             14.0828752574      -31.4137896012      -59.0261886738  TIP3      13585           0.0000000000
     63008     13778  TIP3      OH2            11.4059248727      -24.8067691921      -46.3092770550  TIP3      13586           0.0000000000
     63009     13778  TIP3      H1             11.0580958665      -25.2368158683      -45.5211290635  TIP3      13586           0.0000000000
     63010     13778  TIP3      H2             11.1491808599      -23.8856535197      -46.2022155819  TIP3      13586           0.0000000000
     63011     13779  TIP3      OH2            14.4819391631      -30.3496654459      -57.7383636059  TIP3      13587           0.0000000000
     63012     13779  TIP3      H1             15.3717001300      -30.5241437899      -57.3496336182  TIP3      13587           0.0000000000
     63013     13779  TIP3      H2             14.6097434694      -29.5511845180      -58.2718345488  TIP3      13587           0.0000000000
     63014     13780  TIP3      OH2             5.0255469185      -25.6837767073      -51.7566759564  TIP3      13588           0.0000000000
     63015     13780  TIP3      H1              5.7034056975      -25.7662425550      -52.4545990315  TIP3      13588           0.0000000000
     63016     13780  TIP3      H2              5.0825835068      -26.5390408800      -51.2985337178  TIP3      13588           0.0000000000
     63017     13781  TIP3      OH2            12.0395031237      -23.6950275920      -58.4435022413  TIP3      13589           0.0000000000
     63018     13781  TIP3      H1             11.7099400816      -22.7921962495      -58.2078149306  TIP3      13589           0.0000000000
     63019     13781  TIP3      H2             11.1995856192      -24.1890684616      -58.3092230904  TIP3      13589           0.0000000000
     63020     13782  TIP3      OH2             2.0152950331      -27.2823631973      -46.4929595237  TIP3      13590           0.0000000000
     63021     13782  TIP3      H1              2.1826014366      -27.7254639337      -45.6382407611  TIP3      13590           0.0000000000
     63022     13782  TIP3      H2              1.3922611558      -27.8893280553      -46.9313607344  TIP3      13590           0.0000000000
     63023     13783  TIP3      OH2             9.0272732955      -27.7191180308      -44.3153767970  TIP3      13591           0.0000000000
     63024     13783  TIP3      H1              8.7080209656      -28.0290011086      -45.1767289172  TIP3      13591           0.0000000000
     63025     13783  TIP3      H2              9.9496594536      -28.0442865038      -44.3180567294  TIP3      13591           0.0000000000
     63026     13784  TIP3      OH2            13.7127342110      -22.3842436065      -46.3607074185  TIP3      13592           0.0000000000
     63027     13784  TIP3      H1             12.7875462868      -22.2058697676      -46.5950614059  TIP3      13592           0.0000000000
     63028     13784  TIP3      H2             13.6791060064      -22.0908747651      -45.4301857727  TIP3      13592           0.0000000000
     63029     13785  TIP3      OH2            19.3917774708      -30.1953740406      -57.9782932125  TIP3      13593           0.0000000000
     63030     13785  TIP3      H1             18.8179175289      -30.4882541907      -58.7120035939  TIP3      13593           0.0000000000
     63031     13785  TIP3      H2             19.4599352250      -29.2461776084      -58.2303774877  TIP3      13593           0.0000000000
     63032     13786  TIP3      OH2            19.3660022190      -24.3404229819      -45.1687176855  TIP3      13594           0.0000000000
     63033     13786  TIP3      H1             18.4743276984      -24.1213357788      -45.5337880327  TIP3      13594           0.0000000000
     63034     13786  TIP3      H2             19.9127707997      -24.3950161699      -45.9814531035  TIP3      13594           0.0000000000
     63035     13787  TIP3      OH2            17.6484053804      -21.3659239706      -57.5848441752  TIP3      13595           0.0000000000
     63036     13787  TIP3      H1             17.3225743059      -22.1982537248      -57.2226190675  TIP3      13595           0.0000000000
     63037     13787  TIP3      H2             17.9928501570      -21.5943760555      -58.4630756768  TIP3      13595           0.0000000000
     63038     13788  TIP3      OH2            14.8775963801      -26.5569541922      -50.4744785635  TIP3      13596           0.0000000000
     63039     13788  TIP3      H1             13.9373561273      -26.7639411285      -50.5885762252  TIP3      13596           0.0000000000
     63040     13788  TIP3      H2             15.3087970248      -27.3184557119      -50.9061365584  TIP3      13596           0.0000000000
     63041     13789  TIP3      OH2             7.3996040235      -22.2280747200      -54.3701647419  TIP3      13597           0.0000000000
     63042     13789  TIP3      H1              7.8965965859      -21.4187917479      -54.5752490001  TIP3      13597           0.0000000000
     63043     13789  TIP3      H2              6.5201334184      -21.9973442964      -54.6991468508  TIP3      13597           0.0000000000
     63044     13790  TIP3      OH2             3.1461290731      -27.2977686923      -59.8876689315  TIP3      13598           0.0000000000
     63045     13790  TIP3      H1              3.7480919122      -26.7611072262      -59.3542095463  TIP3      13598           0.0000000000
     63046     13790  TIP3      H2              2.2693134392      -27.0984188953      -59.5211243055  TIP3      13598           0.0000000000
     63047     13791  TIP3      OH2             8.8239456356      -24.5589743231      -54.8769108243  TIP3      13599           0.0000000000
     63048     13791  TIP3      H1              8.5050066067      -23.6433459608      -54.7631537252  TIP3      13599           0.0000000000
     63049     13791  TIP3      H2              8.1150253490      -25.0560498433      -54.4192085361  TIP3      13599           0.0000000000
     63050     13792  TIP3      OH2             9.2604617434      -20.3782086818      -48.4383440808  TIP3      13600           0.0000000000
     63051     13792  TIP3      H1              9.7221387431      -19.5746300970      -48.7270621482  TIP3      13600           0.0000000000
     63052     13792  TIP3      H2              9.8780477669      -20.7211692395      -47.7666061574  TIP3      13600           0.0000000000
     63053     13793  TIP3      OH2             7.4842178248      -19.5723914588      -55.3250893966  TIP3      13601           0.0000000000
     63054     13793  TIP3      H1              6.5218050569      -19.4294894336      -55.1910827135  TIP3      13601           0.0000000000
     63055     13793  TIP3      H2              7.8532457809      -18.7372298076      -54.9820145905  TIP3      13601           0.0000000000
     63056     13794  TIP3      OH2            12.7776322682      -24.3885942366      -48.8297252297  TIP3      13602           0.0000000000
     63057     13794  TIP3      H1             12.4616325658      -24.5736500018      -47.9207734011  TIP3      13602           0.0000000000
     63058     13794  TIP3      H2             13.4258664850      -25.0928230089      -48.9912393172  TIP3      13602           0.0000000000
     63059     13795  TIP3      OH2            15.1184516948      -23.3222294652      -59.7436064490  TIP3      13603           0.0000000000
     63060     13795  TIP3      H1             15.4406814772      -23.7521366109      -58.9298720593  TIP3      13603           0.0000000000
     63061     13795  TIP3      H2             14.1623760590      -23.4495099397      -59.6652512925  TIP3      13603           0.0000000000
     63062     13796  TIP3      OH2            15.6047620573      -19.7994723267      -46.3360867197  TIP3      13604           0.0000000000
     63063     13796  TIP3      H1             14.9119552078      -20.2930141036      -46.8144919258  TIP3      13604           0.0000000000
     63064     13796  TIP3      H2             15.7866432063      -19.0990707853      -46.9975714354  TIP3      13604           0.0000000000
     63065     13797  TIP3      OH2            19.5871397067      -18.9529387927      -59.4790861673  TIP3      13605           0.0000000000
     63066     13797  TIP3      H1             20.2752244626      -18.2883707941      -59.6845501705  TIP3      13605           0.0000000000
     63067     13797  TIP3      H2             18.8728700859      -18.3410789655      -59.1930314448  TIP3      13605           0.0000000000
     63068     13798  TIP3      OH2             3.6772998985      -32.5831347201      -46.9159353141  TIP3      13606           0.0000000000
     63069     13798  TIP3      H1              2.7764459260      -32.2011610237      -46.9736810366  TIP3      13606           0.0000000000
     63070     13798  TIP3      H2              3.4873501089      -33.4453899528      -46.5098753707  TIP3      13606           0.0000000000
     63071     13799  TIP3      OH2            15.8673836417      -24.7092315579      -57.5008945020  TIP3      13607           0.0000000000
     63072     13799  TIP3      H1             15.7122616253      -25.4714630996      -56.9116795545  TIP3      13607           0.0000000000
     63073     13799  TIP3      H2             16.8298653393      -24.6083077552      -57.3363017004  TIP3      13607           0.0000000000
     63074     13800  TIP3      OH2             3.2757267817      -20.7627184333      -48.5170157091  TIP3      13608           0.0000000000
     63075     13800  TIP3      H1              3.5804285318      -21.6829202331      -48.5101861034  TIP3      13608           0.0000000000
     63076     13800  TIP3      H2              3.5387629570      -20.4706528974      -47.6370563416  TIP3      13608           0.0000000000
     63077     13801  TIP3      OH2             9.2557204701      -22.2337332251      -61.2397663262  TIP3      13609           0.0000000000
     63078     13801  TIP3      H1              9.3497649268      -23.0009082072      -61.8271198958  TIP3      13609           0.0000000000
     63079     13801  TIP3      H2              8.7887669606      -22.6517770010      -60.4835025598  TIP3      13609           0.0000000000
     63080     13802  TIP3      OH2             8.0337439387      -22.7076651950      -58.7857011605  TIP3      13610           0.0000000000
     63081     13802  TIP3      H1              8.2639836692      -23.2134589610      -58.0027372260  TIP3      13610           0.0000000000
     63082     13802  TIP3      H2              8.1157038570      -21.7790103616      -58.4653496354  TIP3      13610           0.0000000000
     63083     13803  TIP3      OH2             4.5808324526      -25.4434380157      -58.3028958572  TIP3      13611           0.0000000000
     63084     13803  TIP3      H1              3.8518984652      -25.0813766080      -57.7624337481  TIP3      13611           0.0000000000
     63085     13803  TIP3      H2              5.0750724760      -24.6558998335      -58.5838029965  TIP3      13611           0.0000000000
     63086     13804  TIP3      OH2            12.3835305909      -32.7692564201      -47.9759211454  TIP3      13612           0.0000000000
     63087     13804  TIP3      H1             13.1216866865      -32.7124670422      -47.3560846158  TIP3      13612           0.0000000000
     63088     13804  TIP3      H2             12.0562304440      -33.6720118401      -47.8188383460  TIP3      13612           0.0000000000
     63089     13805  TIP3      OH2            13.1650671083      -33.1963014966      -56.8692706911  TIP3      13613           0.0000000000
     63090     13805  TIP3      H1             13.3637588747      -32.7468707476      -57.7185067327  TIP3      13613           0.0000000000
     63091     13805  TIP3      H2             13.7086086605      -32.6930794967      -56.2481543735  TIP3      13613           0.0000000000
     63092     13806  TIP3      OH2            10.8402269072      -21.0748706895      -58.1123900542  TIP3      13614           0.0000000000
     63093     13806  TIP3      H1             10.0246004211      -20.5367877046      -58.0086368315  TIP3      13614           0.0000000000
     63094     13806  TIP3      H2             11.3653049290      -20.4810119107      -58.6721993659  TIP3      13614           0.0000000000
     63095     13807  TIP3      OH2            10.3829651546      -31.4872475088      -56.0650384303  TIP3      13615           0.0000000000
     63096     13807  TIP3      H1             11.1468557705      -30.8838254640      -56.0233227576  TIP3      13615           0.0000000000
     63097     13807  TIP3      H2             10.1194721151      -31.5816690205      -55.1303907368  TIP3      13615           0.0000000000
     63098     13808  TIP3      OH2            10.9003222291      -30.4630677000      -46.8571269576  TIP3      13616           0.0000000000
     63099     13808  TIP3      H1             11.0248769096      -29.8566077966      -46.0957342363  TIP3      13616           0.0000000000
     63100     13808  TIP3      H2             11.6134812525      -31.1099545786      -46.7926519486  TIP3      13616           0.0000000000
     63101     13809  TIP3      OH2            11.2440869540      -34.3878894979      -55.1470284816  TIP3      13617           0.0000000000
     63102     13809  TIP3      H1             10.8932159033      -33.7171317719      -54.5366555515  TIP3      13617           0.0000000000
     63103     13809  TIP3      H2             11.8999441685      -33.8380021373      -55.6356599032  TIP3      13617           0.0000000000
     63104     13810  TIP3      OH2             8.2340379819      -20.0106117639      -58.0591672730  TIP3      13618           0.0000000000
     63105     13810  TIP3      H1              8.3230461481      -19.1958497723      -58.6110663288  TIP3      13618           0.0000000000
     63106     13810  TIP3      H2              7.9568712751      -19.6453405908      -57.1904771854  TIP3      13618           0.0000000000
     63107     13811  TIP3      OH2             6.8743395018      -33.3113960928      -58.4999049342  TIP3      13619           0.0000000000
     63108     13811  TIP3      H1              6.7802501612      -32.4086014649      -58.1191788858  TIP3      13619           0.0000000000
     63109     13811  TIP3      H2              7.7965768757      -33.4884787237      -58.2283513100  TIP3      13619           0.0000000000
     63110     13812  TIP3      OH2            17.1025329117      -32.5586155250      -46.0228778758  TIP3      13620           0.0000000000
     63111     13812  TIP3      H1             16.1770797461      -32.2346909908      -46.1638586158  TIP3      13620           0.0000000000
     63112     13812  TIP3      H2             17.4012051620      -32.5867991917      -46.9521050292  TIP3      13620           0.0000000000
     63113     13813  TIP3      OH2            15.7158739393      -28.7685764913      -52.0371435486  TIP3      13621           0.0000000000
     63114     13813  TIP3      H1             14.8877734157      -29.2151109839      -52.3026248893  TIP3      13621           0.0000000000
     63115     13813  TIP3      H2             16.1974090446      -29.4532192584      -51.5177937078  TIP3      13621           0.0000000000
     63116     13814  TIP3      OH2             5.1090178136      -22.8463313106      -59.4391580635  TIP3      13622           0.0000000000
     63117     13814  TIP3      H1              5.7777915973      -22.2191658385      -59.1254357494  TIP3      13622           0.0000000000
     63118     13814  TIP3      H2              5.6268401850      -23.3101203741      -60.1275437752  TIP3      13622           0.0000000000
     63119     13815  TIP3      OH2             3.3891436749      -30.0310560089      -60.7583150910  TIP3      13623           0.0000000000
     63120     13815  TIP3      H1              3.5247363763      -29.3511590441      -60.0596479719  TIP3      13623           0.0000000000
     63121     13815  TIP3      H2              2.5382361342      -30.3909502156      -60.5285668325  TIP3      13623           0.0000000000
     63122     13816  TIP3      OH2            16.7787372601      -19.5081127880      -50.3599940865  TIP3      13624           0.0000000000
     63123     13816  TIP3      H1             16.6901809695      -18.8278350528      -51.0560503368  TIP3      13624           0.0000000000
     63124     13816  TIP3      H2             17.7428033307      -19.4567811676      -50.1869534580  TIP3      13624           0.0000000000
     63125     13817  TIP3      OH2             4.0720039670      -35.1581272502      -51.3003507340  TIP3      13625           0.0000000000
     63126     13817  TIP3      H1              4.4511813928      -35.1177352181      -52.1996549412  TIP3      13625           0.0000000000
     63127     13817  TIP3      H2              4.0232588118      -36.1042472800      -51.0781797571  TIP3      13625           0.0000000000
     63128     13818  TIP3      OH2             3.2301984006      -21.4686325460      -55.4094963159  TIP3      13626           0.0000000000
     63129     13818  TIP3      H1              2.3764934428      -21.0196124631      -55.4526831341  TIP3      13626           0.0000000000
     63130     13818  TIP3      H2              3.7038381394      -21.0006845848      -56.1092794298  TIP3      13626           0.0000000000
     63131     13819  TIP3      OH2             2.4284299255      -18.8149970188      -44.1261576644  TIP3      13627           0.0000000000
     63132     13819  TIP3      H1              3.0342403989      -19.0155338100      -43.3864878814  TIP3      13627           0.0000000000
     63133     13819  TIP3      H2              2.0293749136      -19.6840334653      -44.3066315057  TIP3      13627           0.0000000000
     63134     13820  TIP3      OH2             7.1124701860      -19.8957350538      -42.5181709323  TIP3      13628           0.0000000000
     63135     13820  TIP3      H1              7.8688350739      -20.3964523555      -42.1840695915  TIP3      13628           0.0000000000
     63136     13820  TIP3      H2              7.0855978529      -20.1759780154      -43.4535944795  TIP3      13628           0.0000000000
     63137     13821  TIP3      OH2            11.2456047870      -20.3828564356      -61.1140954103  TIP3      13629           0.0000000000
     63138     13821  TIP3      H1             10.5547087544      -21.0444824988      -60.8878876302  TIP3      13629           0.0000000000
     63139     13821  TIP3      H2             11.9654098519      -20.9739669352      -61.3706685786  TIP3      13629           0.0000000000
     63140     13822  TIP3      OH2            13.6144375455      -21.5126264831      -43.7671386359  TIP3      13630           0.0000000000
     63141     13822  TIP3      H1             13.2995556197      -22.4000533458      -43.4925318501  TIP3      13630           0.0000000000
     63142     13822  TIP3      H2             14.3835742729      -21.3940952337      -43.1751877890  TIP3      13630           0.0000000000
     63143     13823  TIP3      OH2            15.8043935332      -20.6378651496      -60.9307026610  TIP3      13631           0.0000000000
     63144     13823  TIP3      H1             16.1086052049      -21.4077052745      -60.4272345874  TIP3      13631           0.0000000000
     63145     13823  TIP3      H2             16.5660761511      -20.4107283500      -61.4828234408  TIP3      13631           0.0000000000
     63146     13824  TIP3      OH2             2.3395426655      -25.0432675340      -43.1277881301  TIP3      13632           0.0000000000
     63147     13824  TIP3      H1              2.5066604245      -25.9545738263      -43.4294347780  TIP3      13632           0.0000000000
     63148     13824  TIP3      H2              1.6003581228      -24.7853536558      -43.7029469129  TIP3      13632           0.0000000000
     63149     13825  TIP3      OH2             6.7080737072      -24.6963340384      -61.0953696892  TIP3      13633           0.0000000000
     63150     13825  TIP3      H1              6.8379116065      -25.4656751662      -60.5226086127  TIP3      13633           0.0000000000
     63151     13825  TIP3      H2              7.4441126748      -24.8179974604      -61.7267245209  TIP3      13633           0.0000000000
     63152     13826  TIP3      OH2             9.0580745457      -25.0547426904      -43.7436579012  TIP3      13634           0.0000000000
     63153     13826  TIP3      H1              8.7230410033      -24.7421210037      -44.6071575366  TIP3      13634           0.0000000000
     63154     13826  TIP3      H2              9.1324083993      -26.0320573919      -43.8516904991  TIP3      13634           0.0000000000
     63155     13827  TIP3      OH2            12.1538238616      -23.5986885729      -61.3226843866  TIP3      13635           0.0000000000
     63156     13827  TIP3      H1             11.8038509017      -23.4770641667      -60.4329505706  TIP3      13635           0.0000000000
     63157     13827  TIP3      H2             11.9211636173      -24.5436118784      -61.4970507322  TIP3      13635           0.0000000000
     63158     13828  TIP3      OH2            14.7504472318      -25.2002095359      -46.3510702456  TIP3      13636           0.0000000000
     63159     13828  TIP3      H1             15.5393034727      -24.6167854127      -46.4130132893  TIP3      13636           0.0000000000
     63160     13828  TIP3      H2             14.0537786350      -24.5290761246      -46.3152043482  TIP3      13636           0.0000000000
     63161     13829  TIP3      OH2             3.2640515533      -27.8161163876      -43.7473316412  TIP3      13637           0.0000000000
     63162     13829  TIP3      H1              3.6786971812      -28.6799323560      -43.8394425577  TIP3      13637           0.0000000000
     63163     13829  TIP3      H2              3.0284349883      -27.8119856493      -42.8053899410  TIP3      13637           0.0000000000
     63164     13830  TIP3      OH2             7.9333533247      -26.6895951035      -58.6679890091  TIP3      13638           0.0000000000
     63165     13830  TIP3      H1              7.3627248126      -27.2085026974      -58.0749033632  TIP3      13638           0.0000000000
     63166     13830  TIP3      H2              8.1347747093      -27.3669495133      -59.3508760871  TIP3      13638           0.0000000000
     63167     13831  TIP3      OH2             7.1561390153      -28.8945158665      -46.3999261511  TIP3      13639           0.0000000000
     63168     13831  TIP3      H1              6.5738445919      -28.1577516946      -46.1357774784  TIP3      13639           0.0000000000
     63169     13831  TIP3      H2              7.5598711427      -28.5006896258      -47.1964275030  TIP3      13639           0.0000000000
     63170     13832  TIP3      OH2             8.9923492037      -28.4401805040      -60.4863484607  TIP3      13640           0.0000000000
     63171     13832  TIP3      H1              8.8291945392      -28.5443348645      -61.4461411653  TIP3      13640           0.0000000000
     63172     13832  TIP3      H2              9.9639940744      -28.4155969391      -60.4319496200  TIP3      13640           0.0000000000
     63173     13833  TIP3      OH2            12.2358012427      -26.3042719622      -43.0575150422  TIP3      13641           0.0000000000
     63174     13833  TIP3      H1             13.1932975140      -26.3139367353      -43.1784815919  TIP3      13641           0.0000000000
     63175     13833  TIP3      H2             12.0651945280      -27.0741416415      -42.4916579118  TIP3      13641           0.0000000000
     63176     13834  TIP3      OH2            18.2965316399      -26.1389244823      -61.0707286785  TIP3      13642           0.0000000000
     63177     13834  TIP3      H1             18.1091764926      -26.5189352027      -61.9434286977  TIP3      13642           0.0000000000
     63178     13834  TIP3      H2             18.3880697750      -25.1765883742      -61.2575028621  TIP3      13642           0.0000000000
     63179     13835  TIP3      OH2             7.5198827645      -31.5354617617      -45.3757986919  TIP3      13643           0.0000000000
     63180     13835  TIP3      H1              7.8093670951      -32.0973385385      -46.0850613262  TIP3      13643           0.0000000000
     63181     13835  TIP3      H2              7.5169972648      -30.6538628953      -45.8323231685  TIP3      13643           0.0000000000
     63182     13836  TIP3      OH2             7.9460555664      -33.0796145468      -47.8728972589  TIP3      13644           0.0000000000
     63183     13836  TIP3      H1              8.5076684363      -32.5934209516      -48.5393438758  TIP3      13644           0.0000000000
     63184     13836  TIP3      H2              7.0877876610      -33.1527705574      -48.3576560523  TIP3      13644           0.0000000000
     63185     13837  TIP3      OH2             9.5057222661      -27.6242946211      -47.5372507182  TIP3      13645           0.0000000000
     63186     13837  TIP3      H1             10.2611035077      -27.7882616281      -48.1116973610  TIP3      13645           0.0000000000
     63187     13837  TIP3      H2              9.1434468503      -26.7897205924      -47.8771251874  TIP3      13645           0.0000000000
     63188     13838  TIP3      OH2            13.9027792376      -29.8737375038      -42.5840320511  TIP3      13646           0.0000000000
     63189     13838  TIP3      H1             14.1403374274      -30.8098700122      -42.6704378327  TIP3      13646           0.0000000000
     63190     13838  TIP3      H2             14.7685021747      -29.4310560216      -42.5463284186  TIP3      13646           0.0000000000
     63191     13839  TIP3      OH2            15.2455609186      -27.0821175411      -44.4156904042  TIP3      13647           0.0000000000
     63192     13839  TIP3      H1             14.9948675766      -26.3575593564      -45.0298322499  TIP3      13647           0.0000000000
     63193     13839  TIP3      H2             16.2034736113      -27.1096904343      -44.6001170532  TIP3      13647           0.0000000000
     63194     13840  TIP3      OH2             6.0272422563      -30.2557692318      -43.4023540091  TIP3      13648           0.0000000000
     63195     13840  TIP3      H1              5.2432134022      -30.8104475911      -43.5796224540  TIP3      13648           0.0000000000
     63196     13840  TIP3      H2              6.6804451762      -30.5876943860      -44.0359543225  TIP3      13648           0.0000000000
     63197     13841  TIP3      OH2             8.5092206090      -35.4266490882      -47.0996027336  TIP3      13649           0.0000000000
     63198     13841  TIP3      H1              8.6463741159      -34.5783477727      -47.5780443351  TIP3      13649           0.0000000000
     63199     13841  TIP3      H2              8.0906447451      -35.9600880070      -47.8023738517  TIP3      13649           0.0000000000
     63200     13842  TIP3      OH2            10.0192819223      -31.3281130180      -43.7863065128  TIP3      13650           0.0000000000
     63201     13842  TIP3      H1              9.7496921229      -31.6080197598      -42.8882380387  TIP3      13650           0.0000000000
     63202     13842  TIP3      H2              9.2281301541      -31.5427277718      -44.2931006909  TIP3      13650           0.0000000000
     63203     13843  TIP3      OH2            12.7590773620      -32.1946006107      -44.6723809898  TIP3      13651           0.0000000000
     63204     13843  TIP3      H1             11.7939913115      -32.1553693862      -44.5480405843  TIP3      13651           0.0000000000
     63205     13843  TIP3      H2             13.0307918419      -32.8327993898      -43.9847204709  TIP3      13651           0.0000000000
     63206     13844  TIP3      OH2            14.3480981773      -33.4749359282      -42.7483436682  TIP3      13652           0.0000000000
     63207     13844  TIP3      H1             14.2526719269      -34.4594453074      -42.7756473459  TIP3      13652           0.0000000000
     63208     13844  TIP3      H2             14.0549569871      -33.2818320000      -41.8412658945  TIP3      13652           0.0000000000
     63209     13845  TIP3      OH2             4.1159208632      -32.3234292504      -43.6672114622  TIP3      13653           0.0000000000
     63210     13845  TIP3      H1              4.3251930279      -33.0776057464      -44.2377299100  TIP3      13653           0.0000000000
     63211     13845  TIP3      H2              4.0140121429      -32.7568889529      -42.7926090753  TIP3      13653           0.0000000000
     63212     13846  TIP3      OH2             8.9550965783       36.7576607674      -44.6881904054  TIP3      13654           0.0000000000
     63213     13846  TIP3      H1              9.6204156048       36.0624221271      -44.5807853224  TIP3      13654           0.0000000000
     63214     13846  TIP3      H2              8.8905456924       36.8662564551      -45.6537569509  TIP3      13654           0.0000000000
     63215     13847  TIP3      OH2             9.3789205928      -34.5823153789      -42.6351008836  TIP3      13655           0.0000000000
     63216     13847  TIP3      H1              9.1864904301      -35.1863174344      -43.3804833272  TIP3      13655           0.0000000000
     63217     13847  TIP3      H2              8.7271441474      -33.8677803328      -42.6610079559  TIP3      13655           0.0000000000
     63218     13848  TIP3      OH2             8.8014671226      -17.7550346140      -59.4028673586  TIP3      13656           0.0000000000
     63219     13848  TIP3      H1              9.7682988617      -17.6714620745      -59.3362141696  TIP3      13656           0.0000000000
     63220     13848  TIP3      H2              8.6541155474      -17.1547676446      -60.1432652350  TIP3      13656           0.0000000000
     63221     13849  TIP3      OH2             2.3534823852      -23.1837726176      -59.9352435846  TIP3      13657           0.0000000000
     63222     13849  TIP3      H1              3.3205632997      -23.0902591684      -59.7549126726  TIP3      13657           0.0000000000
     63223     13849  TIP3      H2              2.4048143138      -23.8284489354      -60.6811497236  TIP3      13657           0.0000000000
     63224     13850  TIP3      OH2             1.1376671743      -17.7993404454      -54.9711534876  TIP3      13658           0.0000000000
     63225     13850  TIP3      H1              0.4160990737      -18.2841741744      -55.4289660258  TIP3      13658           0.0000000000
     63226     13850  TIP3      H2              1.4168541414      -18.4523173761      -54.3040414408  TIP3      13658           0.0000000000
     63227     13851  TIP3      OH2             1.9587553797      -19.6617765324      -53.0937149582  TIP3      13659           0.0000000000
     63228     13851  TIP3      H1              1.6069781731      -20.5405027469      -52.8935943986  TIP3      13659           0.0000000000
     63229     13851  TIP3      H2              2.1854191000      -19.3319410662      -52.2081497088  TIP3      13659           0.0000000000
     63230     13852  TIP3      OH2            19.4979483662      -18.8670499430      -50.1692583228  TIP3      13660           0.0000000000
     63231     13852  TIP3      H1             19.5220348465      -18.7102140891      -49.2109536473  TIP3      13660           0.0000000000
     63232     13852  TIP3      H2             20.2026889392      -18.2826432252      -50.4670504075  TIP3      13660           0.0000000000
     63233     13853  TIP3      OH2            19.0703667306      -19.2695214036      -47.2165292811  TIP3      13661           0.0000000000
     63234     13853  TIP3      H1             18.6006003201      -20.0415687168      -47.6025926436  TIP3      13661           0.0000000000
     63235     13853  TIP3      H2             19.5586231577      -19.7176886272      -46.5057289136  TIP3      13661           0.0000000000
     63236     13854  TIP3      OH2            17.5165936598      -23.5490732591      -42.5436277652  TIP3      13662           0.0000000000
     63237     13854  TIP3      H1             16.6103293634      -23.5783430703      -42.1819485092  TIP3      13662           0.0000000000
     63238     13854  TIP3      H2             17.8873471263      -22.7436477226      -42.1343797324  TIP3      13662           0.0000000000
     63239     13855  TIP3      OH2            18.8072620205      -25.2188042541      -57.1120232784  TIP3      13663           0.0000000000
     63240     13855  TIP3      H1             19.6801372391      -24.8220428020      -56.9446003906  TIP3      13663           0.0000000000
     63241     13855  TIP3      H2             18.8280730916      -25.9406631704      -56.4453352227  TIP3      13663           0.0000000000
     63242     13856  TIP3      OH2            19.1916428946      -27.1440357934      -55.2263387027  TIP3      13664           0.0000000000
     63243     13856  TIP3      H1             18.4392554484      -27.6409186150      -54.8352807064  TIP3      13664           0.0000000000
     63244     13856  TIP3      H2             19.7898356893      -27.0124941286      -54.4641931640  TIP3      13664           0.0000000000
     63245     13857  TIP3      OH2            18.9490340752      -24.4492790675      -50.2432466025  TIP3      13665           0.0000000000
     63246     13857  TIP3      H1             19.7618688649      -24.8260942275      -50.6240439952  TIP3      13665           0.0000000000
     63247     13857  TIP3      H2             19.0948530648      -23.4950022434      -50.4150984636  TIP3      13665           0.0000000000
     63248     13858  TIP3      OH2            17.5087840270      -21.5413295531      -47.9756841360  TIP3      13666           0.0000000000
     63249     13858  TIP3      H1             16.8177864208      -21.2011606795      -47.3868843914  TIP3      13666           0.0000000000
     63250     13858  TIP3      H2             16.9616231081      -21.9433962855      -48.6839960355  TIP3      13666           0.0000000000
     63251     13859  TIP3      OH2            19.4986125041      -27.3229402584      -58.8367234233  TIP3      13667           0.0000000000
     63252     13859  TIP3      H1             18.9284852998      -26.9833482100      -59.5591831841  TIP3      13667           0.0000000000
     63253     13859  TIP3      H2             19.3930750364      -26.6100571649      -58.1798003005  TIP3      13667           0.0000000000
     63254     13860  TIP3      OH2            17.8783122049      -30.0864952437      -60.3320097102  TIP3      13668           0.0000000000
     63255     13860  TIP3      H1             17.9436538394      -29.4223513151      -61.0246456901  TIP3      13668           0.0000000000
     63256     13860  TIP3      H2             17.6816877390      -30.9106098096      -60.8207057491  TIP3      13668           0.0000000000
     63257     13861  TIP3      OH2            16.9741243936      -28.6493307022      -54.6729315129  TIP3      13669           0.0000000000
     63258     13861  TIP3      H1             16.8620421084      -29.6133068883      -54.7046802032  TIP3      13669           0.0000000000
     63259     13861  TIP3      H2             16.6923903853      -28.4558169629      -53.7592263382  TIP3      13669           0.0000000000
     63260     13862  TIP3      OH2             2.0181452946      -26.5833675850      -50.5973258111  TIP3      13670           0.0000000000
     63261     13862  TIP3      H1              2.1960649556      -26.6667941358      -51.5616753215  TIP3      13670           0.0000000000
     63262     13862  TIP3      H2              2.9116907623      -26.7619923946      -50.2462528717  TIP3      13670           0.0000000000
     63263     13863  TIP3      OH2            17.8759711132      -26.7028377338      -44.9674061586  TIP3      13671           0.0000000000
     63264     13863  TIP3      H1             18.4848530895      -27.4610247976      -44.8368201082  TIP3      13671           0.0000000000
     63265     13863  TIP3      H2             18.4784487067      -25.9301779103      -44.9662383207  TIP3      13671           0.0000000000
     63266     13864  TIP3      OH2            19.3731628163      -28.8216948720      -44.3187428823  TIP3      13672           0.0000000000
     63267     13864  TIP3      H1             18.4911734883      -29.2217124594      -44.4733633982  TIP3      13672           0.0000000000
     63268     13864  TIP3      H2             19.9441678531      -29.6052153373      -44.3941535121  TIP3      13672           0.0000000000
     63269     13865  TIP3      OH2            17.1127111772      -32.6089927460      -61.1706950202  TIP3      13673           0.0000000000
     63270     13865  TIP3      H1             17.7047688566      -33.0540624142      -60.5331533617  TIP3      13673           0.0000000000
     63271     13865  TIP3      H2             16.2539208993      -33.0473836358      -61.0323436060  TIP3      13673           0.0000000000
     63272     13866  TIP3      OH2            16.6566935047      -31.0698286729      -56.2345478100  TIP3      13674           0.0000000000
     63273     13866  TIP3      H1             16.9733477466      -31.9884607483      -56.0862737868  TIP3      13674           0.0000000000
     63274     13866  TIP3      H2             17.4775641366      -30.6701525289      -56.5521063988  TIP3      13674           0.0000000000
     63275     13867  TIP3      OH2            17.3170737928      -30.5191302024      -50.7635777787  TIP3      13675           0.0000000000
     63276     13867  TIP3      H1             18.2821325419      -30.3087918669      -50.7708380050  TIP3      13675           0.0000000000
     63277     13867  TIP3      H2             17.1322368614      -30.4073733025      -49.8180003633  TIP3      13675           0.0000000000
     63278     13868  TIP3      OH2            17.3722018478      -29.8022120118      -47.9887382700  TIP3      13676           0.0000000000
     63279     13868  TIP3      H1             16.4951157514      -29.5237858085      -47.6564620250  TIP3      13676           0.0000000000
     63280     13868  TIP3      H2             17.8161477078      -28.9467936060      -48.1993813953  TIP3      13676           0.0000000000
     63281     13869  TIP3      OH2             1.6064323801      -31.2658634505      -44.4374790719  TIP3      13677           0.0000000000
     63282     13869  TIP3      H1              2.5446146268      -31.4698649636      -44.2597577712  TIP3      13677           0.0000000000
     63283     13869  TIP3      H2              1.1793201970      -32.1096663453      -44.1872329949  TIP3      13677           0.0000000000
     63284     13870  TIP3      OH2            19.7158734311      -35.7472816679      -42.6146803894  TIP3      13678           0.0000000000
     63285     13870  TIP3      H1             19.9544684067      -36.4147225137      -43.2722652553  TIP3      13678           0.0000000000
     63286     13870  TIP3      H2             19.7232314887      -34.9260162971      -43.1336688745  TIP3      13678           0.0000000000
     63287     13871  TIP3      OH2            17.3434101085      -33.7666202515      -56.1481732932  TIP3      13679           0.0000000000
     63288     13871  TIP3      H1             17.5470253015      -34.2412766853      -55.3120272419  TIP3      13679           0.0000000000
     63289     13871  TIP3      H2             16.7669142392      -34.4164497437      -56.6180750331  TIP3      13679           0.0000000000
     63290     13872  TIP3      OH2             2.8238207736      -32.9719243972      -51.6738006519  TIP3      13680           0.0000000000
     63291     13872  TIP3      H1              3.2536848008      -33.7567029590      -51.2739446535  TIP3      13680           0.0000000000
     63292     13872  TIP3      H2              3.3377857538      -32.2780241853      -51.2305230541  TIP3      13680           0.0000000000
     63293     13873  TIP3      OH2             1.1138202589      -29.9906632296      -50.5583177290  TIP3      13681           0.0000000000
     63294     13873  TIP3      H1              1.6802430971      -30.2429472546      -51.3177259202  TIP3      13681           0.0000000000
     63295     13873  TIP3      H2              1.5842511390      -29.1877634529      -50.2911074101  TIP3      13681           0.0000000000
     63296     13874  TIP3      OH2            19.1836465623      -33.7032261189      -44.2986728296  TIP3      13682           0.0000000000
     63297     13874  TIP3      H1             18.2568992251      -33.3956627951      -44.3488480246  TIP3      13682           0.0000000000
     63298     13874  TIP3      H2             19.2214613478      -34.2249684126      -45.1146910281  TIP3      13682           0.0000000000
     63299     13875  TIP3      OH2            19.1941339668      -33.7584696170      -59.5917550112  TIP3      13683           0.0000000000
     63300     13875  TIP3      H1             19.5717912018      -34.4855611718      -60.1403090962  TIP3      13683           0.0000000000
     63301     13875  TIP3      H2             19.9061572551      -33.1103031642      -59.5647659596  TIP3      13683           0.0000000000
     63302     13876  TIP3      OH2             1.4921994527      -33.7768680066      -56.4355845461  TIP3      13684           0.0000000000
     63303     13876  TIP3      H1              0.5713793713      -33.5559732192      -56.6349579182  TIP3      13684           0.0000000000
     63304     13876  TIP3      H2              1.9080215328      -33.2903355031      -57.1839222953  TIP3      13684           0.0000000000
     63305     13877  TIP3      OH2            16.2200175476      -18.7803949556      -54.5336915467  TIP3      13685           0.0000000000
     63306     13877  TIP3      H1             16.9038173826      -19.0839724889      -55.1569375477  TIP3      13685           0.0000000000
     63307     13877  TIP3      H2             16.7364120652      -18.2837023505      -53.8825175832  TIP3      13685           0.0000000000
     63308     13878  TIP3      OH2             1.4401474461      -35.0122352240      -48.2018227292  TIP3      13686           0.0000000000
     63309     13878  TIP3      H1              0.7786472539      -35.2387147424      -47.5253425720  TIP3      13686           0.0000000000
     63310     13878  TIP3      H2              0.9503924184      -34.3904092818      -48.7679411077  TIP3      13686           0.0000000000
     63311     13879  TIP3      OH2             3.6727929500      -21.8884461362      -44.0290310654  TIP3      13687           0.0000000000
     63312     13879  TIP3      H1              2.8355204921      -21.6612486392      -44.4676318810  TIP3      13687           0.0000000000
     63313     13879  TIP3      H2              3.4030500886      -21.9562092996      -43.1096994132  TIP3      13687           0.0000000000
     63314     13880  TIP3      OH2             6.5713824563      -20.8719077491      -47.7489128170  TIP3      13688           0.0000000000
     63315     13880  TIP3      H1              6.2425672147      -20.0047644541      -48.0229548927  TIP3      13688           0.0000000000
     63316     13880  TIP3      H2              7.4978656632      -20.7891778302      -48.0551824637  TIP3      13688           0.0000000000
     63317     13881  TIP3      OH2            10.8914865342      -19.4503164203      -44.8479325874  TIP3      13689           0.0000000000
     63318     13881  TIP3      H1             11.0297630313      -19.8040202069      -43.9388057598  TIP3      13689           0.0000000000
     63319     13881  TIP3      H2             11.7943621649      -19.1475640866      -45.0892361167  TIP3      13689           0.0000000000
     63320     13882  TIP3      OH2            13.1788635443      -18.1834473966      -45.5336364366  TIP3      13690           0.0000000000
     63321     13882  TIP3      H1             13.9107572125      -18.7677675412      -45.7736375445  TIP3      13690           0.0000000000
     63322     13882  TIP3      H2             13.5550972803      -17.7431862669      -44.7418932798  TIP3      13690           0.0000000000
     63323     13883  TIP3      OH2            18.1994578351      -35.5522503524      -46.5203400178  TIP3      13691           0.0000000000
     63324     13883  TIP3      H1             17.3582131493      -35.2405847040      -46.8938643914  TIP3      13691           0.0000000000
     63325     13883  TIP3      H2             18.3534177775      -36.4025826200      -46.9847663937  TIP3      13691           0.0000000000
     63326     13884  TIP3      OH2             3.9947217895      -17.6389353123      -47.7580817996  TIP3      13692           0.0000000000
     63327     13884  TIP3      H1              3.2648474510      -17.1385473842      -48.1534361590  TIP3      13692           0.0000000000
     63328     13884  TIP3      H2              3.6853721702      -17.8283827986      -46.8607203393  TIP3      13692           0.0000000000
     63329     13885  TIP3      OH2             6.4636618115      -18.0614956401      -48.6827316918  TIP3      13693           0.0000000000
     63330     13885  TIP3      H1              5.5715755520      -17.9096244795      -48.2898069268  TIP3      13693           0.0000000000
     63331     13885  TIP3      H2              6.4098383042      -17.4707068064      -49.4569901118  TIP3      13693           0.0000000000
     63332     13886  TIP3      OH2            11.1725154398      -18.1463121932      -49.5165689173  TIP3      13694           0.0000000000
     63333     13886  TIP3      H1             10.7078745029      -17.5898047376      -50.1603931270  TIP3      13694           0.0000000000
     63334     13886  TIP3      H2             11.3019507378      -17.5155191968      -48.7765566873  TIP3      13694           0.0000000000
     63335     13887  TIP3      OH2            13.4572207093      -19.3401613572      -48.4807917040  TIP3      13695           0.0000000000
     63336     13887  TIP3      H1             12.6050722997      -19.0616228484      -48.8538791728  TIP3      13695           0.0000000000
     63337     13887  TIP3      H2             13.9447873877      -18.5034558906      -48.5755709335  TIP3      13695           0.0000000000
     63338     13888  TIP3      OH2            16.0393540808      -17.7709799038      -48.2645633836  TIP3      13696           0.0000000000
     63339     13888  TIP3      H1             15.9885626693      -16.8097069105      -48.4913909759  TIP3      13696           0.0000000000
     63340     13888  TIP3      H2             16.2582766095      -18.1432867470      -49.1414322372  TIP3      13696           0.0000000000
     63341     13889  TIP3      OH2             3.4568572327      -18.9884842355      -50.8133146388  TIP3      13697           0.0000000000
     63342     13889  TIP3      H1              3.3739056348      -19.4474212028      -49.9507923547  TIP3      13697           0.0000000000
     63343     13889  TIP3      H2              4.2709367435      -19.3687553364      -51.2011945508  TIP3      13697           0.0000000000
     63344     13890  TIP3      OH2             5.5314374946      -20.2773332029      -52.1598334884  TIP3      13698           0.0000000000
     63345     13890  TIP3      H1              5.3669945284      -21.2107783328      -51.9262037073  TIP3      13698           0.0000000000
     63346     13890  TIP3      H2              6.3872234960      -20.1223325247      -51.7072302971  TIP3      13698           0.0000000000
     63347     13891  TIP3      OH2             8.1392252752      -19.7998808082      -51.2883903047  TIP3      13699           0.0000000000
     63348     13891  TIP3      H1              8.2907933551      -20.7247545150      -51.5450750627  TIP3      13699           0.0000000000
     63349     13891  TIP3      H2              8.1798578175      -19.8497718931      -50.3211541306  TIP3      13699           0.0000000000
     63350     13892  TIP3      OH2            11.4628299823      -34.0802264099      -52.1436907058  TIP3      13700           0.0000000000
     63351     13892  TIP3      H1             10.8762270357      -34.8054292765      -51.8759994063  TIP3      13700           0.0000000000
     63352     13892  TIP3      H2             12.1448852778      -34.5648819893      -52.6485624127  TIP3      13700           0.0000000000
     63353     13893  TIP3      OH2            16.7299853114      -36.0671838515      -52.0482630832  TIP3      13701           0.0000000000
     63354     13893  TIP3      H1             17.3506172703      -35.5150537502      -52.5711577445  TIP3      13701           0.0000000000
     63355     13893  TIP3      H2             15.8645487649      -35.7254345436      -52.2905150497  TIP3      13701           0.0000000000
     63356     13894  TIP3      OH2            18.4201157802      -34.8141076584      -53.8007432765  TIP3      13702           0.0000000000
     63357     13894  TIP3      H1             19.0504390693      -35.4095397824      -54.2182626835  TIP3      13702           0.0000000000
     63358     13894  TIP3      H2             18.9241225548      -33.9790631581      -53.7175041630  TIP3      13702           0.0000000000
     63359     13895  TIP3      OH2             4.0793932898      -35.4415064904      -54.7340351718  TIP3      13703           0.0000000000
     63360     13895  TIP3      H1              3.2204362794      -35.7089793037      -55.0971870335  TIP3      13703           0.0000000000
     63361     13895  TIP3      H2              4.5259891732      -36.2909864186      -54.5362552962  TIP3      13703           0.0000000000
     63362     13896  TIP3      OH2             2.7636158537      -35.7505860512      -58.5285374193  TIP3      13704           0.0000000000
     63363     13896  TIP3      H1              3.1765774985      -35.1062916406      -59.1254524415  TIP3      13704           0.0000000000
     63364     13896  TIP3      H2              2.1104944136      -35.1879733807      -58.1000550480  TIP3      13704           0.0000000000
     63365     13897  TIP3      OH2             8.4661691120      -35.6514857870      -54.5130035958  TIP3      13705           0.0000000000
     63366     13897  TIP3      H1              9.3252040700      -35.1997030732      -54.5724928572  TIP3      13705           0.0000000000
     63367     13897  TIP3      H2              8.4162465678      -35.8181228185      -53.5706024537  TIP3      13705           0.0000000000
     63368     13898  TIP3      OH2            13.8739443487      -35.2023764893      -52.7233969156  TIP3      13706           0.0000000000
     63369     13898  TIP3      H1             14.0208762798      -35.2458121645      -53.6740281932  TIP3      13706           0.0000000000
     63370     13898  TIP3      H2             13.7909813707      -36.1794124533      -52.5930401597  TIP3      13706           0.0000000000
     63371     13899  TIP3      OH2            15.4195778417      -35.4991493248      -57.1682272237  TIP3      13707           0.0000000000
     63372     13899  TIP3      H1             14.6641153863      -34.9359477984      -57.3912897799  TIP3      13707           0.0000000000
     63373     13899  TIP3      H2             15.0141430847      -36.3626813104      -57.0182895192  TIP3      13707           0.0000000000
     63374     13900  TIP3      OH2             2.6408021448      -19.8160856582      -57.5452073584  TIP3      13708           0.0000000000
     63375     13900  TIP3      H1              1.9830515644      -19.8300113677      -58.2648847417  TIP3      13708           0.0000000000
     63376     13900  TIP3      H2              2.6381207666      -18.8609832566      -57.3739360577  TIP3      13708           0.0000000000
     63377     13901  TIP3      OH2             4.5244599638      -33.8931777550      -60.0685980155  TIP3      13709           0.0000000000
     63378     13901  TIP3      H1              5.1174790976      -34.4403756702      -60.6067866681  TIP3      13709           0.0000000000
     63379     13901  TIP3      H2              5.1546967086      -33.4900403675      -59.4337633462  TIP3      13709           0.0000000000
     63380     13902  TIP3      OH2             9.5066253786      -33.5766979404      -57.6134972506  TIP3      13710           0.0000000000
     63381     13902  TIP3      H1              9.8634838862      -34.1457649195      -56.9062405356  TIP3      13710           0.0000000000
     63382     13902  TIP3      H2              9.6557112226      -32.7063058116      -57.1821504580  TIP3      13710           0.0000000000
     63383     13903  TIP3      OH2            11.5156812904      -18.5071306324      -59.2109091034  TIP3      13711           0.0000000000
     63384     13903  TIP3      H1             12.4324288095      -18.2774743814      -59.4341166022  TIP3      13711           0.0000000000
     63385     13903  TIP3      H2             11.2947280231      -19.0235995440      -60.0142970836  TIP3      13711           0.0000000000
     63386     13904  TIP3      OH2            18.2074150733      -19.0022584651      -56.4910112225  TIP3      13712           0.0000000000
     63387     13904  TIP3      H1             18.0204534798      -19.7851754300      -57.0638160965  TIP3      13712           0.0000000000
     63388     13904  TIP3      H2             18.1431855108      -18.2682795400      -57.1359244568  TIP3      13712           0.0000000000
     63389     13905  TIP3      OH2             3.7761050871      -35.0098797917      -44.9794855619  TIP3      13713           0.0000000000
     63390     13905  TIP3      H1              3.3852324506      -35.7222474575      -44.4544893715  TIP3      13713           0.0000000000
     63391     13905  TIP3      H2              4.6383268196      -34.9952597099      -44.5094661215  TIP3      13713           0.0000000000
     63392     13906  TIP3      OH2             5.6081887552      -35.3609663892      -43.3276011136  TIP3      13714           0.0000000000
     63393     13906  TIP3      H1              6.5482648599      -35.6099892718      -43.3784395531  TIP3      13714           0.0000000000
     63394     13906  TIP3      H2              5.3961363998      -36.2058087533      -42.8745917199  TIP3      13714           0.0000000000
     63395     13907  TIP3      OH2             4.4350868722      -18.8281489115      -60.6052094603  TIP3      13715           0.0000000000
     63396     13907  TIP3      H1              4.1755064816      -18.5699755432      -59.7088612786  TIP3      13715           0.0000000000
     63397     13907  TIP3      H2              5.2184474886      -19.3925656354      -60.4500216084  TIP3      13715           0.0000000000
     63398     13908  TIP3      OH2            14.1558423032       37.0671640968      -43.1371388560  TIP3      13716           0.0000000000
     63399     13908  TIP3      H1             14.2166380038       36.5097983117      -42.3331287724  TIP3      13716           0.0000000000
     63400     13908  TIP3      H2             15.0490173210       36.8553914836      -43.4500124257  TIP3      13716           0.0000000000
     63401     13909  TIP3      OH2            17.4576374557      -20.2544953205      -44.4205996800  TIP3      13717           0.0000000000
     63402     13909  TIP3      H1             16.6535843244      -20.3914250593      -44.9674733912  TIP3      13717           0.0000000000
     63403     13909  TIP3      H2             17.3405184942      -19.3079064550      -44.2037868062  TIP3      13717           0.0000000000
     63404     13910  TIP3      OH2            31.9003820004      -26.3926402616      -54.4395990730  TIP3      13718           0.0000000000
     63405     13910  TIP3      H1             31.9046067897      -25.4084781865      -54.4655236212  TIP3      13718           0.0000000000
     63406     13910  TIP3      H2             31.1727504432      -26.6141138938      -55.0419737654  TIP3      13718           0.0000000000
     63407     13911  TIP3      OH2            30.7605051327      -27.1237274778      -50.9403917585  TIP3      13719           0.0000000000
     63408     13911  TIP3      H1             30.7408051794      -27.7706989815      -50.2205887879  TIP3      13719           0.0000000000
     63409     13911  TIP3      H2             30.4280653472      -27.6362928489      -51.6985771261  TIP3      13719           0.0000000000
     63410     13912  TIP3      OH2            23.1090371476      -27.4447839850      -49.3869425262  TIP3      13720           0.0000000000
     63411     13912  TIP3      H1             23.1935924006      -28.1337280188      -48.6944921199  TIP3      13720           0.0000000000
     63412     13912  TIP3      H2             23.8594009652      -26.8753985478      -49.1634460225  TIP3      13720           0.0000000000
     63413     13913  TIP3      OH2            34.4644287207      -24.1970810107      -52.6424443474  TIP3      13721           0.0000000000
     63414     13913  TIP3      H1             34.0388833312      -24.9060489786      -52.1523634091  TIP3      13721           0.0000000000
     63415     13913  TIP3      H2             34.4675402525      -23.4766478728      -51.9910121669  TIP3      13721           0.0000000000
     63416     13914  TIP3      OH2            24.0353762650      -22.9980054602      -50.8867538145  TIP3      13722           0.0000000000
     63417     13914  TIP3      H1             23.7253073181      -23.8677498341      -51.2042552263  TIP3      13722           0.0000000000
     63418     13914  TIP3      H2             24.9910844338      -23.1804997355      -50.8408336059  TIP3      13722           0.0000000000
     63419     13915  TIP3      OH2            20.6742879824      -29.4439872453      -55.3922477882  TIP3      13723           0.0000000000
     63420     13915  TIP3      H1             20.2362920605      -28.5772531098      -55.4590469013  TIP3      13723           0.0000000000
     63421     13915  TIP3      H2             20.1155981701      -29.9847581851      -55.9649507037  TIP3      13723           0.0000000000
     63422     13916  TIP3      OH2            21.3886466170      -27.2002346548      -53.2486550701  TIP3      13724           0.0000000000
     63423     13916  TIP3      H1             21.6575096635      -28.0276955380      -52.8009927789  TIP3      13724           0.0000000000
     63424     13916  TIP3      H2             22.0817838696      -27.1062540726      -53.9181915009  TIP3      13724           0.0000000000
     63425     13917  TIP3      OH2            31.5607940292      -19.0291726324      -52.4162563721  TIP3      13725           0.0000000000
     63426     13917  TIP3      H1             32.2171436199      -19.7077858731      -52.7089519177  TIP3      13725           0.0000000000
     63427     13917  TIP3      H2             31.3381257088      -19.3659017262      -51.5464590710  TIP3      13725           0.0000000000
     63428     13918  TIP3      OH2            29.1391686597      -24.7252226885      -50.4623027355  TIP3      13726           0.0000000000
     63429     13918  TIP3      H1             29.4712088652      -25.3513379180      -51.1259442720  TIP3      13726           0.0000000000
     63430     13918  TIP3      H2             29.9518891215      -24.5665581193      -49.9506296025  TIP3      13726           0.0000000000
     63431     13919  TIP3      OH2            32.3146259649      -30.2446977990      -50.1466507563  TIP3      13727           0.0000000000
     63432     13919  TIP3      H1             32.4659739557      -31.2130808396      -50.1614203240  TIP3      13727           0.0000000000
     63433     13919  TIP3      H2             32.2085704427      -30.0970993668      -51.1070472242  TIP3      13727           0.0000000000
     63434     13920  TIP3      OH2            25.4246050092      -32.1523213541      -52.9371031017  TIP3      13728           0.0000000000
     63435     13920  TIP3      H1             25.5242816613      -31.3209873021      -53.4395967727  TIP3      13728           0.0000000000
     63436     13920  TIP3      H2             25.0104941496      -32.7231285206      -53.6147112830  TIP3      13728           0.0000000000
     63437     13921  TIP3      OH2            33.1667657323      -32.0515171171      -54.5447801687  TIP3      13729           0.0000000000
     63438     13921  TIP3      H1             33.8164762426      -32.3875109393      -53.8807832689  TIP3      13729           0.0000000000
     63439     13921  TIP3      H2             33.7528765845      -31.5308376176      -55.1009299902  TIP3      13729           0.0000000000
     63440     13922  TIP3      OH2            22.0335683488      -29.7513497756      -52.2016337704  TIP3      13730           0.0000000000
     63441     13922  TIP3      H1             22.7049511389      -30.2962366504      -51.7485114573  TIP3      13730           0.0000000000
     63442     13922  TIP3      H2             22.1420445745      -30.0694781331      -53.1135485856  TIP3      13730           0.0000000000
     63443     13923  TIP3      OH2            27.1938742423      -28.1985607677      -52.8824064742  TIP3      13731           0.0000000000
     63444     13923  TIP3      H1             27.8678877943      -28.7799243895      -52.4899535651  TIP3      13731           0.0000000000
     63445     13923  TIP3      H2             26.6774600108      -28.8565162134      -53.3888133624  TIP3      13731           0.0000000000
     63446     13924  TIP3      OH2            24.3360284817      -33.2110616719      -48.9095841055  TIP3      13732           0.0000000000
     63447     13924  TIP3      H1             24.0097696407      -32.6772034589      -49.6627607982  TIP3      13732           0.0000000000
     63448     13924  TIP3      H2             23.6296276444      -33.0363194998      -48.2380409464  TIP3      13732           0.0000000000
     63449     13925  TIP3      OH2            31.5939060488      -23.8009173071      -55.3593683716  TIP3      13733           0.0000000000
     63450     13925  TIP3      H1             31.3412632964      -24.0640729144      -56.2502303209  TIP3      13733           0.0000000000
     63451     13925  TIP3      H2             31.2990892340      -22.8637711637      -55.2994398578  TIP3      13733           0.0000000000
     63452     13926  TIP3      OH2            26.8358433426      -25.6238163573      -48.6602590535  TIP3      13734           0.0000000000
     63453     13926  TIP3      H1             26.1321988887      -24.9792734451      -48.4404145105  TIP3      13734           0.0000000000
     63454     13926  TIP3      H2             27.5421825291      -25.0245749980      -48.9498865641  TIP3      13734           0.0000000000
     63455     13927  TIP3      OH2            34.6666154486      -32.8187817756      -52.4745409352  TIP3      13735           0.0000000000
     63456     13927  TIP3      H1             34.6755698891      -33.5969761839      -51.9148645950  TIP3      13735           0.0000000000
     63457     13927  TIP3      H2             35.4151900980      -32.3227978348      -52.0715834538  TIP3      13735           0.0000000000
     63458     13928  TIP3      OH2            23.8816766283      -31.3610086619      -50.8871023893  TIP3      13736           0.0000000000
     63459     13928  TIP3      H1             24.5342930668      -30.7151705987      -50.5459125408  TIP3      13736           0.0000000000
     63460     13928  TIP3      H2             24.4020107966      -31.8074921709      -51.6017538000  TIP3      13736           0.0000000000
     63461     13929  TIP3      OH2            25.2838800332      -23.6165647838      -47.8399639421  TIP3      13737           0.0000000000
     63462     13929  TIP3      H1             25.2346778302      -22.7036953185      -48.1769025065  TIP3      13737           0.0000000000
     63463     13929  TIP3      H2             24.4017855413      -23.6977542555      -47.3962331846  TIP3      13737           0.0000000000
     63464     13930  TIP3      OH2            21.3605561691      -24.0100675022      -57.0474714346  TIP3      13738           0.0000000000
     63465     13930  TIP3      H1             21.1145891468      -23.6686577817      -57.9245914680  TIP3      13738           0.0000000000
     63466     13930  TIP3      H2             21.4434187306      -23.1826861338      -56.5318971751  TIP3      13738           0.0000000000
     63467     13931  TIP3      OH2            34.7726387331      -22.4107757197      -50.1929986953  TIP3      13739           0.0000000000
     63468     13931  TIP3      H1             33.8150329305      -22.1963206487      -50.1514916766  TIP3      13739           0.0000000000
     63469     13931  TIP3      H2             35.1568757569      -21.5663732504      -50.4962883508  TIP3      13739           0.0000000000
     63470     13932  TIP3      OH2            35.0765901730      -33.8992005262      -49.1586455741  TIP3      13740           0.0000000000
     63471     13932  TIP3      H1             34.3958831868      -33.2217403686      -49.0629404397  TIP3      13740           0.0000000000
     63472     13932  TIP3      H2             35.8637930415      -33.4347405543      -49.4611082410  TIP3      13740           0.0000000000
     63473     13933  TIP3      OH2            28.2337577576      -35.9258675640      -51.6056395652  TIP3      13741           0.0000000000
     63474     13933  TIP3      H1             28.2234080840      -36.8818784619      -51.4428179905  TIP3      13741           0.0000000000
     63475     13933  TIP3      H2             27.4480791791      -35.6575822683      -51.1053119915  TIP3      13741           0.0000000000
     63476     13934  TIP3      OH2            33.1496670664      -20.6318920596      -53.6755933445  TIP3      13742           0.0000000000
     63477     13934  TIP3      H1             33.6395313206      -21.3082053835      -54.1862812264  TIP3      13742           0.0000000000
     63478     13934  TIP3      H2             33.5900135564      -19.8209659128      -54.0342321899  TIP3      13742           0.0000000000
     63479     13935  TIP3      OH2            34.4296923360      -22.6355858256      -55.1794008803  TIP3      13743           0.0000000000
     63480     13935  TIP3      H1             34.1831899930      -23.3492555585      -55.7884371023  TIP3      13743           0.0000000000
     63481     13935  TIP3      H2             34.4964697436      -23.1369203850      -54.3421313697  TIP3      13743           0.0000000000
     63482     13936  TIP3      OH2            35.8027211481      -23.8931653336      -46.5671377329  TIP3      13744           0.0000000000
     63483     13936  TIP3      H1             36.0792471724      -24.5903678074      -47.1913016860  TIP3      13744           0.0000000000
     63484     13936  TIP3      H2             36.2100583930      -23.1336050865      -47.0222048312  TIP3      13744           0.0000000000
     63485     13937  TIP3      OH2            30.5498318758      -27.1542428622      -56.9335606708  TIP3      13745           0.0000000000
     63486     13937  TIP3      H1             29.8620278613      -26.5637760920      -57.2891447386  TIP3      13745           0.0000000000
     63487     13937  TIP3      H2             31.2667211294      -27.0441964126      -57.5846359223  TIP3      13745           0.0000000000
     63488     13938  TIP3      OH2            30.6372400992      -28.5702327214      -59.9139897956  TIP3      13746           0.0000000000
     63489     13938  TIP3      H1             31.3564625898      -28.5872662663      -59.2626091033  TIP3      13746           0.0000000000
     63490     13938  TIP3      H2             30.9409427551      -29.2888520163      -60.4853175610  TIP3      13746           0.0000000000
     63491     13939  TIP3      OH2            33.9706604262      -26.9298288164      -56.0392666001  TIP3      13747           0.0000000000
     63492     13939  TIP3      H1             33.2510500568      -26.6726379209      -55.4164792070  TIP3      13747           0.0000000000
     63493     13939  TIP3      H2             34.4550536972      -27.5649623670      -55.4677257206  TIP3      13747           0.0000000000
     63494     13940  TIP3      OH2            33.9513614447      -28.7526606253      -46.9073155780  TIP3      13748           0.0000000000
     63495     13940  TIP3      H1             33.9039155886      -27.9542433108      -46.3566071809  TIP3      13748           0.0000000000
     63496     13940  TIP3      H2             33.3106346909      -28.4833346897      -47.5914675814  TIP3      13748           0.0000000000
     63497     13941  TIP3      OH2            25.6177985481      -26.2670843075      -54.0861375331  TIP3      13749           0.0000000000
     63498     13941  TIP3      H1             25.2974897019      -26.6610161356      -54.9341384975  TIP3      13749           0.0000000000
     63499     13941  TIP3      H2             26.2314281801      -26.9613055742      -53.7516731141  TIP3      13749           0.0000000000
     63500     13942  TIP3      OH2            26.9356423944      -22.8896219692      -51.4053020229  TIP3      13750           0.0000000000
     63501     13942  TIP3      H1             26.9323208064      -23.4111930583      -52.2169760960  TIP3      13750           0.0000000000
     63502     13942  TIP3      H2             27.7198555367      -23.2435722273      -50.9472538629  TIP3      13750           0.0000000000
     63503     13943  TIP3      OH2            25.9450325547      -27.5242112739      -50.4227005987  TIP3      13751           0.0000000000
     63504     13943  TIP3      H1             26.4953784904      -27.4263588481      -51.2245371615  TIP3      13751           0.0000000000
     63505     13943  TIP3      H2             26.3348892395      -26.8565626900      -49.8151350818  TIP3      13751           0.0000000000
     63506     13944  TIP3      OH2            32.2862072298      -21.9350012733      -49.7325228667  TIP3      13752           0.0000000000
     63507     13944  TIP3      H1             32.0899546595      -21.3123683607      -49.0294073807  TIP3      13752           0.0000000000
     63508     13944  TIP3      H2             32.1078963286      -22.8047022027      -49.3002042568  TIP3      13752           0.0000000000
     63509     13945  TIP3      OH2            26.9002455498      -23.0934236129      -45.7282874902  TIP3      13753           0.0000000000
     63510     13945  TIP3      H1             26.4857255671      -22.3545349732      -45.2378175094  TIP3      13753           0.0000000000
     63511     13945  TIP3      H2             26.2278977759      -23.2933351984      -46.4254053737  TIP3      13753           0.0000000000
     63512     13946  TIP3      OH2            32.8728716205      -27.7499153147      -58.3285613573  TIP3      13754           0.0000000000
     63513     13946  TIP3      H1             33.4268965966      -27.5310514306      -57.5379214782  TIP3      13754           0.0000000000
     63514     13946  TIP3      H2             33.2747341302      -27.2212087304      -59.0473226282  TIP3      13754           0.0000000000
     63515     13947  TIP3      OH2            23.8418002500      -26.9350855944      -46.5752325503  TIP3      13755           0.0000000000
     63516     13947  TIP3      H1             23.8946244006      -26.2659930666      -45.8669239689  TIP3      13755           0.0000000000
     63517     13947  TIP3      H2             22.8988023053      -26.8487227005      -46.7857168522  TIP3      13755           0.0000000000
     63518     13948  TIP3      OH2            30.5872047868      -21.0058486619      -54.8743662329  TIP3      13756           0.0000000000
     63519     13948  TIP3      H1             31.0181504027      -20.7086365375      -54.0618735663  TIP3      13756           0.0000000000
     63520     13948  TIP3      H2             30.0301307393      -20.2553474120      -55.1079126817  TIP3      13756           0.0000000000
     63521     13949  TIP3      OH2            25.1464586331      -21.0583555374      -44.9815468159  TIP3      13757           0.0000000000
     63522     13949  TIP3      H1             25.0861410261      -21.1586041909      -45.9470639106  TIP3      13757           0.0000000000
     63523     13949  TIP3      H2             24.2172465114      -21.1942278536      -44.7138755557  TIP3      13757           0.0000000000
     63524     13950  TIP3      OH2            24.5763166092      -27.2531010400      -56.4543393102  TIP3      13758           0.0000000000
     63525     13950  TIP3      H1             24.3003500259      -26.4683775543      -56.9742133659  TIP3      13758           0.0000000000
     63526     13950  TIP3      H2             23.9317830001      -27.9176790258      -56.7032083360  TIP3      13758           0.0000000000
     63527     13951  TIP3      OH2            20.6792646057      -24.8133455609      -47.5686624511  TIP3      13759           0.0000000000
     63528     13951  TIP3      H1             20.2338642474      -24.8981747835      -48.4328676315  TIP3      13759           0.0000000000
     63529     13951  TIP3      H2             20.7593599462      -25.7626841955      -47.3544459415  TIP3      13759           0.0000000000
     63530     13952  TIP3      OH2            20.4367974509      -22.0834933740      -50.7959008640  TIP3      13760           0.0000000000
     63531     13952  TIP3      H1             21.3950981932      -22.1994833220      -50.8158144487  TIP3      13760           0.0000000000
     63532     13952  TIP3      H2             20.3548947851      -21.2652982441      -50.2912745836  TIP3      13760           0.0000000000
     63533     13953  TIP3      OH2            29.6337426770      -21.8400098708      -46.2442132217  TIP3      13761           0.0000000000
     63534     13953  TIP3      H1             29.6919742788      -20.9974623110      -45.7357589571  TIP3      13761           0.0000000000
     63535     13953  TIP3      H2             28.7612776466      -22.1998211675      -45.9930075234  TIP3      13761           0.0000000000
     63536     13954  TIP3      OH2            30.0790342946      -18.1023176658      -56.4476432686  TIP3      13762           0.0000000000
     63537     13954  TIP3      H1             29.9969012758      -18.1642169371      -57.4159412715  TIP3      13762           0.0000000000
     63538     13954  TIP3      H2             30.1153859333      -17.1350607379      -56.2948984767  TIP3      13762           0.0000000000
     63539     13955  TIP3      OH2            23.7126127177      -19.2178377249      -54.6294874411  TIP3      13763           0.0000000000
     63540     13955  TIP3      H1             23.8591721642      -19.6327997110      -53.7525003895  TIP3      13763           0.0000000000
     63541     13955  TIP3      H2             22.8650618067      -19.6282513481      -54.8692189428  TIP3      13763           0.0000000000
     63542     13956  TIP3      OH2            33.1209759489      -18.8954709297      -59.5024376905  TIP3      13764           0.0000000000
     63543     13956  TIP3      H1             33.5826683159      -19.6572668368      -59.9212652668  TIP3      13764           0.0000000000
     63544     13956  TIP3      H2             33.1798387304      -19.1214942409      -58.5492445233  TIP3      13764           0.0000000000
     63545     13957  TIP3      OH2            32.8008254989      -19.0132837753      -56.7028362369  TIP3      13765           0.0000000000
     63546     13957  TIP3      H1             31.8527708350      -18.8579872069      -56.5012436642  TIP3      13765           0.0000000000
     63547     13957  TIP3      H2             33.0378583011      -19.7095544070      -56.0808638225  TIP3      13765           0.0000000000
     63548     13958  TIP3      OH2            35.3231975298      -29.7333705254      -44.6061953655  TIP3      13766           0.0000000000
     63549     13958  TIP3      H1             35.2879536572      -29.3871349173      -45.5007199431  TIP3      13766           0.0000000000
     63550     13958  TIP3      H2             35.8643348264      -30.5566409386      -44.7576323322  TIP3      13766           0.0000000000
     63551     13959  TIP3      OH2            22.9648614180      -23.5037336231      -46.6301867104  TIP3      13767           0.0000000000
     63552     13959  TIP3      H1             23.1853480029      -23.8686812012      -45.7484168202  TIP3      13767           0.0000000000
     63553     13959  TIP3      H2             22.0947865949      -23.9007924829      -46.8439283842  TIP3      13767           0.0000000000
     63554     13960  TIP3      OH2            25.6189485961      -35.0651188930      -50.6502284036  TIP3      13768           0.0000000000
     63555     13960  TIP3      H1             24.7286216322      -35.1253682784      -51.0487547422  TIP3      13768           0.0000000000
     63556     13960  TIP3      H2             25.5106851722      -34.2085238262      -50.2067266924  TIP3      13768           0.0000000000
     63557     13961  TIP3      OH2            30.2640694402      -35.3367871432      -47.2663453136  TIP3      13769           0.0000000000
     63558     13961  TIP3      H1             30.6929493546      -35.7541595280      -46.5194413369  TIP3      13769           0.0000000000
     63559     13961  TIP3      H2             29.3109942556      -35.4479393109      -47.1076113563  TIP3      13769           0.0000000000
     63560     13962  TIP3      OH2            33.5029278115      -31.5989043925      -46.4719519751  TIP3      13770           0.0000000000
     63561     13962  TIP3      H1             33.0001582014      -31.7084586105      -45.6341175584  TIP3      13770           0.0000000000
     63562     13962  TIP3      H2             33.4403195389      -30.6422484491      -46.6278110041  TIP3      13770           0.0000000000
     63563     13963  TIP3      OH2            34.3768794101      -26.7916965664      -60.5197334228  TIP3      13771           0.0000000000
     63564     13963  TIP3      H1             34.3042729981      -26.9458327192      -61.4892795441  TIP3      13771           0.0000000000
     63565     13963  TIP3      H2             35.1466553529      -26.2231030243      -60.4924852241  TIP3      13771           0.0000000000
     63566     13964  TIP3      OH2            29.9332945154      -32.7821372785      -59.9955436123  TIP3      13772           0.0000000000
     63567     13964  TIP3      H1             29.6030218071      -32.8596861343      -59.0893300083  TIP3      13772           0.0000000000
     63568     13964  TIP3      H2             29.6237245982      -33.6528076191      -60.3226538132  TIP3      13772           0.0000000000
     63569     13965  TIP3      OH2            25.7499826604      -30.0496142393      -49.4175011060  TIP3      13773           0.0000000000
     63570     13965  TIP3      H1             25.0055535026      -30.0642030618      -48.7907047198  TIP3      13773           0.0000000000
     63571     13965  TIP3      H2             25.6975730844      -29.1451835779      -49.8008926273  TIP3      13773           0.0000000000
     63572     13966  TIP3      OH2            25.7072640643      -29.9388146075      -54.5663739072  TIP3      13774           0.0000000000
     63573     13966  TIP3      H1             24.7661321777      -30.1800338527      -54.6973319234  TIP3      13774           0.0000000000
     63574     13966  TIP3      H2             26.0832517887      -30.2312172464      -55.4208759975  TIP3      13774           0.0000000000
     63575     13967  TIP3      OH2            31.2476405025      -29.4195470750      -55.7869540573  TIP3      13775           0.0000000000
     63576     13967  TIP3      H1             30.8340465960      -28.6090863276      -56.1637011433  TIP3      13775           0.0000000000
     63577     13967  TIP3      H2             31.9269712631      -29.5963782058      -56.4548224243  TIP3      13775           0.0000000000
     63578     13968  TIP3      OH2            30.2958389609      -29.2201780678      -44.3531218074  TIP3      13776           0.0000000000
     63579     13968  TIP3      H1             29.7731989451      -30.0001843891      -44.0503153029  TIP3      13776           0.0000000000
     63580     13968  TIP3      H2             31.1367198363      -29.3473633011      -43.8804286006  TIP3      13776           0.0000000000
     63581     13969  TIP3      OH2            32.2322458501      -29.9239544818      -52.9291988985  TIP3      13777           0.0000000000
     63582     13969  TIP3      H1             31.9950299428      -29.3830264580      -53.6999566745  TIP3      13777           0.0000000000
     63583     13969  TIP3      H2             32.3537327362      -30.7822580380      -53.3828726476  TIP3      13777           0.0000000000
     63584     13970  TIP3      OH2            23.3641144537      -29.8019331422      -47.7503455641  TIP3      13778           0.0000000000
     63585     13970  TIP3      H1             23.4506905366      -29.3969033735      -46.8700971496  TIP3      13778           0.0000000000
     63586     13970  TIP3      H2             22.9176909075      -30.6352130379      -47.5396420594  TIP3      13778           0.0000000000
     63587     13971  TIP3      OH2            26.7365048488      -32.3738580386      -60.8689698990  TIP3      13779           0.0000000000
     63588     13971  TIP3      H1             26.2699203543      -32.8297691163      -60.1414541081  TIP3      13779           0.0000000000
     63589     13971  TIP3      H2             26.0281118496      -31.9980751725      -61.4078928312  TIP3      13779           0.0000000000
     63590     13972  TIP3      OH2            20.0322197539      -32.6637355571      -53.7807363224  TIP3      13780           0.0000000000
     63591     13972  TIP3      H1             20.7096981510      -32.7008829509      -53.0717268225  TIP3      13780           0.0000000000
     63592     13972  TIP3      H2             20.4798315568      -33.0575446303      -54.5477136910  TIP3      13780           0.0000000000
     63593     13973  TIP3      OH2            21.2898039688      -31.9586642508      -58.3815870441  TIP3      13781           0.0000000000
     63594     13973  TIP3      H1             21.8037179173      -31.3736296998      -58.9726647395  TIP3      13781           0.0000000000
     63595     13973  TIP3      H2             20.5979337260      -31.3366360904      -58.0895279462  TIP3      13781           0.0000000000
     63596     13974  TIP3      OH2            31.4432032645      -28.3707302014      -48.4005885962  TIP3      13782           0.0000000000
     63597     13974  TIP3      H1             31.8388155147      -29.0639221511      -48.9730478861  TIP3      13782           0.0000000000
     63598     13974  TIP3      H2             30.9783764545      -28.8928382009      -47.7232797499  TIP3      13782           0.0000000000
     63599     13975  TIP3      OH2            28.2636948640      -32.3908202438      -53.5776805962  TIP3      13783           0.0000000000
     63600     13975  TIP3      H1             27.3346296308      -32.3897040076      -53.2604090186  TIP3      13783           0.0000000000
     63601     13975  TIP3      H2             28.7671882552      -32.5433301754      -52.7580927070  TIP3      13783           0.0000000000
     63602     13976  TIP3      OH2            23.0716201166      -30.8325358898      -54.6917004917  TIP3      13784           0.0000000000
     63603     13976  TIP3      H1             22.1861476630      -30.6834095616      -55.0832559502  TIP3      13784           0.0000000000
     63604     13976  TIP3      H2             23.3676614336      -31.6615771368      -55.1055178552  TIP3      13784           0.0000000000
     63605     13977  TIP3      OH2            26.7150916338      -30.7898921029      -57.0659868890  TIP3      13785           0.0000000000
     63606     13977  TIP3      H1             27.6705685644      -30.6831011306      -56.9036274057  TIP3      13785           0.0000000000
     63607     13977  TIP3      H2             26.4767515122      -30.0971941480      -57.7123707062  TIP3      13785           0.0000000000
     63608     13978  TIP3      OH2            32.5875655548      -33.1544235705      -50.3085701479  TIP3      13786           0.0000000000
     63609     13978  TIP3      H1             31.9113282035      -33.0905094894      -49.6123052039  TIP3      13786           0.0000000000
     63610     13978  TIP3      H2             32.1122104350      -33.4232353311      -51.1098051819  TIP3      13786           0.0000000000
     63611     13979  TIP3      OH2            25.4176196685      -29.6086918660      -59.4763829467  TIP3      13787           0.0000000000
     63612     13979  TIP3      H1             24.8866054112      -29.9901274342      -60.1958406306  TIP3      13787           0.0000000000
     63613     13979  TIP3      H2             26.2396042444      -29.4037476720      -59.9491360920  TIP3      13787           0.0000000000
     63614     13980  TIP3      OH2            35.7681665496      -17.4623870383      -43.9620596849  TIP3      13788           0.0000000000
     63615     13980  TIP3      H1             36.1093183622      -17.1328371894      -44.8076202551  TIP3      13788           0.0000000000
     63616     13980  TIP3      H2             36.5162541178      -17.2057773372      -43.3948520429  TIP3      13788           0.0000000000
     63617     13981  TIP3      OH2            23.5433617884      -25.0439554846      -44.4205806590  TIP3      13789           0.0000000000
     63618     13981  TIP3      H1             24.2626628042      -24.7932701749      -43.8178833537  TIP3      13789           0.0000000000
     63619     13981  TIP3      H2             22.7702560537      -24.9602560256      -43.8207404097  TIP3      13789           0.0000000000
     63620     13982  TIP3      OH2            29.5466845449      -29.6342624492      -51.6706181743  TIP3      13790           0.0000000000
     63621     13982  TIP3      H1             30.1507060591      -30.1739385654      -52.1970075814  TIP3      13790           0.0000000000
     63622     13982  TIP3      H2             29.3936443446      -30.1759301340      -50.8840590771  TIP3      13790           0.0000000000
     63623     13983  TIP3      OH2            24.5384800914      -33.4527327039      -55.2237431412  TIP3      13791           0.0000000000
     63624     13983  TIP3      H1             24.2259979380      -34.3729992493      -55.2064044460  TIP3      13791           0.0000000000
     63625     13983  TIP3      H2             25.3191186455      -33.5374451708      -55.7826214513  TIP3      13791           0.0000000000
     63626     13984  TIP3      OH2            28.1913065076      -31.2513149827      -49.2669706704  TIP3      13792           0.0000000000
     63627     13984  TIP3      H1             27.3478424240      -30.7665453387      -49.1560171148  TIP3      13792           0.0000000000
     63628     13984  TIP3      H2             28.7366828918      -30.9377161706      -48.5210370329  TIP3      13792           0.0000000000
     63629     13985  TIP3      OH2            28.7698773923      -25.0774884253      -57.5543138556  TIP3      13793           0.0000000000
     63630     13985  TIP3      H1             27.9700565097      -25.5439098190      -57.8896005354  TIP3      13793           0.0000000000
     63631     13985  TIP3      H2             28.5445374491      -24.9533485426      -56.6098478535  TIP3      13793           0.0000000000
     63632     13986  TIP3      OH2            35.6407272907      -25.8552063331      -48.7570703478  TIP3      13794           0.0000000000
     63633     13986  TIP3      H1             36.3664074379      -25.7260492670      -49.4066058951  TIP3      13794           0.0000000000
     63634     13986  TIP3      H2             34.8774534415      -25.8521975109      -49.3653930262  TIP3      13794           0.0000000000
     63635     13987  TIP3      OH2            32.6268370253      -32.2352317993      -59.3741965132  TIP3      13795           0.0000000000
     63636     13987  TIP3      H1             31.6683010130      -32.1274394505      -59.5327386452  TIP3      13795           0.0000000000
     63637     13987  TIP3      H2             32.9064605100      -31.3750384564      -59.0087080997  TIP3      13795           0.0000000000
     63638     13988  TIP3      OH2            30.2719181796      -24.8092688622      -46.3113298304  TIP3      13796           0.0000000000
     63639     13988  TIP3      H1             29.9100392478      -25.2350058675      -45.5281559341  TIP3      13796           0.0000000000
     63640     13988  TIP3      H2             30.0324612966      -23.8834981242      -46.2037658048  TIP3      13796           0.0000000000
     63641     13989  TIP3      OH2            33.3311969201      -30.3227190207      -57.7713720700  TIP3      13797           0.0000000000
     63642     13989  TIP3      H1             34.2035403409      -30.4662730006      -57.3481440852  TIP3      13797           0.0000000000
     63643     13989  TIP3      H2             33.4352145944      -29.4900958585      -58.2626833711  TIP3      13797           0.0000000000
     63644     13990  TIP3      OH2            23.8833361971      -25.6791496136      -51.7534436372  TIP3      13798           0.0000000000
     63645     13990  TIP3      H1             24.5595831597      -25.7653061824      -52.4540466805  TIP3      13798           0.0000000000
     63646     13990  TIP3      H2             23.9392307671      -26.5391134741      -51.2987148724  TIP3      13798           0.0000000000
     63647     13991  TIP3      OH2            30.8451333933      -23.6088706796      -58.5231327177  TIP3      13799           0.0000000000
     63648     13991  TIP3      H1             30.5202393767      -22.7579823798      -58.1595236695  TIP3      13799           0.0000000000
     63649     13991  TIP3      H2             30.1196507842      -24.2269784817      -58.2947866343  TIP3      13799           0.0000000000
     63650     13992  TIP3      OH2            20.8701061715      -27.2817978297      -46.4908017237  TIP3      13800           0.0000000000
     63651     13992  TIP3      H1             21.0391117742      -27.7262102673      -45.6382014808  TIP3      13800           0.0000000000
     63652     13992  TIP3      H2             20.2494518832      -27.8896165801      -46.9316870588  TIP3      13800           0.0000000000
     63653     13993  TIP3      OH2            27.8823787529      -27.7200026722      -44.3172251155  TIP3      13801           0.0000000000
     63654     13993  TIP3      H1             27.5626980158      -28.0298522888      -45.1764939482  TIP3      13801           0.0000000000
     63655     13993  TIP3      H2             28.8047020416      -28.0452217849      -44.3179206787  TIP3      13801           0.0000000000
     63656     13994  TIP3      OH2            32.5660831585      -22.3999528694      -46.3637528597  TIP3      13802           0.0000000000
     63657     13994  TIP3      H1             31.6469025003      -22.2164006785      -46.6027474531  TIP3      13802           0.0000000000
     63658     13994  TIP3      H2             32.5396163450      -22.0962278754      -45.4362857646  TIP3      13802           0.0000000000
     63659     13995  TIP3      OH2            33.6768582711      -26.5854886634      -50.4633896224  TIP3      13803           0.0000000000
     63660     13995  TIP3      H1             32.7398956395      -26.8033090375      -50.6077901094  TIP3      13803           0.0000000000
     63661     13995  TIP3      H2             34.1562532407      -27.3196437307      -50.8865912588  TIP3      13803           0.0000000000
     63662     13996  TIP3      OH2            26.2525160985      -22.2275479246      -54.3670479796  TIP3      13804           0.0000000000
     63663     13996  TIP3      H1             26.7510414573      -21.4224366865      -54.5748159287  TIP3      13804           0.0000000000
     63664     13996  TIP3      H2             25.3738683155      -21.9973438757      -54.6998777706  TIP3      13804           0.0000000000
     63665     13997  TIP3      OH2            22.0204089867      -27.3882921544      -59.7998249942  TIP3      13805           0.0000000000
     63666     13997  TIP3      H1             22.5989616269      -26.7236140745      -59.3880188027  TIP3      13805           0.0000000000
     63667     13997  TIP3      H2             21.1297667927      -27.0767955181      -59.5499476730  TIP3      13805           0.0000000000
     63668     13998  TIP3      OH2            27.6660202129      -24.5595240805      -54.8591999256  TIP3      13806           0.0000000000
     63669     13998  TIP3      H1             27.3507792126      -23.6416587569      -54.7588343644  TIP3      13806           0.0000000000
     63670     13998  TIP3      H2             26.9526286955      -25.0559840482      -54.4096083847  TIP3      13806           0.0000000000
     63671     13999  TIP3      OH2            28.1170460731      -20.3774864044      -48.4393648412  TIP3      13807           0.0000000000
     63672     13999  TIP3      H1             28.5799767496      -19.5732664978      -48.7282664357  TIP3      13807           0.0000000000
     63673     13999  TIP3      H2             28.7299238003      -20.7194508295      -47.7636802689  TIP3      13807           0.0000000000
     63674     14000  TIP3      OH2            26.3445073842      -19.5744458385      -55.3280853456  TIP3      13808           0.0000000000
     63675     14000  TIP3      H1             25.3804895799      -19.4308517184      -55.1920734636  TIP3      13808           0.0000000000
     63676     14000  TIP3      H2             26.7099399684      -18.7383368801      -54.9835827307  TIP3      13808           0.0000000000
     63677     14001  TIP3      OH2            31.6602885689      -24.3821749878      -48.8199651420  TIP3      13809           0.0000000000
     63678     14001  TIP3      H1             31.3174461498      -24.5766985598      -47.9219023177  TIP3      13809           0.0000000000
     63679     14001  TIP3      H2             32.2865387231      -25.1025053409      -48.9911281310  TIP3      13809           0.0000000000
     63680     14002  TIP3      OH2            33.9592922007      -23.3292661772      -59.7421019601  TIP3      13810           0.0000000000
     63681     14002  TIP3      H1             34.2828982477      -23.7579034674      -58.9248900743  TIP3      13810           0.0000000000
     63682     14002  TIP3      H2             33.0087085758      -23.4979529652      -59.6511819697  TIP3      13810           0.0000000000
     63683     14003  TIP3      OH2            34.4659652405      -19.8255366590      -46.3502097225  TIP3      13811           0.0000000000
     63684     14003  TIP3      H1             33.7402822289      -20.2896001204      -46.8183583716  TIP3      13811           0.0000000000
     63685     14003  TIP3      H2             34.6681332683      -19.1038704450      -46.9845215818  TIP3      13811           0.0000000000
     63686     14004  TIP3      OH2            22.5148242283      -32.5644141510      -46.9224594937  TIP3      13812           0.0000000000
     63687     14004  TIP3      H1             21.6093301117      -32.2101857297      -46.9629341981  TIP3      13812           0.0000000000
     63688     14004  TIP3      H2             22.3826660608      -33.4356432046      -46.5074674934  TIP3      13812           0.0000000000
     63689     14005  TIP3      OH2            34.7589957465      -24.7193222932      -57.5149748076  TIP3      13813           0.0000000000
     63690     14005  TIP3      H1             34.5326407033      -25.4853547424      -56.9423343891  TIP3      13813           0.0000000000
     63691     14005  TIP3      H2             35.6968606106      -24.5992087126      -57.2866839465  TIP3      13813           0.0000000000
     63692     14006  TIP3      OH2            22.1308218382      -20.7630947158      -48.5175836829  TIP3      13814           0.0000000000
     63693     14006  TIP3      H1             22.4372214977      -21.6830613769      -48.5107515365  TIP3      13814           0.0000000000
     63694     14006  TIP3      H2             22.3946201087      -20.4710564199      -47.6376904939  TIP3      13814           0.0000000000
     63695     14007  TIP3      OH2            28.1082669219      -22.2338823258      -61.2380635604  TIP3      13815           0.0000000000
     63696     14007  TIP3      H1             28.2073928681      -22.9976503973      -61.8289960702  TIP3      13815           0.0000000000
     63697     14007  TIP3      H2             27.6661864419      -22.6644849262      -60.4738865232  TIP3      13815           0.0000000000
     63698     14008  TIP3      OH2            26.8793753766      -22.7066648824      -58.7854797498  TIP3      13816           0.0000000000
     63699     14008  TIP3      H1             27.1506259078      -23.2217379952      -58.0160698345  TIP3      13816           0.0000000000
     63700     14008  TIP3      H2             26.9727944989      -21.7796878310      -58.4624465507  TIP3      13816           0.0000000000
     63701     14009  TIP3      OH2            23.4240718714      -25.4612297440      -58.2995490613  TIP3      13817           0.0000000000
     63702     14009  TIP3      H1             22.7086243278      -25.0653977082      -57.7625504680  TIP3      13817           0.0000000000
     63703     14009  TIP3      H2             23.9282386913      -24.6810075606      -58.5943607131  TIP3      13817           0.0000000000
     63704     14010  TIP3      OH2            31.2293421165      -32.7794578289      -47.9716223549  TIP3      13818           0.0000000000
     63705     14010  TIP3      H1             31.9926487820      -32.7257364298      -47.3784206524  TIP3      13818           0.0000000000
     63706     14010  TIP3      H2             30.8809185030      -33.6741428994      -47.8002184124  TIP3      13818           0.0000000000
     63707     14011  TIP3      OH2            32.0681312179      -33.2123939318      -56.8769462451  TIP3      13819           0.0000000000
     63708     14011  TIP3      H1             32.2348893134      -32.7454676858      -57.7231258292  TIP3      13819           0.0000000000
     63709     14011  TIP3      H2             32.5832084850      -32.6917681457      -56.2459350153  TIP3      13819           0.0000000000
     63710     14012  TIP3      OH2            29.6842882975      -21.0444223325      -58.0912537947  TIP3      13820           0.0000000000
     63711     14012  TIP3      H1             28.8680041209      -20.5109172488      -58.0191526033  TIP3      13820           0.0000000000
     63712     14012  TIP3      H2             30.2248958777      -20.4927872617      -58.6761549596  TIP3      13820           0.0000000000
     63713     14013  TIP3      OH2            29.2426095971      -31.4831894782      -56.0670417411  TIP3      13821           0.0000000000
     63714     14013  TIP3      H1             30.0023058476      -30.8713193384      -56.0352380266  TIP3      13821           0.0000000000
     63715     14013  TIP3      H2             28.9766352294      -31.5649705428      -55.1300097726  TIP3      13821           0.0000000000
     63716     14014  TIP3      OH2            29.8109163988      -30.4212389498      -46.8857299040  TIP3      13822           0.0000000000
     63717     14014  TIP3      H1             29.8909069713      -29.8637833765      -46.0879056421  TIP3      13822           0.0000000000
     63718     14014  TIP3      H2             30.4609745703      -31.1319090644      -46.7923057429  TIP3      13822           0.0000000000
     63719     14015  TIP3      OH2            30.0656092803      -34.3853077221      -55.1600186551  TIP3      13823           0.0000000000
     63720     14015  TIP3      H1             29.7602989896      -33.7138485532      -54.5279812694  TIP3      13823           0.0000000000
     63721     14015  TIP3      H2             30.7490248891      -33.8543528083      -55.6322355732  TIP3      13823           0.0000000000
     63722     14016  TIP3      OH2            27.0724760899      -20.0126010428      -58.0628498559  TIP3      13824           0.0000000000
     63723     14016  TIP3      H1             27.1775324881      -19.1981821518      -58.6123893006  TIP3      13824           0.0000000000
     63724     14016  TIP3      H2             26.8116826429      -19.6454341805      -57.1901635829  TIP3      13824           0.0000000000
     63725     14017  TIP3      OH2            25.7158148021      -33.2987567271      -58.4957852959  TIP3      13825           0.0000000000
     63726     14017  TIP3      H1             25.6628252349      -32.4033372999      -58.1072345207  TIP3      13825           0.0000000000
     63727     14017  TIP3      H2             26.6398485142      -33.4995524118      -58.2458903455  TIP3      13825           0.0000000000
     63728     14018  TIP3      OH2            35.8464791757      -32.7571937680      -46.1946224952  TIP3      13826           0.0000000000
     63729     14018  TIP3      H1             34.9993646754      -32.2530303733      -46.2124673313  TIP3      13826           0.0000000000
     63730     14018  TIP3      H2             36.2311447201      -32.5532301765      -47.0512406314  TIP3      13826           0.0000000000
     63731     14019  TIP3      OH2            34.5667859828      -28.7677992048      -51.9888036878  TIP3      13827           0.0000000000
     63732     14019  TIP3      H1             33.7462135648      -29.2031547889      -52.2984665345  TIP3      13827           0.0000000000
     63733     14019  TIP3      H2             34.9959430028      -29.4816470783      -51.5072059147  TIP3      13827           0.0000000000
     63734     14020  TIP3      OH2            23.9637135333      -22.8468167733      -59.4407816231  TIP3      13828           0.0000000000
     63735     14020  TIP3      H1             24.6312868639      -22.2204723352      -59.1242243900  TIP3      13828           0.0000000000
     63736     14020  TIP3      H2             24.4850386626      -23.3108995596      -60.1263856320  TIP3      13828           0.0000000000
     63737     14021  TIP3      OH2            22.3030203772      -30.1605589352      -60.2836514287  TIP3      13829           0.0000000000
     63738     14021  TIP3      H1             22.3233926139      -29.2019784399      -60.0877631533  TIP3      13829           0.0000000000
     63739     14021  TIP3      H2             21.4168086628      -30.3422759074      -60.6033410313  TIP3      13829           0.0000000000
     63740     14022  TIP3      OH2            35.7010568425      -19.4831804412      -50.3748093232  TIP3      13830           0.0000000000
     63741     14022  TIP3      H1             35.5428616562      -18.8090632066      -51.0638042140  TIP3      13830           0.0000000000
     63742     14022  TIP3      H2             36.6435048161      -19.3941422919      -50.2095824691  TIP3      13830           0.0000000000
     63743     14023  TIP3      OH2            22.8869404021      -35.2255186170      -51.4997866613  TIP3      13831           0.0000000000
     63744     14023  TIP3      H1             22.9462981811      -35.3265097221      -52.4782184589  TIP3      13831           0.0000000000
     63745     14023  TIP3      H2             22.7406897954      -36.1490669503      -51.2742146052  TIP3      13831           0.0000000000
     63746     14024  TIP3      OH2            22.0820703458      -21.4665962473      -55.4054816714  TIP3      13832           0.0000000000
     63747     14024  TIP3      H1             21.2287214965      -21.0172680923      -55.4531968280  TIP3      13832           0.0000000000
     63748     14024  TIP3      H2             22.5581430651      -21.0020704670      -56.1069325344  TIP3      13832           0.0000000000
     63749     14025  TIP3      OH2            21.2768887093      -18.8147239045      -44.1285618009  TIP3      13833           0.0000000000
     63750     14025  TIP3      H1             21.8927137997      -19.0293509080      -43.4001011608  TIP3      13833           0.0000000000
     63751     14025  TIP3      H2             20.8787990558      -19.6826812422      -44.3137612698  TIP3      13833           0.0000000000
     63752     14026  TIP3      OH2            25.9932523250      -19.9081632743      -42.5234816325  TIP3      13834           0.0000000000
     63753     14026  TIP3      H1             26.7446910872      -20.4093873909      -42.1854993227  TIP3      13834           0.0000000000
     63754     14026  TIP3      H2             25.9520941099      -20.1845654877      -43.4589331877  TIP3      13834           0.0000000000
     63755     14027  TIP3      OH2            30.1080221160      -20.3861204689      -61.1220023430  TIP3      13835           0.0000000000
     63756     14027  TIP3      H1             29.4134245985      -21.0404932374      -60.8880610083  TIP3      13835           0.0000000000
     63757     14027  TIP3      H2             30.8290185032      -20.9868754469      -61.3594663499  TIP3      13835           0.0000000000
     63758     14028  TIP3      OH2            32.5279922816      -21.5268261633      -43.7701623563  TIP3      13836           0.0000000000
     63759     14028  TIP3      H1             32.1784393333      -22.3969943242      -43.4855957669  TIP3      13836           0.0000000000
     63760     14028  TIP3      H2             33.2810086084      -21.4192495846      -43.1596165188  TIP3      13836           0.0000000000
     63761     14029  TIP3      OH2            34.6341790664      -20.6247398914      -60.8812214029  TIP3      13837           0.0000000000
     63762     14029  TIP3      H1             34.9421568054      -21.4221651681      -60.4254250201  TIP3      13837           0.0000000000
     63763     14029  TIP3      H2             35.3831347767      -20.4398366970      -61.4776085343  TIP3      13837           0.0000000000
     63764     14030  TIP3      OH2            21.1958719969      -25.0437428168      -43.1280370459  TIP3      13838           0.0000000000
     63765     14030  TIP3      H1             21.3630222738      -25.9551268266      -43.4296773929  TIP3      13838           0.0000000000
     63766     14030  TIP3      H2             20.4565213018      -24.7859459972      -43.7029463061  TIP3      13838           0.0000000000
     63767     14031  TIP3      OH2            25.5440344678      -24.6998300629      -61.1133328608  TIP3      13839           0.0000000000
     63768     14031  TIP3      H1             25.6855290337      -25.4589071522      -60.5276333919  TIP3      13839           0.0000000000
     63769     14031  TIP3      H2             26.2950780844      -24.8168403506      -61.7277161259  TIP3      13839           0.0000000000
     63770     14032  TIP3      OH2            27.9138192125      -25.0540356169      -43.7437959806  TIP3      13840           0.0000000000
     63771     14032  TIP3      H1             27.5789997656      -24.7423885456      -44.6071927223  TIP3      13840           0.0000000000
     63772     14032  TIP3      H2             27.9887356279      -26.0332534383      -43.8518730199  TIP3      13840           0.0000000000
     63773     14033  TIP3      OH2            30.9711042264      -23.5906443114      -61.3321168566  TIP3      13841           0.0000000000
     63774     14033  TIP3      H1             30.6994425109      -23.5084649876      -60.4042875356  TIP3      13841           0.0000000000
     63775     14033  TIP3      H2             30.7791820680      -24.5478632922      -61.4763323002  TIP3      13841           0.0000000000
     63776     14034  TIP3      OH2            33.5795674267      -25.2346085797      -46.3520534369  TIP3      13842           0.0000000000
     63777     14034  TIP3      H1             34.3718697860      -24.6391924196      -46.4050826019  TIP3      13842           0.0000000000
     63778     14034  TIP3      H2             32.9083861279      -24.5439394350      -46.3066519993  TIP3      13842           0.0000000000
     63779     14035  TIP3      OH2            22.1187098435      -27.8161132126      -43.7473752501  TIP3      13843           0.0000000000
     63780     14035  TIP3      H1             22.5346407525      -28.6793617634      -43.8393788338  TIP3      13843           0.0000000000
     63781     14035  TIP3      H2             21.8841560740      -27.8121001588      -42.8052799339  TIP3      13843           0.0000000000
     63782     14036  TIP3      OH2            26.7589971176      -26.6802145819      -58.6713647429  TIP3      13844           0.0000000000
     63783     14036  TIP3      H1             26.2463854229      -27.2196015173      -58.0521470455  TIP3      13844           0.0000000000
     63784     14036  TIP3      H2             27.0487010766      -27.3515607829      -59.3334798897  TIP3      13844           0.0000000000
     63785     14037  TIP3      OH2            26.0167000339      -28.8811797920      -46.3978358977  TIP3      13845           0.0000000000
     63786     14037  TIP3      H1             25.4228190637      -28.1568936814      -46.1384528135  TIP3      13845           0.0000000000
     63787     14037  TIP3      H2             26.4150199316      -28.5072440649      -47.2027386174  TIP3      13845           0.0000000000
     63788     14038  TIP3      OH2            27.8204637828      -28.4543589648      -60.4814877055  TIP3      13846           0.0000000000
     63789     14038  TIP3      H1             27.6746766133      -28.5473847636      -61.4453635795  TIP3      13846           0.0000000000
     63790     14038  TIP3      H2             28.7979440200      -28.4057541518      -60.4154314293  TIP3      13846           0.0000000000
     63791     14039  TIP3      OH2            31.0879823623      -26.2950370041      -43.0542018956  TIP3      13847           0.0000000000
     63792     14039  TIP3      H1             32.0423857557      -26.3092893076      -43.1799683587  TIP3      13847           0.0000000000
     63793     14039  TIP3      H2             30.9378788284      -27.0780443131      -42.5006502847  TIP3      13847           0.0000000000
     63794     14040  TIP3      OH2            26.4119938938      -31.5019006221      -45.3360172561  TIP3      13848           0.0000000000
     63795     14040  TIP3      H1             26.5443534333      -32.2110155435      -45.9862813110  TIP3      13848           0.0000000000
     63796     14040  TIP3      H2             26.3773138396      -30.6893624764      -45.8892425539  TIP3      13848           0.0000000000
     63797     14041  TIP3      OH2            26.8235848521      -33.0928057671      -47.8133477794  TIP3      13849           0.0000000000
     63798     14041  TIP3      H1             27.3395679723      -32.6188201762      -48.5062970240  TIP3      13849           0.0000000000
     63799     14041  TIP3      H2             25.9306427093      -33.1977657740      -48.2206172042  TIP3      13849           0.0000000000
     63800     14042  TIP3      OH2            28.3637258653      -27.6231622703      -47.5403880652  TIP3      13850           0.0000000000
     63801     14042  TIP3      H1             29.1194086928      -27.7895347890      -48.1126060552  TIP3      13850           0.0000000000
     63802     14042  TIP3      H2             28.0048712926      -26.7870731274      -47.8767353562  TIP3      13850           0.0000000000
     63803     14043  TIP3      OH2            32.8161769793      -29.8438562169      -42.5688788052  TIP3      13851           0.0000000000
     63804     14043  TIP3      H1             33.0372799951      -30.7828101930      -42.6807801180  TIP3      13851           0.0000000000
     63805     14043  TIP3      H2             33.6901112121      -29.4281517571      -42.6111652129  TIP3      13851           0.0000000000
     63806     14044  TIP3      OH2            34.1237360187      -27.0327290954      -44.4078665304  TIP3      13852           0.0000000000
     63807     14044  TIP3      H1             33.8285870826      -26.3498156316      -45.0511206675  TIP3      13852           0.0000000000
     63808     14044  TIP3      H2             35.0524555312      -27.1513455041      -44.6226382412  TIP3      13852           0.0000000000
     63809     14045  TIP3      OH2            24.8860679371      -30.2444805417      -43.4164114649  TIP3      13853           0.0000000000
     63810     14045  TIP3      H1             24.1157891277      -30.8208047889      -43.5884603165  TIP3      13853           0.0000000000
     63811     14045  TIP3      H2             25.5423670177      -30.6047317383      -44.0392728297  TIP3      13853           0.0000000000
     63812     14046  TIP3      OH2            27.4683908175      -35.4813002911      -47.1149705566  TIP3      13854           0.0000000000
     63813     14046  TIP3      H1             27.4144590490      -34.5411117309      -47.4158179976  TIP3      13854           0.0000000000
     63814     14046  TIP3      H2             26.8880472589      -35.8960292023      -47.7692891478  TIP3      13854           0.0000000000
     63815     14047  TIP3      OH2            28.8627154998      -31.3150469376      -43.7798184018  TIP3      13855           0.0000000000
     63816     14047  TIP3      H1             28.5851019181      -31.6232486613      -42.8975528365  TIP3      13855           0.0000000000
     63817     14047  TIP3      H2             28.0902824829      -31.5640283796      -44.3112164179  TIP3      13855           0.0000000000
     63818     14048  TIP3      OH2            31.5738006597      -32.1855302920      -44.6590345739  TIP3      13856           0.0000000000
     63819     14048  TIP3      H1             30.6096536807      -32.1766384454      -44.5371016814  TIP3      13856           0.0000000000
     63820     14048  TIP3      H2             31.9017457213      -32.8240174683      -43.9951945152  TIP3      13856           0.0000000000
     63821     14049  TIP3      OH2            33.2917648071      -33.5011723066      -42.7085138424  TIP3      13857           0.0000000000
     63822     14049  TIP3      H1             33.1057218684      -34.4711135399      -42.7637539187  TIP3      13857           0.0000000000
     63823     14049  TIP3      H2             32.8990227584      -33.2808564092      -41.8467856418  TIP3      13857           0.0000000000
     63824     14050  TIP3      OH2            22.9483768312      -32.3200874066      -43.6632230361  TIP3      13858           0.0000000000
     63825     14050  TIP3      H1             23.2156582736      -33.0521757813      -44.2478422349  TIP3      13858           0.0000000000
     63826     14050  TIP3      H2             22.8817843621      -32.7735765168      -42.7999972097  TIP3      13858           0.0000000000
     63827     14051  TIP3      OH2            27.8149251003       36.7217225386      -44.6577040686  TIP3      13859           0.0000000000
     63828     14051  TIP3      H1             28.5003797728       36.0520924543      -44.6147521097  TIP3      13859           0.0000000000
     63829     14051  TIP3      H2             27.7105051305       36.9301832176      -45.6100440335  TIP3      13859           0.0000000000
     63830     14052  TIP3      OH2            28.2171649242      -34.5955877245      -42.6162741660  TIP3      13860           0.0000000000
     63831     14052  TIP3      H1             28.0406500737      -35.1691230349      -43.3925517640  TIP3      13860           0.0000000000
     63832     14052  TIP3      H2             27.5803294100      -33.8711225879      -42.6859169365  TIP3      13860           0.0000000000
     63833     14053  TIP3      OH2            27.6516296739      -17.7700200590      -59.4204306831  TIP3      13861           0.0000000000
     63834     14053  TIP3      H1             28.6157414166      -17.6853467999      -59.3412247113  TIP3      13861           0.0000000000
     63835     14053  TIP3      H2             27.5157602635      -17.1394021713      -60.1369927069  TIP3      13861           0.0000000000
     63836     14054  TIP3      OH2            21.2108170170      -23.1841163858      -59.9343581098  TIP3      13862           0.0000000000
     63837     14054  TIP3      H1             22.1780446629      -23.0880484387      -59.7546238081  TIP3      13862           0.0000000000
     63838     14054  TIP3      H2             21.2608966474      -23.8270991877      -60.6814607856  TIP3      13862           0.0000000000
     63839     14055  TIP3      OH2            19.9933774154      -17.7991117334      -54.9708642588  TIP3      13863           0.0000000000
     63840     14055  TIP3      H1             19.2724352170      -18.2841748684      -55.4292016664  TIP3      13863           0.0000000000
     63841     14055  TIP3      H2             20.2727893487      -18.4520815045      -54.3038066178  TIP3      13863           0.0000000000
     63842     14056  TIP3      OH2            20.8162126212      -19.6606837461      -53.0917528033  TIP3      13864           0.0000000000
     63843     14056  TIP3      H1             20.4634272763      -20.5394415977      -52.8925800924  TIP3      13864           0.0000000000
     63844     14056  TIP3      H2             21.0574609586      -19.3360895375      -52.2068178658  TIP3      13864           0.0000000000
     63845     14057  TIP3      OH2            36.2812316727      -21.6062766530      -47.9147707082  TIP3      13865           0.0000000000
     63846     14057  TIP3      H1             35.6200726860      -21.1727254326      -47.3569437268  TIP3      13865           0.0000000000
     63847     14057  TIP3      H2             35.7541784436      -21.9714786814      -48.6491059322  TIP3      13865           0.0000000000
     63848     14058  TIP3      OH2            35.3642169286      -28.5977629025      -54.5752731628  TIP3      13866           0.0000000000
     63849     14058  TIP3      H1             35.6189878896      -29.5236392166      -54.5347908375  TIP3      13866           0.0000000000
     63850     14058  TIP3      H2             35.4797497479      -28.3478054936      -53.6324369403  TIP3      13866           0.0000000000
     63851     14059  TIP3      OH2            20.8722803916      -26.5870442068      -50.6016295221  TIP3      13867           0.0000000000
     63852     14059  TIP3      H1             21.0517850148      -26.6648031403      -51.5638646846  TIP3      13867           0.0000000000
     63853     14059  TIP3      H2             21.7663144529      -26.7621080582      -50.2469706803  TIP3      13867           0.0000000000
     63854     14060  TIP3      OH2            35.9285779003      -32.6391553897      -61.1784049237  TIP3      13868           0.0000000000
     63855     14060  TIP3      H1             36.5288850055      -33.0445955581      -60.5512123181  TIP3      13868           0.0000000000
     63856     14060  TIP3      H2             35.0700637263      -33.0729458649      -61.0027379695  TIP3      13868           0.0000000000
     63857     14061  TIP3      OH2            35.5044259543      -31.1587892928      -56.3632800690  TIP3      13869           0.0000000000
     63858     14061  TIP3      H1             35.7985358588      -31.9908293114      -55.9547075068  TIP3      13869           0.0000000000
     63859     14061  TIP3      H2             36.3479928923      -30.7937914184      -56.6589450427  TIP3      13869           0.0000000000
     63860     14062  TIP3      OH2           -37.0696862628      -31.3655944115      -50.7851345715  TIP3      13870           0.0000000000
     63861     14062  TIP3      H1            -36.1680790519      -31.0416053096      -50.8991796930  TIP3      13870           0.0000000000
     63862     14062  TIP3      H2            -37.2678972230      -30.7547777633      -50.0587726206  TIP3      13870           0.0000000000
     63863     14063  TIP3      OH2            36.2573758676      -29.7633030978      -47.7238361753  TIP3      13871           0.0000000000
     63864     14063  TIP3      H1             35.3226924864      -29.4947223552      -47.6322721485  TIP3      13871           0.0000000000
     63865     14063  TIP3      H2             36.6196529364      -29.0769288966      -48.3132579194  TIP3      13871           0.0000000000
     63866     14064  TIP3      OH2            20.4819626535      -31.2641827971      -44.4382051543  TIP3      13872           0.0000000000
     63867     14064  TIP3      H1             21.4195950106      -31.4862983542      -44.2686420927  TIP3      13872           0.0000000000
     63868     14064  TIP3      H2             20.0413748106      -32.1043204403      -44.1888514655  TIP3      13872           0.0000000000
     63869     14065  TIP3      OH2            35.3035537420      -34.1230497530      -55.4867756371  TIP3      13873           0.0000000000
     63870     14065  TIP3      H1             36.2372323976      -34.2615133062      -55.2749238283  TIP3      13873           0.0000000000
     63871     14065  TIP3      H2             35.3185930227      -34.5314551112      -56.3849761073  TIP3      13873           0.0000000000
     63872     14066  TIP3      OH2            21.6597756797      -32.9411076512      -51.6373615917  TIP3      13874           0.0000000000
     63873     14066  TIP3      H1             22.0938464308      -33.7850166745      -51.3615194639  TIP3      13874           0.0000000000
     63874     14066  TIP3      H2             22.2345833624      -32.2926957311      -51.2136042336  TIP3      13874           0.0000000000
     63875     14067  TIP3      OH2            19.9739908270      -29.9925033272      -50.5604314416  TIP3      13875           0.0000000000
     63876     14067  TIP3      H1             20.5386517396      -30.2451078848      -51.3196813504  TIP3      13875           0.0000000000
     63877     14067  TIP3      H2             20.4423498278      -29.1887930894      -50.2912973624  TIP3      13875           0.0000000000
     63878     14068  TIP3      OH2            20.3436781029      -33.7536325695      -56.4552880093  TIP3      13876           0.0000000000
     63879     14068  TIP3      H1             19.4033428652      -33.5736395316      -56.6369120406  TIP3      13876           0.0000000000
     63880     14068  TIP3      H2             20.7625207801      -33.2761468658      -57.1962250811  TIP3      13876           0.0000000000
     63881     14069  TIP3      OH2            34.8819681616      -18.9697336596      -54.4311639024  TIP3      13877           0.0000000000
     63882     14069  TIP3      H1             35.5562912502      -19.2578360729      -55.0629686180  TIP3      13877           0.0000000000
     63883     14069  TIP3      H2             35.3883738984      -18.3498794647      -53.8842720834  TIP3      13877           0.0000000000
     63884     14070  TIP3      OH2            20.2942916737      -34.9965723376      -48.1721338337  TIP3      13878           0.0000000000
     63885     14070  TIP3      H1             19.6178494396      -35.2412709098      -47.5238820309  TIP3      13878           0.0000000000
     63886     14070  TIP3      H2             19.8127373906      -34.4025750638      -48.7744812188  TIP3      13878           0.0000000000
     63887     14071  TIP3      OH2            22.5277045382      -21.8862999811      -44.0235180256  TIP3      13879           0.0000000000
     63888     14071  TIP3      H1             21.6919791681      -21.6629389577      -44.4673592904  TIP3      13879           0.0000000000
     63889     14071  TIP3      H2             22.2572917186      -21.9358402101      -43.1026234541  TIP3      13879           0.0000000000
     63890     14072  TIP3      OH2            25.4288843541      -20.8733815482      -47.7494732947  TIP3      13880           0.0000000000
     63891     14072  TIP3      H1             25.0981769761      -20.0054723368      -48.0227422791  TIP3      13880           0.0000000000
     63892     14072  TIP3      H2             26.3539537039      -20.7888197365      -48.0552921699  TIP3      13880           0.0000000000
     63893     14073  TIP3      OH2            29.7491009389      -19.4498455910      -44.8491018986  TIP3      13881           0.0000000000
     63894     14073  TIP3      H1             29.8861747565      -19.8030571594      -43.9396226839  TIP3      13881           0.0000000000
     63895     14073  TIP3      H2             30.6510566130      -19.1426453918      -45.0928250913  TIP3      13881           0.0000000000
     63896     14074  TIP3      OH2            32.0569179340      -18.1850135460      -45.5289331326  TIP3      13882           0.0000000000
     63897     14074  TIP3      H1             32.7982366961      -18.7586871316      -45.7688967470  TIP3      13882           0.0000000000
     63898     14074  TIP3      H2             32.4378040768      -17.7338521167      -44.7447042542  TIP3      13882           0.0000000000
     63899     14075  TIP3      OH2            22.8519659048      -17.6367194427      -47.7562431728  TIP3      13883           0.0000000000
     63900     14075  TIP3      H1             22.1204135060      -17.1387422723      -48.1540749970  TIP3      13883           0.0000000000
     63901     14075  TIP3      H2             22.5399974376      -17.8302017112      -46.8612695006  TIP3      13883           0.0000000000
     63902     14076  TIP3      OH2            25.3198402322      -18.0603066760      -48.6826702733  TIP3      13884           0.0000000000
     63903     14076  TIP3      H1             24.4275799050      -17.9071993879      -48.2917135139  TIP3      13884           0.0000000000
     63904     14076  TIP3      H2             25.2676298197      -17.4714377897      -49.4586115633  TIP3      13884           0.0000000000
     63905     14077  TIP3      OH2            29.9870959990      -18.1661244031      -49.5038938387  TIP3      13885           0.0000000000
     63906     14077  TIP3      H1             29.5598084111      -17.5932670075      -50.1619942415  TIP3      13885           0.0000000000
     63907     14077  TIP3      H2             30.1559924097      -17.5241757596      -48.7805718269  TIP3      13885           0.0000000000
     63908     14078  TIP3      OH2            32.3096421706      -19.3461781146      -48.4858532173  TIP3      13886           0.0000000000
     63909     14078  TIP3      H1             31.4545248981      -19.0702542706      -48.8523787083  TIP3      13886           0.0000000000
     63910     14078  TIP3      H2             32.7717573055      -18.4897487454      -48.5534097843  TIP3      13886           0.0000000000
     63911     14079  TIP3      OH2            34.7589091553      -17.7727695249      -48.2719368029  TIP3      13887           0.0000000000
     63912     14079  TIP3      H1             34.7572991814      -16.8211018843      -48.4885578169  TIP3      13887           0.0000000000
     63913     14079  TIP3      H2             35.1040592627      -18.1410961616      -49.1082919184  TIP3      13887           0.0000000000
     63914     14080  TIP3      OH2            22.3129054790      -18.9887879059      -50.8137715032  TIP3      13888           0.0000000000
     63915     14080  TIP3      H1             22.2306459130      -19.4478700778      -49.9513457217  TIP3      13888           0.0000000000
     63916     14080  TIP3      H2             23.1273923344      -19.3687216773      -51.2012201813  TIP3      13888           0.0000000000
     63917     14081  TIP3      OH2            24.3850301845      -20.2778838785      -52.1605833668  TIP3      13889           0.0000000000
     63918     14081  TIP3      H1             24.2229889275      -21.2113376776      -51.9260774972  TIP3      13889           0.0000000000
     63919     14081  TIP3      H2             25.2420601150      -20.1213999822      -51.7079745363  TIP3      13889           0.0000000000
     63920     14082  TIP3      OH2            26.9601431820      -19.7925499411      -51.2859563468  TIP3      13890           0.0000000000
     63921     14082  TIP3      H1             27.1422447175      -20.7124677462      -51.5461462075  TIP3      13890           0.0000000000
     63922     14082  TIP3      H2             27.0337441127      -19.8448930613      -50.3204977269  TIP3      13890           0.0000000000
     63923     14083  TIP3      OH2            30.3048257936      -34.0738395024      -52.1650541913  TIP3      13891           0.0000000000
     63924     14083  TIP3      H1             29.7297375369      -34.7998644879      -51.8813014660  TIP3      13891           0.0000000000
     63925     14083  TIP3      H2             31.0021224200      -34.5631028896      -52.6494178579  TIP3      13891           0.0000000000
     63926     14084  TIP3      OH2            35.5827400547      -36.0493035581      -52.0037035318  TIP3      13892           0.0000000000
     63927     14084  TIP3      H1             36.1794449171      -35.5068574853      -52.5141317040  TIP3      13892           0.0000000000
     63928     14084  TIP3      H2             34.7139956523      -35.7310151157      -52.2485056858  TIP3      13892           0.0000000000
     63929     14085  TIP3      OH2            22.7783821627      -35.4822514152      -54.2735679906  TIP3      13893           0.0000000000
     63930     14085  TIP3      H1             22.0118542943      -35.7216006983      -54.8138351462  TIP3      13893           0.0000000000
     63931     14085  TIP3      H2             23.2610378404      -36.3285190564      -54.2422381000  TIP3      13893           0.0000000000
     63932     14086  TIP3      OH2            21.6070066498      -35.7627300886      -58.5625834912  TIP3      13894           0.0000000000
     63933     14086  TIP3      H1             22.0288155836      -35.1119587261      -59.1400197063  TIP3      13894           0.0000000000
     63934     14086  TIP3      H2             20.9741610223      -35.2132991619      -58.0857449675  TIP3      13894           0.0000000000
     63935     14087  TIP3      OH2            27.3474515217      -35.6590871660      -54.5222747317  TIP3      13895           0.0000000000
     63936     14087  TIP3      H1             28.2007687999      -35.1965572054      -54.5594823118  TIP3      13895           0.0000000000
     63937     14087  TIP3      H2             27.2463726344      -35.8163496940      -53.5775832360  TIP3      13895           0.0000000000
     63938     14088  TIP3      OH2            32.6890766906      -35.2148134509      -52.7352410355  TIP3      13896           0.0000000000
     63939     14088  TIP3      H1             32.8863850353      -35.2265003426      -53.6751959181  TIP3      13896           0.0000000000
     63940     14088  TIP3      H2             32.6306462457      -36.1943832392      -52.6106411746  TIP3      13896           0.0000000000
     63941     14089  TIP3      OH2            34.2362252828      -35.5922995534      -57.3186733834  TIP3      13897           0.0000000000
     63942     14089  TIP3      H1             33.5035090642      -34.9597510641      -57.3829257167  TIP3      13897           0.0000000000
     63943     14089  TIP3      H2             33.8220100350      -36.4151269598      -57.0418051071  TIP3      13897           0.0000000000
     63944     14090  TIP3      OH2            21.4967084707      -19.8160816381      -57.5451513105  TIP3      13898           0.0000000000
     63945     14090  TIP3      H1             20.8398692619      -19.8300315648      -58.2653875478  TIP3      13898           0.0000000000
     63946     14090  TIP3      H2             21.4941426912      -18.8609380799      -57.3739796308  TIP3      13898           0.0000000000
     63947     14091  TIP3      OH2            23.3807771675      -33.8894761461      -60.0433421986  TIP3      13899           0.0000000000
     63948     14091  TIP3      H1             23.9559963244      -34.4400596036      -60.6072358420  TIP3      13899           0.0000000000
     63949     14091  TIP3      H2             24.0359739690      -33.5072565080      -59.4274905927  TIP3      13899           0.0000000000
     63950     14092  TIP3      OH2            28.3597220717      -33.5810628680      -57.6125123127  TIP3      13900           0.0000000000
     63951     14092  TIP3      H1             28.7185865026      -34.1467829967      -56.9054733823  TIP3      13900           0.0000000000
     63952     14092  TIP3      H2             28.5156619287      -32.7071817570      -57.1866000255  TIP3      13900           0.0000000000
     63953     14093  TIP3      OH2            30.3478382224      -18.5263600340      -59.2290842586  TIP3      13901           0.0000000000
     63954     14093  TIP3      H1             31.2720490027      -18.2735566958      -59.4203592083  TIP3      13901           0.0000000000
     63955     14093  TIP3      H2             30.1517833469      -19.0495526647      -60.0366462318  TIP3      13901           0.0000000000
     63956     14094  TIP3      OH2            22.6003562495      -35.0036777419      -44.9573757075  TIP3      13902           0.0000000000
     63957     14094  TIP3      H1             22.2655120509      -35.7353823062      -44.4346435131  TIP3      13902           0.0000000000
     63958     14094  TIP3      H2             23.5015041577      -34.9766922053      -44.5499285465  TIP3      13902           0.0000000000
     63959     14095  TIP3      OH2            24.4384661558      -35.3779614168      -43.3050442951  TIP3      13903           0.0000000000
     63960     14095  TIP3      H1             25.3792877493      -35.5743462240      -43.4351961119  TIP3      13903           0.0000000000
     63961     14095  TIP3      H2             24.2716642025      -36.2337653785      -42.8603675955  TIP3      13903           0.0000000000
     63962     14096  TIP3      OH2            23.2901991452      -18.8284720806      -60.6053075966  TIP3      13904           0.0000000000
     63963     14096  TIP3      H1             23.0316645013      -18.5700396237      -59.7089393919  TIP3      13904           0.0000000000
     63964     14096  TIP3      H2             24.0741366656      -19.3913470292      -60.4501823300  TIP3      13904           0.0000000000
     63965     14097  TIP3      OH2            33.0759069384       37.0695106227      -43.1414916981  TIP3      13905           0.0000000000
     63966     14097  TIP3      H1             33.0917515146       36.5071927178      -42.3360119230  TIP3      13905           0.0000000000
     63967     14097  TIP3      H2             33.9593734716       36.8547892225      -43.4639955580  TIP3      13905           0.0000000000
     63968     14098  TIP3      OH2            36.0978579415      -20.3742533807      -44.2818679144  TIP3      13906           0.0000000000
     63969     14098  TIP3      H1             35.4528634975      -20.4317243884      -45.0182603724  TIP3      13906           0.0000000000
     63970     14098  TIP3      H2             36.1231607560      -19.3919356080      -44.1963639619  TIP3      13906           0.0000000000
     63971     14099  TIP3      OH2           -24.6609331330       -7.5206897358      -54.4518359164  TIP3      13907           0.0000000000
     63972     14099  TIP3      H1            -24.6827857695       -6.5401393626      -54.4677011455  TIP3      13907           0.0000000000
     63973     14099  TIP3      H2            -25.3959706500       -7.7541383740      -55.0430620238  TIP3      13907           0.0000000000
     63974     14100  TIP3      OH2           -25.8140958821       -8.2698877163      -50.9386758681  TIP3      13908           0.0000000000
     63975     14100  TIP3      H1            -25.8232259627       -8.9169902625      -50.2213098898  TIP3      13908           0.0000000000
     63976     14100  TIP3      H2            -26.1602163268       -8.7771467195      -51.6916228360  TIP3      13908           0.0000000000
     63977     14101  TIP3      OH2           -33.4053481078       -8.6028456943      -49.4202492979  TIP3      13909           0.0000000000
     63978     14101  TIP3      H1            -33.3471561666       -9.2765875670      -48.7091836139  TIP3      13909           0.0000000000
     63979     14101  TIP3      H2            -32.7036612841       -7.9969375980      -49.1443547848  TIP3      13909           0.0000000000
     63980     14102  TIP3      OH2           -22.1258711075       -5.3172838033      -52.6551212596  TIP3      13910           0.0000000000
     63981     14102  TIP3      H1            -22.5382411715       -6.0347660691      -52.1638878065  TIP3      13910           0.0000000000
     63982     14102  TIP3      H2            -22.1000612425       -4.6099040293      -51.9841178597  TIP3      13910           0.0000000000
     63983     14103  TIP3      OH2           -32.5369803372       -4.1596664272      -50.8701429090  TIP3      13911           0.0000000000
     63984     14103  TIP3      H1            -32.8505599732       -5.0159855649      -51.2152041239  TIP3      13911           0.0000000000
     63985     14103  TIP3      H2            -31.5775773893       -4.3257185126      -50.8463326600  TIP3      13911           0.0000000000
     63986     14104  TIP3      OH2           -35.6116317150      -10.6034178829      -55.8356157052  TIP3      13912           0.0000000000
     63987     14104  TIP3      H1            -36.0464402161       -9.8041343989      -55.4343931299  TIP3      13912           0.0000000000
     63988     14104  TIP3      H2            -36.4265648720      -11.1050239138      -55.8061035561  TIP3      13912           0.0000000000
     63989     14105  TIP3      OH2           -35.2232488956       -8.4306314922      -53.2927695654  TIP3      13913           0.0000000000
     63990     14105  TIP3      H1            -34.9081269393       -9.1882669520      -52.7833998725  TIP3      13913           0.0000000000
     63991     14105  TIP3      H2            -34.4880736997       -8.2353835877      -53.8904469158  TIP3      13913           0.0000000000
     63992     14106  TIP3      OH2           -25.0072510148       -0.1596163194      -52.4173295463  TIP3      13914           0.0000000000
     63993     14106  TIP3      H1            -24.3572203867       -0.8474748522      -52.7042998544  TIP3      13914           0.0000000000
     63994     14106  TIP3      H2            -25.2216123312       -0.4962604940      -51.5475326770  TIP3      13914           0.0000000000
     63995     14107  TIP3      OH2           -27.4370348750       -5.8670831765      -50.4647477440  TIP3      13915           0.0000000000
     63996     14107  TIP3      H1            -27.0983946267       -6.4938333165      -51.1247206949  TIP3      13915           0.0000000000
     63997     14107  TIP3      H2            -26.6250831422       -5.7095072084      -49.9514080486  TIP3      13915           0.0000000000
     63998     14108  TIP3      OH2           -18.8431821106      -14.2027331529      -49.7447384055  TIP3      13916           0.0000000000
     63999     14108  TIP3      H1            -18.6638323492      -13.6194912371      -48.9763451578  TIP3      13916           0.0000000000
     64000     14108  TIP3      H2            -18.2708253058      -13.7847315485      -50.4043076504  TIP3      13916           0.0000000000
     64001     14109  TIP3      OH2           -24.2682742979      -11.3979568448      -50.1526354603  TIP3      13917           0.0000000000
     64002     14109  TIP3      H1            -24.1004369041      -12.3568355859      -50.1477898617  TIP3      13917           0.0000000000
     64003     14109  TIP3      H2            -24.3708109355      -11.2579401177      -51.1138822660  TIP3      13917           0.0000000000
     64004     14110  TIP3      OH2           -31.1668137162      -13.3065753089      -52.9354250681  TIP3      13918           0.0000000000
     64005     14110  TIP3      H1            -31.0218000706      -12.4737003575      -53.4216869722  TIP3      13918           0.0000000000
     64006     14110  TIP3      H2            -31.5272786732      -13.8930856412      -53.6210253858  TIP3      13918           0.0000000000
     64007     14111  TIP3      OH2           -23.4192551219      -13.2330134228      -54.5663250467  TIP3      13919           0.0000000000
     64008     14111  TIP3      H1            -22.7680428613      -13.5460616192      -53.8966518327  TIP3      13919           0.0000000000
     64009     14111  TIP3      H2            -22.8546059868      -12.6522177303      -55.0979468714  TIP3      13919           0.0000000000
     64010     14112  TIP3      OH2           -34.5401466678      -10.9739427816      -52.2652820200  TIP3      13920           0.0000000000
     64011     14112  TIP3      H1            -33.8287729477      -11.4460054640      -51.7837992464  TIP3      13920           0.0000000000
     64012     14112  TIP3      H2            -34.3857249728      -11.2615205630      -53.1660739758  TIP3      13920           0.0000000000
     64013     14113  TIP3      OH2           -29.3742095657       -9.3431855721      -52.8517370168  TIP3      13921           0.0000000000
     64014     14113  TIP3      H1            -28.6941588347       -9.9298664938      -52.4837231502  TIP3      13921           0.0000000000
     64015     14113  TIP3      H2            -29.8792546029       -9.9901014047      -53.3819619097  TIP3      13921           0.0000000000
     64016     14114  TIP3      OH2           -18.3986331858      -12.8020858061      -47.4653098940  TIP3      13922           0.0000000000
     64017     14114  TIP3      H1            -19.0032881433      -12.0360009151      -47.5778619680  TIP3      13922           0.0000000000
     64018     14114  TIP3      H2            -18.3648226377      -12.8816377882      -46.5054992557  TIP3      13922           0.0000000000
     64019     14115  TIP3      OH2           -32.2042062856      -14.4081554361      -48.9023598470  TIP3      13923           0.0000000000
     64020     14115  TIP3      H1            -32.5144419351      -13.8391116799      -49.6378358332  TIP3      13923           0.0000000000
     64021     14115  TIP3      H2            -32.8890596534      -14.1872759863      -48.2216537379  TIP3      13923           0.0000000000
     64022     14116  TIP3      OH2           -24.9574879191       -4.9317117774      -55.3525982865  TIP3      13924           0.0000000000
     64023     14116  TIP3      H1            -25.2200463443       -5.2025092836      -56.2420028408  TIP3      13924           0.0000000000
     64024     14116  TIP3      H2            -25.2638423619       -3.9968584829      -55.3014184207  TIP3      13924           0.0000000000
     64025     14117  TIP3      OH2           -29.7074733354       -6.7659487882      -48.6589948454  TIP3      13925           0.0000000000
     64026     14117  TIP3      H1            -30.4263036667       -6.1318230166      -48.4408270245  TIP3      13925           0.0000000000
     64027     14117  TIP3      H2            -29.0137046562       -6.1600596155      -48.9543657011  TIP3      13925           0.0000000000
     64028     14118  TIP3      OH2           -21.6041902059      -13.8813799520      -52.5753484524  TIP3      13926           0.0000000000
     64029     14118  TIP3      H1            -21.8258372370      -14.6507108183      -52.0429660019  TIP3      13926           0.0000000000
     64030     14118  TIP3      H2            -20.9342193514      -13.4464214902      -52.0207806403  TIP3      13926           0.0000000000
     64031     14119  TIP3      OH2           -32.7007291865      -12.5695719434      -50.8585067704  TIP3      13927           0.0000000000
     64032     14119  TIP3      H1            -32.0826280965      -11.8709053190      -50.5339338303  TIP3      13927           0.0000000000
     64033     14119  TIP3      H2            -32.1444137272      -12.9629250548      -51.5798250965  TIP3      13927           0.0000000000
     64034     14120  TIP3      OH2           -31.2961251818       -4.7769298443      -47.8547254224  TIP3      13928           0.0000000000
     64035     14120  TIP3      H1            -31.3376124637       -3.8552220737      -48.1750146043  TIP3      13928           0.0000000000
     64036     14120  TIP3      H2            -32.1744858025       -4.8546133658      -47.4096613690  TIP3      13928           0.0000000000
     64037     14121  TIP3      OH2           -35.3102547453       -5.0914079858      -57.0843038768  TIP3      13929           0.0000000000
     64038     14121  TIP3      H1            -35.4411715704       -4.7701664022      -57.9863741501  TIP3      13929           0.0000000000
     64039     14121  TIP3      H2            -35.1172475147       -4.2928924642      -56.5653049035  TIP3      13929           0.0000000000
     64040     14122  TIP3      OH2           -21.5970640223       -3.4792369300      -50.2865246581  TIP3      13930           0.0000000000
     64041     14122  TIP3      H1            -22.5646874336       -3.3679528578      -50.1677877009  TIP3      13930           0.0000000000
     64042     14122  TIP3      H2            -21.3269310902       -2.5640375006      -50.4904266870  TIP3      13930           0.0000000000
     64043     14123  TIP3      OH2           -21.2757562001      -15.1981059852      -48.8975304883  TIP3      13931           0.0000000000
     64044     14123  TIP3      H1            -21.9988180160      -14.5631406420      -48.9912434667  TIP3      13931           0.0000000000
     64045     14123  TIP3      H2            -20.5613856690      -14.7807338955      -49.4192263772  TIP3      13931           0.0000000000
     64046     14124  TIP3      OH2           -28.3049029587      -17.0696101213      -51.4393282438  TIP3      13932           0.0000000000
     64047     14124  TIP3      H1            -28.4368481546      -18.0349504948      -51.5085198515  TIP3      13932           0.0000000000
     64048     14124  TIP3      H2            -29.1847963802      -16.7712483341      -51.1270205571  TIP3      13932           0.0000000000
     64049     14125  TIP3      OH2           -23.3340973619       -1.6945682792      -53.7005847128  TIP3      13933           0.0000000000
     64050     14125  TIP3      H1            -22.9082540823       -2.4153956274      -54.2087767199  TIP3      13933           0.0000000000
     64051     14125  TIP3      H2            -22.9007937962       -0.9064984670      -54.0915744481  TIP3      13933           0.0000000000
     64052     14126  TIP3      OH2           -22.1206744633       -3.7696772966      -55.1795599777  TIP3      13934           0.0000000000
     64053     14126  TIP3      H1            -22.4245183780       -4.4658465049      -55.7835938713  TIP3      13934           0.0000000000
     64054     14126  TIP3      H2            -22.0892479300       -4.2604481415      -54.3388241662  TIP3      13934           0.0000000000
     64055     14127  TIP3      OH2           -20.5097263202       -5.1714829051      -46.6876965926  TIP3      13935           0.0000000000
     64056     14127  TIP3      H1            -20.3610668057       -5.8268780146      -47.4051388557  TIP3      13935           0.0000000000
     64057     14127  TIP3      H2            -20.3008781067       -4.3308553132      -47.1330378008  TIP3      13935           0.0000000000
     64058     14128  TIP3      OH2           -26.0173611676       -8.2848230204      -56.9323991685  TIP3      13936           0.0000000000
     64059     14128  TIP3      H1            -26.7148881979       -7.7067444012      -57.3049582891  TIP3      13936           0.0000000000
     64060     14128  TIP3      H2            -25.3016992813       -8.1895551516      -57.5872965987  TIP3      13936           0.0000000000
     64061     14129  TIP3      OH2           -25.9317782400       -9.7082499298      -59.9197055227  TIP3      13937           0.0000000000
     64062     14129  TIP3      H1            -25.2273036403       -9.7318456400      -59.2529454044  TIP3      13937           0.0000000000
     64063     14129  TIP3      H2            -25.6266136528      -10.4309418049      -60.4844894825  TIP3      13937           0.0000000000
     64064     14130  TIP3      OH2           -18.6201584166       -8.8611721574      -48.6440478085  TIP3      13938           0.0000000000
     64065     14130  TIP3      H1            -19.2774951279       -8.1374908187      -48.6053990078  TIP3      13938           0.0000000000
     64066     14130  TIP3      H2            -18.1243942765       -8.6284969034      -49.4502263973  TIP3      13938           0.0000000000
     64067     14131  TIP3      OH2           -22.5520258833       -8.0781682970      -56.0062326892  TIP3      13939           0.0000000000
     64068     14131  TIP3      H1            -23.2985835181       -7.8329401304      -55.4067135613  TIP3      13939           0.0000000000
     64069     14131  TIP3      H2            -22.0855144693       -8.7518473454      -55.4812471213  TIP3      13939           0.0000000000
     64070     14132  TIP3      OH2           -22.6322259683       -9.9089829035      -46.8769516798  TIP3      13940           0.0000000000
     64071     14132  TIP3      H1            -22.6251167870       -9.0890331531      -46.3555585349  TIP3      13940           0.0000000000
     64072     14132  TIP3      H2            -23.2617203979       -9.6175092617      -47.5691211116  TIP3      13940           0.0000000000
     64073     14133  TIP3      OH2           -30.9260714934       -7.3973026993      -54.0856183318  TIP3      13941           0.0000000000
     64074     14133  TIP3      H1            -31.2790364416       -7.7864071562      -54.9287528654  TIP3      13941           0.0000000000
     64075     14133  TIP3      H2            -30.3327627526       -8.1078151221      -53.7573535940  TIP3      13941           0.0000000000
     64076     14134  TIP3      OH2           -29.6293787737       -4.0343677261      -51.4092764277  TIP3      13942           0.0000000000
     64077     14134  TIP3      H1            -29.6330341885       -4.5576896889      -52.2188538220  TIP3      13942           0.0000000000
     64078     14134  TIP3      H2            -28.8468277467       -4.3883370104      -50.9485570351  TIP3      13942           0.0000000000
     64079     14135  TIP3      OH2           -30.5890663713       -8.6717038557      -50.4221841370  TIP3      13943           0.0000000000
     64080     14135  TIP3      H1            -30.0479691868       -8.5526650884      -51.2244115827  TIP3      13943           0.0000000000
     64081     14135  TIP3      H2            -30.2328575706       -7.9914481402      -49.8090510395  TIP3      13943           0.0000000000
     64082     14136  TIP3      OH2           -24.2111185873       -3.0940079037      -49.7199810912  TIP3      13944           0.0000000000
     64083     14136  TIP3      H1            -24.4924693973       -2.4578523420      -49.0572513627  TIP3      13944           0.0000000000
     64084     14136  TIP3      H2            -24.4637789666       -3.9484809245      -49.2952583435  TIP3      13944           0.0000000000
     64085     14137  TIP3      OH2           -29.6682638353       -4.2400384980      -45.7283593324  TIP3      13945           0.0000000000
     64086     14137  TIP3      H1            -30.0829791530       -3.4982636243      -45.2404409477  TIP3      13945           0.0000000000
     64087     14137  TIP3      H2            -30.3378759423       -4.4354737965      -46.4272944194  TIP3      13945           0.0000000000
     64088     14138  TIP3      OH2           -23.6835825669       -8.8697906863      -58.3384763839  TIP3      13946           0.0000000000
     64089     14138  TIP3      H1            -23.1275416289       -8.6972887964      -57.5381916150  TIP3      13946           0.0000000000
     64090     14138  TIP3      H2            -23.2321571062       -8.3762103884      -59.0596521903  TIP3      13946           0.0000000000
     64091     14139  TIP3      OH2           -32.7304832323       -8.0669784020      -46.5479710965  TIP3      13947           0.0000000000
     64092     14139  TIP3      H1            -32.6843251087       -7.3844050609      -45.8560539658  TIP3      13947           0.0000000000
     64093     14139  TIP3      H2            -33.6692768875       -7.9790292567      -46.7840040912  TIP3      13947           0.0000000000
     64094     14140  TIP3      OH2           -25.9725895629       -2.1502737963      -54.8628863523  TIP3      13948           0.0000000000
     64095     14140  TIP3      H1            -25.5405404657       -1.8424383598      -54.0587721625  TIP3      13948           0.0000000000
     64096     14140  TIP3      H2            -26.5292515362       -1.4012152968      -55.1043590596  TIP3      13948           0.0000000000
     64097     14141  TIP3      OH2           -31.4204961218       -2.2163825899      -44.9831488117  TIP3      13949           0.0000000000
     64098     14141  TIP3      H1            -31.4960937618       -2.2963870415      -45.9512408730  TIP3      13949           0.0000000000
     64099     14141  TIP3      H2            -32.3538656808       -2.3408293552      -44.7185122804  TIP3      13949           0.0000000000
     64100     14142  TIP3      OH2           -19.9563269190      -17.1438867191      -58.4268444335  TIP3      13950           0.0000000000
     64101     14142  TIP3      H1            -20.9052338979      -17.0288495097      -58.1930262070  TIP3      13950           0.0000000000
     64102     14142  TIP3      H2            -19.7575316128      -16.3043730150      -58.8763450114  TIP3      13950           0.0000000000
     64103     14143  TIP3      OH2           -31.9333223042       -8.4476655533      -56.4316470998  TIP3      13951           0.0000000000
     64104     14143  TIP3      H1            -32.2220703813       -7.6255670548      -56.9284873785  TIP3      13951           0.0000000000
     64105     14143  TIP3      H2            -32.6397922883       -9.0335879682      -56.6880522240  TIP3      13951           0.0000000000
     64106     14144  TIP3      OH2           -18.8468322759       -2.7885180616      -60.0851787225  TIP3      13952           0.0000000000
     64107     14144  TIP3      H1            -18.6807965113       -1.8456602288      -59.9154474040  TIP3      13952           0.0000000000
     64108     14144  TIP3      H2            -17.9234427582       -3.1016725392      -60.0882617238  TIP3      13952           0.0000000000
     64109     14145  TIP3      OH2           -35.2940632226       -6.0929816100      -47.8271333641  TIP3      13953           0.0000000000
     64110     14145  TIP3      H1            -36.0669220668       -5.9684537169      -48.4192042060  TIP3      13953           0.0000000000
     64111     14145  TIP3      H2            -35.6663161063       -6.8795741144      -47.3653895089  TIP3      13953           0.0000000000
     64112     14146  TIP3      OH2           -35.8262327797       -2.9863580479      -51.0770583636  TIP3      13954           0.0000000000
     64113     14146  TIP3      H1            -35.0066869287       -3.3956884940      -50.7871532555  TIP3      13954           0.0000000000
     64114     14146  TIP3      H2            -36.1157360166       -2.5271492016      -50.2763984529  TIP3      13954           0.0000000000
     64115     14147  TIP3      OH2           -17.8901573046       -2.5230900321      -45.1032950632  TIP3      13955           0.0000000000
     64116     14147  TIP3      H1            -18.0089388580       -3.4819290046      -45.1332685252  TIP3      13955           0.0000000000
     64117     14147  TIP3      H2            -18.7643293155       -2.2746698483      -44.7199074575  TIP3      13955           0.0000000000
     64118     14148  TIP3      OH2           -26.9347983040       -2.9846699600      -46.2439185956  TIP3      13956           0.0000000000
     64119     14148  TIP3      H1            -26.8761565040       -2.1418132431      -45.7357668252  TIP3      13956           0.0000000000
     64120     14148  TIP3      H2            -27.8079281088       -3.3430090744      -45.9929187072  TIP3      13956           0.0000000000
     64121     14149  TIP3      OH2           -26.4899507390        0.7593066189      -56.4540767258  TIP3      13957           0.0000000000
     64122     14149  TIP3      H1            -26.6015791441        0.6791600622      -57.4191702548  TIP3      13957           0.0000000000
     64123     14149  TIP3      H2            -26.4878306608        1.7216742246      -56.2980981326  TIP3      13957           0.0000000000
     64124     14150  TIP3      OH2           -32.8711752376       -0.3433806504      -54.6261061734  TIP3      13958           0.0000000000
     64125     14150  TIP3      H1            -32.7197139607       -0.7644683066      -53.7525245757  TIP3      13958           0.0000000000
     64126     14150  TIP3      H2            -33.6934088930       -0.7920338332      -54.8772637141  TIP3      13958           0.0000000000
     64127     14151  TIP3      OH2           -23.4365592203       -0.0276001328      -59.4702390091  TIP3      13959           0.0000000000
     64128     14151  TIP3      H1            -22.9823495071       -0.7864010807      -59.9046949514  TIP3      13959           0.0000000000
     64129     14151  TIP3      H2            -23.3977304985       -0.2896204319      -58.5267789280  TIP3      13959           0.0000000000
     64130     14152  TIP3      OH2           -23.7445526331       -0.0937646405      -56.6968390210  TIP3      13960           0.0000000000
     64131     14152  TIP3      H1            -24.7050867464       -0.0182491572      -56.5249290762  TIP3      13960           0.0000000000
     64132     14152  TIP3      H2            -23.5087700934       -0.8354230847      -56.1181502416  TIP3      13960           0.0000000000
     64133     14153  TIP3      OH2           -20.7446730939      -11.0563748281      -44.6368148569  TIP3      13961           0.0000000000
     64134     14153  TIP3      H1            -21.2203601898      -10.6054568297      -45.3533837649  TIP3      13961           0.0000000000
     64135     14153  TIP3      H2            -20.7596328575      -11.9757883565      -44.9416057173  TIP3      13961           0.0000000000
     64136     14154  TIP3      OH2           -33.5890397315       -4.5629772046      -46.5641978079  TIP3      13962           0.0000000000
     64137     14154  TIP3      H1            -33.4057588618       -5.0120219273      -45.7163942179  TIP3      13962           0.0000000000
     64138     14154  TIP3      H2            -34.4162479706       -5.0120985032      -46.8504304408  TIP3      13962           0.0000000000
     64139     14155  TIP3      OH2           -30.9185503432      -16.1525026730      -50.6971994928  TIP3      13963           0.0000000000
     64140     14155  TIP3      H1            -31.8223302621      -16.2857243268      -51.0547165631  TIP3      13963           0.0000000000
     64141     14155  TIP3      H2            -31.0597336146      -15.3359740587      -50.1911382738  TIP3      13963           0.0000000000
     64142     14156  TIP3      OH2           -26.2801187291      -16.5077633086      -47.3219946750  TIP3      13964           0.0000000000
     64143     14156  TIP3      H1            -25.8873658649      -16.9288225652      -46.5345364737  TIP3      13964           0.0000000000
     64144     14156  TIP3      H2            -27.2521241319      -16.6227647597      -47.1746299631  TIP3      13964           0.0000000000
     64145     14157  TIP3      OH2           -22.9925902233      -12.6588117126      -46.4186387411  TIP3      13965           0.0000000000
     64146     14157  TIP3      H1            -23.5580578085      -12.8738692133      -45.6378476005  TIP3      13965           0.0000000000
     64147     14157  TIP3      H2            -23.1778028260      -11.7318622367      -46.6477909189  TIP3      13965           0.0000000000
     64148     14158  TIP3      OH2           -22.2351938415       -7.8401348024      -60.5234694130  TIP3      13966           0.0000000000
     64149     14158  TIP3      H1            -22.2566109511       -8.0324851161      -61.4893184033  TIP3      13966           0.0000000000
     64150     14158  TIP3      H2            -21.3761316790       -7.3974218944      -60.4711150497  TIP3      13966           0.0000000000
     64151     14159  TIP3      OH2           -26.6401690513      -13.9192428197      -60.0119024664  TIP3      13967           0.0000000000
     64152     14159  TIP3      H1            -26.9565789031      -13.9786022338      -59.0932939104  TIP3      13967           0.0000000000
     64153     14159  TIP3      H2            -26.9519450008      -14.7941471112      -60.3183291833  TIP3      13967           0.0000000000
     64154     14160  TIP3      OH2           -30.8456156224      -11.2008889530      -49.4455037485  TIP3      13968           0.0000000000
     64155     14160  TIP3      H1            -31.5636159762      -11.1995826729      -48.7814410106  TIP3      13968           0.0000000000
     64156     14160  TIP3      H2            -30.8565007157      -10.2849080351      -49.7993085241  TIP3      13968           0.0000000000
     64157     14161  TIP3      OH2           -30.8350004783      -11.0945906270      -54.5613942574  TIP3      13969           0.0000000000
     64158     14161  TIP3      H1            -31.7801753713      -11.2989689369      -54.7049974575  TIP3      13969           0.0000000000
     64159     14161  TIP3      H2            -30.4441020141      -11.3671082515      -55.4085236602  TIP3      13969           0.0000000000
     64160     14162  TIP3      OH2           -25.3420180598      -10.5771957019      -55.7852284507  TIP3      13970           0.0000000000
     64161     14162  TIP3      H1            -25.7367118716       -9.7551112514      -56.1574568267  TIP3      13970           0.0000000000
     64162     14162  TIP3      H2            -24.6556363520      -10.7480775169      -56.4519513484  TIP3      13970           0.0000000000
     64163     14163  TIP3      OH2           -26.2881239494      -10.3700242119      -44.3578927666  TIP3      13971           0.0000000000
     64164     14163  TIP3      H1            -26.8133652054      -11.1458744865      -44.0470562756  TIP3      13971           0.0000000000
     64165     14163  TIP3      H2            -25.4501520747      -10.4910361035      -43.8811186840  TIP3      13971           0.0000000000
     64166     14164  TIP3      OH2           -24.3046437260      -11.0890942093      -52.9466365342  TIP3      13972           0.0000000000
     64167     14164  TIP3      H1            -24.5918994717      -10.5265362128      -53.6874854532  TIP3      13972           0.0000000000
     64168     14164  TIP3      H2            -24.2113298084      -11.9387441145      -53.4173091256  TIP3      13972           0.0000000000
     64169     14165  TIP3      OH2           -33.1841008784      -10.9648296772      -47.7466801530  TIP3      13973           0.0000000000
     64170     14165  TIP3      H1            -33.1673125742      -10.5418087330      -46.8730009258  TIP3      13973           0.0000000000
     64171     14165  TIP3      H2            -33.6743534275      -11.7773124002      -47.5533812600  TIP3      13973           0.0000000000
     64172     14166  TIP3      OH2           -29.8245548063      -13.5328927616      -60.8727056909  TIP3      13974           0.0000000000
     64173     14166  TIP3      H1            -30.2810061808      -13.9768115310      -60.1384738188  TIP3      13974           0.0000000000
     64174     14166  TIP3      H2            -30.5293350691      -13.1421386004      -61.4095980955  TIP3      13974           0.0000000000
     64175     14167  TIP3      OH2           -36.0384703619      -13.4439097356      -53.9510287431  TIP3      13975           0.0000000000
     64176     14167  TIP3      H1            -35.8691397719      -13.8476417626      -53.0692989499  TIP3      13975           0.0000000000
     64177     14167  TIP3      H2            -36.1752819701      -14.2573509432      -54.4631689153  TIP3      13975           0.0000000000
     64178     14168  TIP3      OH2           -35.2463847285      -12.8663302362      -58.3896751087  TIP3      13976           0.0000000000
     64179     14168  TIP3      H1            -34.8480822789      -12.3627499744      -59.1353221197  TIP3      13976           0.0000000000
     64180     14168  TIP3      H2            -36.1087193162      -12.4550414581      -58.2570653035  TIP3      13976           0.0000000000
     64181     14169  TIP3      OH2           -25.1119581493       -9.5066961435      -48.3960816245  TIP3      13977           0.0000000000
     64182     14169  TIP3      H1            -24.7284227581      -10.1931793210      -48.9791659647  TIP3      13977           0.0000000000
     64183     14169  TIP3      H2            -25.5783692252      -10.0338506870      -47.7229208471  TIP3      13977           0.0000000000
     64184     14170  TIP3      OH2           -28.3024301911      -13.5250625484      -53.5566088132  TIP3      13978           0.0000000000
     64185     14170  TIP3      H1            -29.2286450203      -13.5249238906      -53.2491307189  TIP3      13978           0.0000000000
     64186     14170  TIP3      H2            -27.8168703209      -13.6981846468      -52.7376945062  TIP3      13978           0.0000000000
     64187     14171  TIP3      OH2           -33.4324383347      -11.9636550143      -54.8265071515  TIP3      13979           0.0000000000
     64188     14171  TIP3      H1            -34.3881210821      -11.8293460079      -55.0196485433  TIP3      13979           0.0000000000
     64189     14171  TIP3      H2            -33.2761497488      -12.9125202975      -54.9769354233  TIP3      13979           0.0000000000
     64190     14172  TIP3      OH2           -29.8919301716      -11.9326542301      -57.0816182186  TIP3      13980           0.0000000000
     64191     14172  TIP3      H1            -28.9281105119      -11.8331192029      -56.9016727808  TIP3      13980           0.0000000000
     64192     14172  TIP3      H2            -30.0837103696      -11.2201033076      -57.7229238324  TIP3      13980           0.0000000000
     64193     14173  TIP3      OH2           -23.9032629145      -14.2931626057      -50.3209500204  TIP3      13981           0.0000000000
     64194     14173  TIP3      H1            -24.5848595511      -14.2444027787      -49.6147206042  TIP3      13981           0.0000000000
     64195     14173  TIP3      H2            -24.4124581989      -14.5490314794      -51.1027834102  TIP3      13981           0.0000000000
     64196     14174  TIP3      OH2           -31.1192972791      -10.8579618453      -59.4593031094  TIP3      13982           0.0000000000
     64197     14174  TIP3      H1            -31.6651545977      -11.0831271052      -60.2292482178  TIP3      13982           0.0000000000
     64198     14174  TIP3      H2            -30.3394888976      -10.5086499380      -59.9318371449  TIP3      13982           0.0000000000
     64199     14175  TIP3      OH2           -20.7027370658        1.3478934051      -43.9932522838  TIP3      13983           0.0000000000
     64200     14175  TIP3      H1            -20.4361495132        1.7317887325      -44.8475659642  TIP3      13983           0.0000000000
     64201     14175  TIP3      H2            -19.9786462176        1.6680863282      -43.4344724439  TIP3      13983           0.0000000000
     64202     14176  TIP3      OH2           -33.0477281520       -6.1930183585      -44.4115041555  TIP3      13984           0.0000000000
     64203     14176  TIP3      H1            -32.3058458534       -5.9481235484      -43.8248245742  TIP3      13984           0.0000000000
     64204     14176  TIP3      H2            -33.7956961351       -6.0815132899      -43.8009689689  TIP3      13984           0.0000000000
     64205     14177  TIP3      OH2           -27.0325025356      -10.7749648313      -51.6668416515  TIP3      13985           0.0000000000
     64206     14177  TIP3      H1            -26.4195709435      -11.3025353477      -52.1915175625  TIP3      13985           0.0000000000
     64207     14177  TIP3      H2            -27.1712146648      -11.3214431733      -50.8817604899  TIP3      13985           0.0000000000
     64208     14178  TIP3      OH2           -32.0841912054      -14.5905799221      -55.3611740742  TIP3      13986           0.0000000000
     64209     14178  TIP3      H1            -32.3282849565      -15.5276471915      -55.2017842915  TIP3      13986           0.0000000000
     64210     14178  TIP3      H2            -31.2015157647      -14.7247528343      -55.7386214297  TIP3      13986           0.0000000000
     64211     14179  TIP3      OH2           -28.3872197083      -12.4454019363      -49.2506841352  TIP3      13987           0.0000000000
     64212     14179  TIP3      H1            -29.2124837380      -11.9262032544      -49.1635315551  TIP3      13987           0.0000000000
     64213     14179  TIP3      H2            -27.8324998115      -12.0925652802      -48.5300102811  TIP3      13987           0.0000000000
     64214     14180  TIP3      OH2           -27.7924073542       -6.2455409716      -57.5440480339  TIP3      13988           0.0000000000
     64215     14180  TIP3      H1            -28.6032525190       -6.6867025092      -57.9028021884  TIP3      13988           0.0000000000
     64216     14180  TIP3      H2            -28.0385763570       -6.0940274550      -56.6088923041  TIP3      13988           0.0000000000
     64217     14181  TIP3      OH2           -20.6101302598       -7.0186121161      -48.7515515325  TIP3      13989           0.0000000000
     64218     14181  TIP3      H1            -20.0482759842       -6.5350567537      -49.3842075499  TIP3      13989           0.0000000000
     64219     14181  TIP3      H2            -21.4709479697       -6.9741442412      -49.2148363218  TIP3      13989           0.0000000000
     64220     14182  TIP3      OH2           -23.9715482160      -13.4087720097      -59.3776410282  TIP3      13990           0.0000000000
     64221     14182  TIP3      H1            -24.9215151845      -13.2535777486      -59.5150162275  TIP3      13990           0.0000000000
     64222     14182  TIP3      H2            -23.6292698396      -12.5569809439      -59.0291531047  TIP3      13990           0.0000000000
     64223     14183  TIP3      OH2           -26.3056229843       -5.9504596721      -46.3088446664  TIP3      13991           0.0000000000
     64224     14183  TIP3      H1            -26.6534310680       -6.3810596477      -45.5209786089  TIP3      13991           0.0000000000
     64225     14183  TIP3      H2            -26.5630915868       -5.0294740678      -46.2021278147  TIP3      13991           0.0000000000
     64226     14184  TIP3      OH2           -23.2325330935      -11.4856896039      -57.7557291422  TIP3      13992           0.0000000000
     64227     14184  TIP3      H1            -22.3510354076      -11.6199231080      -57.3465119976  TIP3      13992           0.0000000000
     64228     14184  TIP3      H2            -23.1269377325      -10.6653435625      -58.2656988568  TIP3      13992           0.0000000000
     64229     14185  TIP3      OH2           -32.6964923663       -6.8333402112      -51.7726158999  TIP3      13993           0.0000000000
     64230     14185  TIP3      H1            -32.0246469053       -6.9108287176      -52.4724444803  TIP3      13993           0.0000000000
     64231     14185  TIP3      H2            -32.5943162554       -7.6677622579      -51.2887821446  TIP3      13993           0.0000000000
     64232     14186  TIP3      OH2           -25.6913488573       -4.7541089026      -58.5057229241  TIP3      13994           0.0000000000
     64233     14186  TIP3      H1            -26.0541052251       -3.9075281010      -58.1746211725  TIP3      13994           0.0000000000
     64234     14186  TIP3      H2            -26.4327992096       -5.3695662559      -58.3102205976  TIP3      13994           0.0000000000
     64235     14187  TIP3      OH2           -35.7301328021       -8.4444665338      -46.4904982518  TIP3      13995           0.0000000000
     64236     14187  TIP3      H1            -35.4706360727       -8.8847937847      -45.6580241176  TIP3      13995           0.0000000000
     64237     14187  TIP3      H2            -36.3177397288       -9.0851449774      -46.9151291504  TIP3      13995           0.0000000000
     64238     14188  TIP3      OH2           -28.6855092359       -8.8611580713      -44.3178058829  TIP3      13996           0.0000000000
     64239     14188  TIP3      H1            -29.0057676714       -9.1731456964      -45.1765701615  TIP3      13996           0.0000000000
     64240     14188  TIP3      H2            -27.7635611641       -9.1882339233      -44.3185335231  TIP3      13996           0.0000000000
     64241     14189  TIP3      OH2           -23.9991922852       -3.5280473411      -46.3607481342  TIP3      13997           0.0000000000
     64242     14189  TIP3      H1            -24.9244470089       -3.3499914820      -46.5951434704  TIP3      13997           0.0000000000
     64243     14189  TIP3      H2            -24.0329030123       -3.2348195892      -45.4301920705  TIP3      13997           0.0000000000
     64244     14190  TIP3      OH2           -18.3273999263      -11.3568333046      -57.9793337923  TIP3      13998           0.0000000000
     64245     14190  TIP3      H1            -18.9002863270      -11.6369477320      -58.7170283416  TIP3      13998           0.0000000000
     64246     14190  TIP3      H2            -18.2547400158      -10.4067246336      -58.2261005272  TIP3      13998           0.0000000000
     64247     14191  TIP3      OH2           -18.3450355375       -5.4848238902      -45.1691256749  TIP3      13999           0.0000000000
     64248     14191  TIP3      H1            -19.2378838178       -5.2653096975      -45.5339423198  TIP3      13999           0.0000000000
     64249     14191  TIP3      H2            -17.7993172091       -5.5378838475      -45.9808951977  TIP3      13999           0.0000000000
     64250     14192  TIP3      OH2           -20.0784180830       -2.5198045041      -57.5820534632  TIP3      14000           0.0000000000
     64251     14192  TIP3      H1            -20.4084843379       -3.3572841961      -57.2322697924  TIP3      14000           0.0000000000
     64252     14192  TIP3      H2            -19.7224592502       -2.7393367310      -58.4587624233  TIP3      14000           0.0000000000
     64253     14193  TIP3      OH2           -22.8334967547       -7.7049768907      -50.4686616675  TIP3      14001           0.0000000000
     64254     14193  TIP3      H1            -23.7742059209       -7.9124564524      -50.5812600900  TIP3      14001           0.0000000000
     64255     14193  TIP3      H2            -22.4029302977       -8.4630182057      -50.9068529688  TIP3      14001           0.0000000000
     64256     14194  TIP3      OH2           -30.3261051385       -3.3655564332      -54.3545003240  TIP3      14002           0.0000000000
     64257     14194  TIP3      H1            -29.8214879537       -2.5676158596      -54.5780038460  TIP3      14002           0.0000000000
     64258     14194  TIP3      H2            -31.2054311745       -3.1410045600      -54.6908881170  TIP3      14002           0.0000000000
     64259     14195  TIP3      OH2           -34.6688658024       -8.6715705994      -59.6297596082  TIP3      14003           0.0000000000
     64260     14195  TIP3      H1            -33.9620343796       -7.9506665691      -59.5565582549  TIP3      14003           0.0000000000
     64261     14195  TIP3      H2            -35.4652882848       -8.1474301866      -59.5233884007  TIP3      14003           0.0000000000
     64262     14196  TIP3      OH2           -28.9040181673       -5.7035947917      -54.8641463810  TIP3      14004           0.0000000000
     64263     14196  TIP3      H1            -29.2181420541       -4.7862233830      -54.7587873946  TIP3      14004           0.0000000000
     64264     14196  TIP3      H2            -29.6158256693       -6.2016355856      -54.4123632677  TIP3      14004           0.0000000000
     64265     14197  TIP3      OH2           -28.4393520886       -1.5273247141      -48.4449328030  TIP3      14005           0.0000000000
     64266     14197  TIP3      H1            -27.9920796280       -0.7156640024      -48.7279606535  TIP3      14005           0.0000000000
     64267     14197  TIP3      H2            -27.8295879119       -1.8636313095      -47.7643386478  TIP3      14005           0.0000000000
     64268     14198  TIP3      OH2           -30.2259843156       -0.7188288188      -55.3282325499  TIP3      14006           0.0000000000
     64269     14198  TIP3      H1            -31.1882079693       -0.5729037036      -55.1930871904  TIP3      14006           0.0000000000
     64270     14198  TIP3      H2            -29.8586161960        0.1174529050      -54.9841535251  TIP3      14006           0.0000000000
     64271     14199  TIP3      OH2           -24.9320661544       -5.5295534238      -48.8250190782  TIP3      14007           0.0000000000
     64272     14199  TIP3      H1            -25.2511068245       -5.7183788125      -47.9178786714  TIP3      14007           0.0000000000
     64273     14199  TIP3      H2            -24.2874029058       -6.2360738476      -48.9906754365  TIP3      14007           0.0000000000
     64274     14200  TIP3      OH2           -22.5908055920       -4.4477837399      -59.7354679611  TIP3      14008           0.0000000000
     64275     14200  TIP3      H1            -22.2949564709       -4.9216942341      -58.9313000668  TIP3      14008           0.0000000000
     64276     14200  TIP3      H2            -23.5463665398       -4.6366269866      -59.6614430658  TIP3      14008           0.0000000000
     64277     14201  TIP3      OH2           -22.1069828177       -0.9436523443      -46.3363069925  TIP3      14009           0.0000000000
     64278     14201  TIP3      H1            -22.8001870110       -1.4369396858      -46.8144114292  TIP3      14009           0.0000000000
     64279     14201  TIP3      H2            -21.9254129753       -0.2429963976      -46.9975239436  TIP3      14009           0.0000000000
     64280     14202  TIP3      OH2           -18.1246026867       -0.0970929105      -59.4778770785  TIP3      14010           0.0000000000
     64281     14202  TIP3      H1            -17.4366418729        0.5645097240      -59.6870950106  TIP3      14010           0.0000000000
     64282     14202  TIP3      H2            -18.8398941023        0.5141610582      -59.1931591013  TIP3      14010           0.0000000000
     64283     14203  TIP3      OH2           -34.0465134604      -13.6850454585      -46.9787948192  TIP3      14011           0.0000000000
     64284     14203  TIP3      H1            -34.9347883816      -13.3132215153      -46.8950719718  TIP3      14011           0.0000000000
     64285     14203  TIP3      H2            -34.1618404731      -14.5229238788      -46.4995205345  TIP3      14011           0.0000000000
     64286     14204  TIP3      OH2           -21.8101775817       -5.8147485446      -57.4926331645  TIP3      14012           0.0000000000
     64287     14204  TIP3      H1            -22.0518401365       -6.6007550358      -56.9552069527  TIP3      14012           0.0000000000
     64288     14204  TIP3      H2            -20.8576070882       -5.7725687814      -57.3132219852  TIP3      14012           0.0000000000
     64289     14205  TIP3      OH2           -34.2662567472       -1.8534441866      -48.5637192094  TIP3      14013           0.0000000000
     64290     14205  TIP3      H1            -34.1489103161       -2.8122979449      -48.5055469031  TIP3      14013           0.0000000000
     64291     14205  TIP3      H2            -34.1825669075       -1.6212650478      -47.6331255474  TIP3      14013           0.0000000000
     64292     14206  TIP3      OH2           -28.4022381595       -3.3598754071      -61.2185506115  TIP3      14014           0.0000000000
     64293     14206  TIP3      H1            -28.3908779257       -4.1273883931      -61.8195940450  TIP3      14014           0.0000000000
     64294     14206  TIP3      H2            -28.9266226406       -3.8071887368      -60.5072352721  TIP3      14014           0.0000000000
     64295     14207  TIP3      OH2           -29.6914264571       -3.8331047918      -58.7727672663  TIP3      14015           0.0000000000
     64296     14207  TIP3      H1            -29.4369007219       -4.3770846833      -58.0195453425  TIP3      14015           0.0000000000
     64297     14207  TIP3      H2            -29.5937509442       -2.9138712680      -58.4480893599  TIP3      14015           0.0000000000
     64298     14208  TIP3      OH2           -33.1622419972       -6.5439688610      -57.7326095867  TIP3      14016           0.0000000000
     64299     14208  TIP3      H1            -34.0476555825       -6.1423235239      -57.6657859097  TIP3      14016           0.0000000000
     64300     14208  TIP3      H2            -32.7681594215       -6.0697013012      -58.5031247372  TIP3      14016           0.0000000000
     64301     14209  TIP3      OH2           -25.3166162336      -13.9164265277      -47.9798399984  TIP3      14017           0.0000000000
     64302     14209  TIP3      H1            -24.6030136073      -13.8556271646      -47.3368288620  TIP3      14017           0.0000000000
     64303     14209  TIP3      H2            -25.6997121755      -14.7928266136      -47.7762094545  TIP3      14017           0.0000000000
     64304     14210  TIP3      OH2           -24.5761796084      -14.3483193748      -56.8951392019  TIP3      14018           0.0000000000
     64305     14210  TIP3      H1            -24.3414266412      -13.8855804543      -57.7242591976  TIP3      14018           0.0000000000
     64306     14210  TIP3      H2            -23.9962815256      -13.9061095888      -56.2619066934  TIP3      14018           0.0000000000
     64307     14211  TIP3      OH2           -26.8616255747       -2.1626958231      -58.0588245154  TIP3      14019           0.0000000000
     64308     14211  TIP3      H1            -27.7083219408       -1.6725024071      -58.0311584027  TIP3      14019           0.0000000000
     64309     14211  TIP3      H2            -26.3415524796       -1.6321546259      -58.6790107909  TIP3      14019           0.0000000000
     64310     14212  TIP3      OH2           -27.3376972526      -12.5974787364      -56.0780996118  TIP3      14020           0.0000000000
     64311     14212  TIP3      H1            -26.5619505445      -12.0069809649      -56.0287621463  TIP3      14020           0.0000000000
     64312     14212  TIP3      H2            -27.6100480538      -12.7221333569      -55.1482060067  TIP3      14020           0.0000000000
     64313     14213  TIP3      OH2           -26.7905421641      -11.5709253999      -46.8824310362  TIP3      14021           0.0000000000
     64314     14213  TIP3      H1            -26.7142098507      -11.0128941884      -46.0851655198  TIP3      14021           0.0000000000
     64315     14213  TIP3      H2            -26.1260408623      -12.2648230293      -46.7882326114  TIP3      14021           0.0000000000
     64316     14214  TIP3      OH2           -26.4949438672      -15.5397969776      -55.1968504942  TIP3      14022           0.0000000000
     64317     14214  TIP3      H1            -26.8160623608      -14.8932627774      -54.5451223766  TIP3      14022           0.0000000000
     64318     14214  TIP3      H2            -25.7985271426      -14.9928793449      -55.6352585398  TIP3      14022           0.0000000000
     64319     14215  TIP3      OH2           -29.4816325783       -1.1740537808      -58.0649090457  TIP3      14023           0.0000000000
     64320     14215  TIP3      H1            -29.3890512578       -0.3629524182      -58.6243546559  TIP3      14023           0.0000000000
     64321     14215  TIP3      H2            -29.7554794143       -0.7979230336      -57.1972487741  TIP3      14023           0.0000000000
     64322     14216  TIP3      OH2           -30.8694489249      -14.4091303936      -58.4365346161  TIP3      14024           0.0000000000
     64323     14216  TIP3      H1            -30.7950389152      -13.5020353052      -58.1007346345  TIP3      14024           0.0000000000
     64324     14216  TIP3      H2            -29.9489034259      -14.6985078524      -58.2390771755  TIP3      14024           0.0000000000
     64325     14217  TIP3      OH2           -20.6114676673      -13.7015183000      -46.0392586682  TIP3      14025           0.0000000000
     64326     14217  TIP3      H1            -21.5386654130      -13.3852413320      -46.1679603377  TIP3      14025           0.0000000000
     64327     14217  TIP3      H2            -20.3103867712      -13.7150013498      -46.9631592801  TIP3      14025           0.0000000000
     64328     14218  TIP3      OH2           -21.9931160074       -9.9136343349      -52.0358514895  TIP3      14026           0.0000000000
     64329     14218  TIP3      H1            -22.8195170632      -10.3582475995      -52.3072603067  TIP3      14026           0.0000000000
     64330     14218  TIP3      H2            -21.5155492189      -10.6002476945      -51.5171514361  TIP3      14026           0.0000000000
     64331     14219  TIP3      OH2           -32.6476875019       -3.8654944783      -59.4746674417  TIP3      14027           0.0000000000
     64332     14219  TIP3      H1            -31.9041328320       -3.3573032117      -59.1232631624  TIP3      14027           0.0000000000
     64333     14219  TIP3      H2            -32.1548117683       -4.4848011256      -60.0558868249  TIP3      14027           0.0000000000
     64334     14220  TIP3      OH2           -34.3387839864      -11.3533207164      -60.2353786776  TIP3      14028           0.0000000000
     64335     14220  TIP3      H1            -34.2278530541      -10.3779380714      -60.1321423982  TIP3      14028           0.0000000000
     64336     14220  TIP3      H2            -35.1775350684      -11.4802890777      -60.7006705386  TIP3      14028           0.0000000000
     64337     14221  TIP3      OH2           -20.9332561913       -0.6520420311      -50.3600268184  TIP3      14029           0.0000000000
     64338     14221  TIP3      H1            -21.0217913169        0.0282213938      -51.0560267151  TIP3      14029           0.0000000000
     64339     14221  TIP3      H2            -19.9691858591       -0.6006621123      -50.1866457233  TIP3      14029           0.0000000000
     64340     14222  TIP3      OH2           -33.4185778562      -16.5475487073      -51.5825285665  TIP3      14030           0.0000000000
     64341     14222  TIP3      H1            -33.6368017819      -16.5070259173      -52.5378895930  TIP3      14030           0.0000000000
     64342     14222  TIP3      H2            -33.8786480698      -17.3708871220      -51.3200223376  TIP3      14030           0.0000000000
     64343     14223  TIP3      OH2           -34.4678436478       -2.6015390797      -55.3866120636  TIP3      14031           0.0000000000
     64344     14223  TIP3      H1            -35.3286957599       -2.1807076344      -55.4482057986  TIP3      14031           0.0000000000
     64345     14223  TIP3      H2            -33.9961948327       -2.1467056530      -56.0996908288  TIP3      14031           0.0000000000
     64346     14224  TIP3      OH2           -34.9745526742        0.0657700023      -44.1360189876  TIP3      14032           0.0000000000
     64347     14224  TIP3      H1            -34.5641679138       -0.1646554002      -43.2881489174  TIP3      14032           0.0000000000
     64348     14224  TIP3      H2            -35.5018117738       -0.7435927853      -44.2930329288  TIP3      14032           0.0000000000
     64349     14225  TIP3      OH2           -30.5948655272       -1.0530139036      -42.5220885730  TIP3      14033           0.0000000000
     64350     14225  TIP3      H1            -29.8366365250       -1.5475949066      -42.1890939857  TIP3      14033           0.0000000000
     64351     14225  TIP3      H2            -30.6238003959       -1.3262832431      -43.4604924095  TIP3      14033           0.0000000000
     64352     14226  TIP3      OH2           -26.4467417883       -1.5146915614      -61.1071186831  TIP3      14034           0.0000000000
     64353     14226  TIP3      H1            -27.1527551400       -2.1709724839      -60.8939975016  TIP3      14034           0.0000000000
     64354     14226  TIP3      H2            -25.7545785506       -2.1367704212      -61.3664442912  TIP3      14034           0.0000000000
     64355     14227  TIP3      OH2           -24.0973831030       -2.6567831162      -43.7670674352  TIP3      14035           0.0000000000
     64356     14227  TIP3      H1            -24.4123948288       -3.5441123971      -43.4924959824  TIP3      14035           0.0000000000
     64357     14227  TIP3      H2            -23.3285465806       -2.5380128132      -43.1747232727  TIP3      14035           0.0000000000
     64358     14228  TIP3      OH2           -21.9078191028       -1.7828047594      -60.9278135641  TIP3      14036           0.0000000000
     64359     14228  TIP3      H1            -21.6119472542       -2.5590393037      -60.4248882171  TIP3      14036           0.0000000000
     64360     14228  TIP3      H2            -21.1454424543       -1.5581148226      -61.4803570039  TIP3      14036           0.0000000000
     64361     14229  TIP3      OH2           -35.4056969261       -6.1830708231      -43.1388882206  TIP3      14037           0.0000000000
     64362     14229  TIP3      H1            -35.1916036352       -7.0788210501      -43.4615158827  TIP3      14037           0.0000000000
     64363     14229  TIP3      H2            -36.1225444476       -5.9091009370      -43.7203457714  TIP3      14037           0.0000000000
     64364     14230  TIP3      OH2           -30.2230887198       -5.5013166545      -61.1742940038  TIP3      14038           0.0000000000
     64365     14230  TIP3      H1            -30.6990734300       -6.1915342425      -60.6549487878  TIP3      14038           0.0000000000
     64366     14230  TIP3      H2            -30.1142819573       -6.0273987901      -61.9696984833  TIP3      14038           0.0000000000
     64367     14231  TIP3      OH2           -28.6533788362       -6.1979609652      -43.7435254250  TIP3      14039           0.0000000000
     64368     14231  TIP3      H1            -28.9879262372       -5.8859697375      -44.6069761593  TIP3      14039           0.0000000000
     64369     14231  TIP3      H2            -28.5797590146       -7.1764834824      -43.8519400772  TIP3      14039           0.0000000000
     64370     14232  TIP3      OH2           -25.5746334972       -4.7348704603      -61.3275880684  TIP3      14040           0.0000000000
     64371     14232  TIP3      H1            -25.8651951352       -4.6517807690      -60.4069687852  TIP3      14040           0.0000000000
     64372     14232  TIP3      H2            -25.7866496472       -5.6869960999      -61.4826462348  TIP3      14040           0.0000000000
     64373     14233  TIP3      OH2           -22.9575780498       -6.3396202302      -46.3510250440  TIP3      14041           0.0000000000
     64374     14233  TIP3      H1            -22.1696985328       -5.7568742371      -46.4131408318  TIP3      14041           0.0000000000
     64375     14233  TIP3      H2            -23.6572334117       -5.6716977460      -46.3153613206  TIP3      14041           0.0000000000
     64376     14234  TIP3      OH2           -34.5144096508       -8.9731816565      -43.7569830996  TIP3      14042           0.0000000000
     64377     14234  TIP3      H1            -34.0297254171       -9.8132149111      -43.8399361168  TIP3      14042           0.0000000000
     64378     14234  TIP3      H2            -34.6886219008       -8.9630055210      -42.8033773970  TIP3      14042           0.0000000000
     64379     14235  TIP3      OH2           -29.7348267384       -7.8341584809      -58.6463734204  TIP3      14043           0.0000000000
     64380     14235  TIP3      H1            -30.3280681670       -8.3408012082      -58.0784809498  TIP3      14043           0.0000000000
     64381     14235  TIP3      H2            -29.5424908895       -8.4793393866      -59.3565812846  TIP3      14043           0.0000000000
     64382     14236  TIP3      OH2           -30.5527788959      -10.0189382281      -46.3929723176  TIP3      14044           0.0000000000
     64383     14236  TIP3      H1            -31.1584593617       -9.3064519006      -46.1310956000  TIP3      14044           0.0000000000
     64384     14236  TIP3      H2            -30.1556318117       -9.6483694280      -47.2001347062  TIP3      14044           0.0000000000
     64385     14237  TIP3      OH2           -28.7664747056       -9.6227407833      -60.4793950044  TIP3      14045           0.0000000000
     64386     14237  TIP3      H1            -28.9171654163       -9.6754363709      -61.4416133096  TIP3      14045           0.0000000000
     64387     14237  TIP3      H2            -27.7916393511       -9.5387614192      -60.4142232152  TIP3      14045           0.0000000000
     64388     14238  TIP3      OH2           -25.4769816691       -7.4482657691      -43.0578337878  TIP3      14046           0.0000000000
     64389     14238  TIP3      H1            -24.5201941169       -7.4613555540      -43.1812016633  TIP3      14046           0.0000000000
     64390     14238  TIP3      H2            -25.6485911490       -8.2149787023      -42.4880530058  TIP3      14046           0.0000000000
     64391     14239  TIP3      OH2           -19.4125605902       -7.2829225542      -61.0718217184  TIP3      14047           0.0000000000
     64392     14239  TIP3      H1            -19.6034042153       -7.6628171519      -61.9426189345  TIP3      14047           0.0000000000
     64393     14239  TIP3      H2            -19.3237718605       -6.3199925760      -61.2577671640  TIP3      14047           0.0000000000
     64394     14240  TIP3      OH2           -30.1155929097      -12.6349984386      -45.3367070448  TIP3      14048           0.0000000000
     64395     14240  TIP3      H1            -30.0265874225      -13.3476385651      -45.9947670601  TIP3      14048           0.0000000000
     64396     14240  TIP3      H2            -30.2119938883      -11.8287353619      -45.8844049847  TIP3      14048           0.0000000000
     64397     14241  TIP3      OH2           -29.7370638279      -14.2573994899      -47.7806789486  TIP3      14049           0.0000000000
     64398     14241  TIP3      H1            -29.2274041262      -13.7916272833      -48.4863659817  TIP3      14049           0.0000000000
     64399     14241  TIP3      H2            -30.6314644451      -14.3357659360      -48.1884909226  TIP3      14049           0.0000000000
     64400     14242  TIP3      OH2           -28.2043014216       -8.7681126651      -47.5393117712  TIP3      14050           0.0000000000
     64401     14242  TIP3      H1            -27.4495852248       -8.9329213630      -48.1115768663  TIP3      14050           0.0000000000
     64402     14242  TIP3      H2            -28.5679992903       -7.9340972639      -47.8777792042  TIP3      14050           0.0000000000
     64403     14243  TIP3      OH2           -23.8075558841      -11.0172856422      -42.5790389482  TIP3      14051           0.0000000000
     64404     14243  TIP3      H1            -23.5718409209      -11.9517705932      -42.6703927689  TIP3      14051           0.0000000000
     64405     14243  TIP3      H2            -22.9432977025      -10.5732768376      -42.5462804534  TIP3      14051           0.0000000000
     64406     14244  TIP3      OH2           -22.4664747891       -8.2224066815      -44.4118081844  TIP3      14052           0.0000000000
     64407     14244  TIP3      H1            -22.7175189518       -7.5013546742      -45.0295674592  TIP3      14052           0.0000000000
     64408     14244  TIP3      H2            -21.5079673884       -8.2538151693      -44.6014347960  TIP3      14052           0.0000000000
     64409     14245  TIP3      OH2           -31.7112543234      -11.3749573970      -43.4280652001  TIP3      14053           0.0000000000
     64410     14245  TIP3      H1            -32.4706725957      -11.9775433594      -43.5808193939  TIP3      14053           0.0000000000
     64411     14245  TIP3      H2            -31.0463690840      -11.7577609346      -44.0308714598  TIP3      14053           0.0000000000
     64412     14246  TIP3      OH2           -28.9531596383      -16.8198796791      -47.3951013612  TIP3      14054           0.0000000000
     64413     14246  TIP3      H1            -29.1353980953      -15.8572817984      -47.4908860079  TIP3      14054           0.0000000000
     64414     14246  TIP3      H2            -29.7014354335      -17.1879573683      -47.8968993405  TIP3      14054           0.0000000000
     64415     14247  TIP3      OH2           -27.6748366796      -12.4921490810      -43.7658367936  TIP3      14055           0.0000000000
     64416     14247  TIP3      H1            -27.9965843986      -12.7241285519      -42.8719208122  TIP3      14055           0.0000000000
     64417     14247  TIP3      H2            -28.4611964759      -12.6931455906      -44.3068918697  TIP3      14055           0.0000000000
     64418     14248  TIP3      OH2           -24.9607282482      -13.3466879426      -44.6755486528  TIP3      14056           0.0000000000
     64419     14248  TIP3      H1            -25.9260583375      -13.2939584078      -44.5675019270  TIP3      14056           0.0000000000
     64420     14248  TIP3      H2            -24.6970896687      -13.9882712475      -43.9881519183  TIP3      14056           0.0000000000
     64421     14249  TIP3      OH2           -23.3792191410      -14.7286042134      -42.7772604037  TIP3      14057           0.0000000000
     64422     14249  TIP3      H1            -23.4273396004      -15.7065119072      -42.7463904646  TIP3      14057           0.0000000000
     64423     14249  TIP3      H2            -23.6278654151      -14.4362681791      -41.8779526260  TIP3      14057           0.0000000000
     64424     14250  TIP3      OH2           -33.4546529575      -13.4776654353      -43.6270399388  TIP3      14058           0.0000000000
     64425     14250  TIP3      H1            -33.3528139550      -14.2105938098      -44.2605574828  TIP3      14058           0.0000000000
     64426     14250  TIP3      H2            -33.6723144901      -13.9346400398      -42.7941051617  TIP3      14058           0.0000000000
     64427     14251  TIP3      OH2           -28.7380406209      -17.4272541635      -44.6943124613  TIP3      14059           0.0000000000
     64428     14251  TIP3      H1            -28.0586901664      -18.1309755818      -44.7114687312  TIP3      14059           0.0000000000
     64429     14251  TIP3      H2            -28.8527135427      -17.2848059458      -45.6544904892  TIP3      14059           0.0000000000
     64430     14252  TIP3      OH2           -28.3763115838      -15.8147351170      -42.5773144162  TIP3      14060           0.0000000000
     64431     14252  TIP3      H1            -28.5497550319      -16.3197574551      -43.4104126709  TIP3      14060           0.0000000000
     64432     14252  TIP3      H2            -28.9755887978      -15.0498493316      -42.6784186974  TIP3      14060           0.0000000000
     64433     14253  TIP3      OH2           -28.9109434763        1.0984205973      -59.4028638501  TIP3      14061           0.0000000000
     64434     14253  TIP3      H1            -27.9438513203        1.1836512091      -59.3353966463  TIP3      14061           0.0000000000
     64435     14253  TIP3      H2            -29.0558815293        1.6999627343      -60.1421881276  TIP3      14061           0.0000000000
     64436     14254  TIP3      OH2           -35.3224067090       -4.3140368052      -59.9297593132  TIP3      14062           0.0000000000
     64437     14254  TIP3      H1            -34.3559756409       -4.2228717840      -59.7525991019  TIP3      14062           0.0000000000
     64438     14254  TIP3      H2            -35.2543733935       -4.9801919772      -60.6435755631  TIP3      14062           0.0000000000
     64439     14255  TIP3      OH2            36.8617739758        1.2226576730      -55.1344208042  TIP3      14063           0.0000000000
     64440     14255  TIP3      H1             35.9568841165        1.0078942030      -55.4468280824  TIP3      14063           0.0000000000
     64441     14255  TIP3      H2             36.9519135155        0.5858473456      -54.3850521826  TIP3      14063           0.0000000000
     64442     14256  TIP3      OH2           -35.7246262763       -0.7665665963      -53.1404189882  TIP3      14064           0.0000000000
     64443     14256  TIP3      H1            -36.0813289664       -1.6545462867      -52.9094615729  TIP3      14064           0.0000000000
     64444     14256  TIP3      H2            -35.4781924749       -0.4866072704      -52.2392969278  TIP3      14064           0.0000000000
     64445     14257  TIP3      OH2           -18.2130122531       -0.0094142158      -50.1643663887  TIP3      14065           0.0000000000
     64446     14257  TIP3      H1            -18.1827222974        0.1507736428      -49.2051546722  TIP3      14065           0.0000000000
     64447     14257  TIP3      H2            -17.5093239654        0.5735245826      -50.4669079059  TIP3      14065           0.0000000000
     64448     14258  TIP3      OH2           -18.6413716472       -0.4147687161      -47.2170973678  TIP3      14066           0.0000000000
     64449     14258  TIP3      H1            -19.1111476809       -1.1842310088      -47.5996303613  TIP3      14066           0.0000000000
     64450     14258  TIP3      H2            -18.1532857856       -0.8613276048      -46.5054117801  TIP3      14066           0.0000000000
     64451     14259  TIP3      OH2           -20.1945721624       -4.6951338995      -42.5446880172  TIP3      14067           0.0000000000
     64452     14259  TIP3      H1            -21.1013384935       -4.7203836139      -42.1811538283  TIP3      14067           0.0000000000
     64453     14259  TIP3      H2            -19.8233739633       -3.8884240812      -42.1349263371  TIP3      14067           0.0000000000
     64454     14260  TIP3      OH2           -18.8807531075       -6.3626452719      -57.1177369105  TIP3      14068           0.0000000000
     64455     14260  TIP3      H1            -18.0134290781       -5.9730965411      -56.9310692796  TIP3      14068           0.0000000000
     64456     14260  TIP3      H2            -18.8966890223       -7.0816958658      -56.4484937975  TIP3      14068           0.0000000000
     64457     14261  TIP3      OH2           -18.5199985534       -8.2856638317      -55.2261672704  TIP3      14069           0.0000000000
     64458     14261  TIP3      H1            -19.2713134015       -8.7859574904      -54.8351828452  TIP3      14069           0.0000000000
     64459     14261  TIP3      H2            -17.9221494340       -8.1565895410      -54.4637986747  TIP3      14069           0.0000000000
     64460     14262  TIP3      OH2           -18.7629990899       -5.5913587952      -50.2423502919  TIP3      14070           0.0000000000
     64461     14262  TIP3      H1            -17.9501640784       -5.9702539166      -50.6239117444  TIP3      14070           0.0000000000
     64462     14262  TIP3      H2            -18.6170730007       -4.6389376597      -50.4150406609  TIP3      14070           0.0000000000
     64463     14263  TIP3      OH2           -20.2036640878       -2.6856011381      -47.9760398313  TIP3      14071           0.0000000000
     64464     14263  TIP3      H1            -20.8941215449       -2.3451520877      -47.3868948939  TIP3      14071           0.0000000000
     64465     14263  TIP3      H2            -20.7521114306       -3.0889172407      -48.6824266669  TIP3      14071           0.0000000000
     64466     14264  TIP3      OH2           -18.2198669311       -8.4641179261      -58.8370010031  TIP3      14072           0.0000000000
     64467     14264  TIP3      H1            -18.7863807720       -8.1227776207      -59.5609168024  TIP3      14072           0.0000000000
     64468     14264  TIP3      H2            -18.3192602073       -7.7509341756      -58.1789475037  TIP3      14072           0.0000000000
     64469     14265  TIP3      OH2           -19.8431973188      -11.2379130872      -60.3259811656  TIP3      14073           0.0000000000
     64470     14265  TIP3      H1            -19.7690230321      -10.5713173584      -61.0196022186  TIP3      14073           0.0000000000
     64471     14265  TIP3      H2            -20.0314234614      -12.0602614873      -60.8207954617  TIP3      14073           0.0000000000
     64472     14266  TIP3      OH2           -20.6982634036       -9.8156542113      -54.6595770036  TIP3      14074           0.0000000000
     64473     14266  TIP3      H1            -20.8457833869      -10.7696981742      -54.6988253050  TIP3      14074           0.0000000000
     64474     14266  TIP3      H2            -21.0297304318       -9.5996957969      -53.7693183735  TIP3      14074           0.0000000000
     64475     14267  TIP3      OH2           -35.6776844455       -7.7435229236      -50.6780956691  TIP3      14075           0.0000000000
     64476     14267  TIP3      H1            -35.4756740289       -7.7844608233      -51.6354234946  TIP3      14075           0.0000000000
     64477     14267  TIP3      H2            -34.7974980542       -7.8542212357      -50.2595337272  TIP3      14075           0.0000000000
     64478     14268  TIP3      OH2           -19.8385831327       -7.8469916775      -44.9688517341  TIP3      14076           0.0000000000
     64479     14268  TIP3      H1            -19.2287298358       -8.6037809872      -44.8366442880  TIP3      14076           0.0000000000
     64480     14268  TIP3      H2            -19.2344951710       -7.0739925177      -44.9664706987  TIP3      14076           0.0000000000
     64481     14269  TIP3      OH2           -18.3370354231       -9.9681386704      -44.3181635038  TIP3      14077           0.0000000000
     64482     14269  TIP3      H1            -19.2200294416      -10.3667582163      -44.4732612512  TIP3      14077           0.0000000000
     64483     14269  TIP3      H2            -17.7667700128      -10.7509914317      -44.3950222212  TIP3      14077           0.0000000000
     64484     14270  TIP3      OH2           -20.5956133890      -13.7608352011      -61.1884526859  TIP3      14078           0.0000000000
     64485     14270  TIP3      H1            -20.0077433977      -14.2007398731      -60.5455652963  TIP3      14078           0.0000000000
     64486     14270  TIP3      H2            -21.4598816041      -14.1809906489      -61.0357051687  TIP3      14078           0.0000000000
     64487     14271  TIP3      OH2           -21.0542700761      -12.2350076447      -56.2458417359  TIP3      14079           0.0000000000
     64488     14271  TIP3      H1            -20.7370710419      -13.1551007025      -56.0831126844  TIP3      14079           0.0000000000
     64489     14271  TIP3      H2            -20.2312855119      -11.8255154041      -56.5475253600  TIP3      14079           0.0000000000
     64490     14272  TIP3      OH2           -20.3920967555      -11.6880656299      -50.7560669638  TIP3      14080           0.0000000000
     64491     14272  TIP3      H1            -19.4318833167      -11.4577247578      -50.7702958353  TIP3      14080           0.0000000000
     64492     14272  TIP3      H2            -20.5803489086      -11.5477292979      -49.8170359841  TIP3      14080           0.0000000000
     64493     14273  TIP3      OH2           -20.3245288795      -10.9681304049      -47.9686302984  TIP3      14081           0.0000000000
     64494     14273  TIP3      H1            -21.2099730977      -10.6782215603      -47.6600224249  TIP3      14081           0.0000000000
     64495     14273  TIP3      H2            -19.8925466117      -10.1084989201      -48.1979409586  TIP3      14081           0.0000000000
     64496     14274  TIP3      OH2           -35.8024562527      -12.5587296059      -44.4685532351  TIP3      14082           0.0000000000
     64497     14274  TIP3      H1            -34.9167633499      -12.7438031654      -44.1281013929  TIP3      14082           0.0000000000
     64498     14274  TIP3      H2            -36.3806775824      -13.2411172155      -44.0462439303  TIP3      14082           0.0000000000
     64499     14275  TIP3      OH2           -18.0543644371      -16.9016980823      -42.6372299078  TIP3      14083           0.0000000000
     64500     14275  TIP3      H1            -17.7021972118      -17.5632059566      -43.2578776260  TIP3      14083           0.0000000000
     64501     14275  TIP3      H2            -17.9525495026      -16.0873167228      -43.1694895602  TIP3      14083           0.0000000000
     64502     14276  TIP3      OH2           -20.3593134742      -14.9428320288      -56.1543975979  TIP3      14084           0.0000000000
     64503     14276  TIP3      H1            -20.1459086343      -15.3799171328      -55.3018265665  TIP3      14084           0.0000000000
     64504     14276  TIP3      H2            -20.9588501027      -15.5832514962      -56.5919308920  TIP3      14084           0.0000000000
     64505     14277  TIP3      OH2           -34.8334171564      -14.1799054723      -51.6319628906  TIP3      14085           0.0000000000
     64506     14277  TIP3      H1            -34.3698079672      -14.9733962552      -51.3032537223  TIP3      14085           0.0000000000
     64507     14277  TIP3      H2            -34.3360236323      -13.4690085609      -51.1965534386  TIP3      14085           0.0000000000
     64508     14278  TIP3      OH2           -36.0134657429      -10.3823784615      -50.2035517995  TIP3      14086           0.0000000000
     64509     14278  TIP3      H1            -35.9851209273      -10.8102450793      -51.0836918625  TIP3      14086           0.0000000000
     64510     14278  TIP3      H2            -35.9393513484       -9.4658696043      -50.4806520728  TIP3      14086           0.0000000000
     64511     14279  TIP3      OH2           -18.5340888339      -14.8035013073      -44.2822420963  TIP3      14087           0.0000000000
     64512     14279  TIP3      H1            -19.4718036908      -14.5321097297      -44.3346312004  TIP3      14087           0.0000000000
     64513     14279  TIP3      H2            -18.5006143983      -15.3549496565      -45.0788076622  TIP3      14087           0.0000000000
     64514     14280  TIP3      OH2           -18.5432426654      -14.9088901880      -59.6007517346  TIP3      14088           0.0000000000
     64515     14280  TIP3      H1            -18.1316936268      -15.6221585121      -60.1384103214  TIP3      14088           0.0000000000
     64516     14280  TIP3      H2            -17.8367418117      -14.2480529353      -59.5507235731  TIP3      14088           0.0000000000
     64517     14281  TIP3      OH2           -35.7008733509      -14.8751662945      -57.0066629156  TIP3      14089           0.0000000000
     64518     14281  TIP3      H1            -36.6486832879      -14.7984028279      -56.7725876577  TIP3      14089           0.0000000000
     64519     14281  TIP3      H2            -35.6360729653      -14.1042212012      -57.5865516888  TIP3      14089           0.0000000000
     64520     14282  TIP3      OH2           -21.4907482210        0.0775378690      -54.5348941782  TIP3      14090           0.0000000000
     64521     14282  TIP3      H1            -20.8051580221       -0.2283067129      -55.1571064358  TIP3      14090           0.0000000000
     64522     14282  TIP3      H2            -20.9740901444        0.5725524909      -53.8822600977  TIP3      14090           0.0000000000
     64523     14283  TIP3      OH2            37.0313113046      -16.2582423658      -47.9770162823  TIP3      14091           0.0000000000
     64524     14283  TIP3      H1             36.2420830920      -16.4660093093      -47.4521202467  TIP3      14091           0.0000000000
     64525     14283  TIP3      H2             36.5492291792      -15.7424839844      -48.6480853699  TIP3      14091           0.0000000000
     64526     14284  TIP3      OH2           -34.0742365463       -2.9955979821      -44.0177678411  TIP3      14092           0.0000000000
     64527     14284  TIP3      H1            -34.9203233003       -2.8209188027      -44.4468665911  TIP3      14092           0.0000000000
     64528     14284  TIP3      H2            -34.3297653770       -3.0981950503      -43.1002625160  TIP3      14092           0.0000000000
     64529     14285  TIP3      OH2           -31.1075433586       -1.9956776008      -47.7196829997  TIP3      14093           0.0000000000
     64530     14285  TIP3      H1            -31.5054249904       -1.1605668939      -48.0215358618  TIP3      14093           0.0000000000
     64531     14285  TIP3      H2            -30.1992378926       -1.9082409082      -48.0658177862  TIP3      14093           0.0000000000
     64532     14286  TIP3      OH2           -26.8216700070       -0.5948000483      -44.8492450627  TIP3      14094           0.0000000000
     64533     14286  TIP3      H1            -26.6852893723       -0.9493796770      -43.9408412960  TIP3      14094           0.0000000000
     64534     14286  TIP3      H2            -25.9175233412       -0.2917169707      -45.0886898314  TIP3      14094           0.0000000000
     64535     14287  TIP3      OH2           -24.5334187456        0.6728529135      -45.5354130013  TIP3      14095           0.0000000000
     64536     14287  TIP3      H1            -23.8013925699        0.0881182073      -45.7735333821  TIP3      14095           0.0000000000
     64537     14287  TIP3      H2            -24.1576158887        1.1116070227      -44.7416302944  TIP3      14095           0.0000000000
     64538     14288  TIP3      OH2           -19.5131896170      -16.7136111358      -46.4282821144  TIP3      14096           0.0000000000
     64539     14288  TIP3      H1            -20.3418775145      -16.4149446926      -46.8408275697  TIP3      14096           0.0000000000
     64540     14288  TIP3      H2            -19.3450281330      -17.5365250051      -46.9457929370  TIP3      14096           0.0000000000
     64541     14289  TIP3      OH2           -33.6851157699        1.2247423826      -47.7339265140  TIP3      14097           0.0000000000
     64542     14289  TIP3      H1            -34.4350969470        1.7121536518      -48.1285934329  TIP3      14097           0.0000000000
     64543     14289  TIP3      H2            -34.0316382350        1.0302613261      -46.8493446694  TIP3      14097           0.0000000000
     64544     14290  TIP3      OH2           -31.2352820435        0.8030824676      -48.6958097101  TIP3      14098           0.0000000000
     64545     14290  TIP3      H1            -32.1318219749        0.9333113542      -48.3008193213  TIP3      14098           0.0000000000
     64546     14290  TIP3      H2            -31.2905911251        1.3987721457      -49.4631155126  TIP3      14098           0.0000000000
     64547     14291  TIP3      OH2           -26.5399991426        0.7108755310      -49.5170518324  TIP3      14099           0.0000000000
     64548     14291  TIP3      H1            -27.0038741833        1.2669269458      -50.1602871773  TIP3      14099           0.0000000000
     64549     14291  TIP3      H2            -26.4096253439        1.3401494918      -48.7764476985  TIP3      14099           0.0000000000
     64550     14292  TIP3      OH2           -24.2544490186       -0.4842541602      -48.4808418522  TIP3      14100           0.0000000000
     64551     14292  TIP3      H1            -25.1066845234       -0.2057236263      -48.8537977984  TIP3      14100           0.0000000000
     64552     14292  TIP3      H2            -23.7668377878        0.3523562490      -48.5757161718  TIP3      14100           0.0000000000
     64553     14293  TIP3      OH2           -21.6716406034        1.0857113846      -48.2642642298  TIP3      14101           0.0000000000
     64554     14293  TIP3      H1            -21.7234435266        2.0468578752      -48.4914575882  TIP3      14101           0.0000000000
     64555     14293  TIP3      H2            -21.4536576424        0.7130443155      -49.1412174418  TIP3      14101           0.0000000000
     64556     14294  TIP3      OH2           -34.3101094694       -0.1296266558      -50.8222758949  TIP3      14102           0.0000000000
     64557     14294  TIP3      H1            -34.3143122329       -0.5792636146      -49.9520084875  TIP3      14102           0.0000000000
     64558     14294  TIP3      H2            -33.4935600605       -0.5050940773      -51.2105240216  TIP3      14102           0.0000000000
     64559     14295  TIP3      OH2           -32.2102402688       -1.4157782931      -52.1516446177  TIP3      14103           0.0000000000
     64560     14295  TIP3      H1            -32.3648134638       -2.3532215887      -51.9192239820  TIP3      14103           0.0000000000
     64561     14295  TIP3      H2            -31.3429705314       -1.2640475607      -51.7147445724  TIP3      14103           0.0000000000
     64562     14296  TIP3      OH2           -29.5924870524       -0.9440536419      -51.2760137374  TIP3      14104           0.0000000000
     64563     14296  TIP3      H1            -29.4221806228       -1.8636300055      -51.5419243422  TIP3      14104           0.0000000000
     64564     14296  TIP3      H2            -29.5270272111       -0.9921834285      -50.3131323983  TIP3      14104           0.0000000000
     64565     14297  TIP3      OH2           -26.1231143723      -15.2876956887      -52.1430665668  TIP3      14105           0.0000000000
     64566     14297  TIP3      H1            -26.7959423516      -15.9297905582      -51.8596370736  TIP3      14105           0.0000000000
     64567     14297  TIP3      H2            -25.5715532698      -15.8206329331      -52.7279785682  TIP3      14105           0.0000000000
     64568     14298  TIP3      OH2           -20.9871309495      -17.2392703273      -52.0830509547  TIP3      14106           0.0000000000
     64569     14298  TIP3      H1            -20.3754110914      -16.6463968800      -52.5884587274  TIP3      14106           0.0000000000
     64570     14298  TIP3      H2            -21.8692348730      -16.8779939103      -52.3111935827  TIP3      14106           0.0000000000
     64571     14299  TIP3      OH2           -19.3193883128      -15.9904845328      -53.8055886531  TIP3      14107           0.0000000000
     64572     14299  TIP3      H1            -18.6321418258      -16.5646643231      -54.2184636204  TIP3      14107           0.0000000000
     64573     14299  TIP3      H2            -18.8119935061      -15.1531952369      -53.6969098012  TIP3      14107           0.0000000000
     64574     14300  TIP3      OH2           -33.7324503901      -16.6533998787      -54.2982217265  TIP3      14108           0.0000000000
     64575     14300  TIP3      H1            -34.5340711488      -16.8866812018      -54.8200793642  TIP3      14108           0.0000000000
     64576     14300  TIP3      H2            -33.2585571823      -17.5082484826      -54.3606753813  TIP3      14108           0.0000000000
     64577     14301  TIP3      OH2           -34.9359406124      -16.9325811138      -58.6147207811  TIP3      14109           0.0000000000
     64578     14301  TIP3      H1            -34.4572607372      -16.2606215795      -59.1227010399  TIP3      14109           0.0000000000
     64579     14301  TIP3      H2            -35.5434006477      -16.3887590330      -58.0703491876  TIP3      14109           0.0000000000
     64580     14302  TIP3      OH2           -29.2851726359      -16.7310143841      -54.5089911063  TIP3      14110           0.0000000000
     64581     14302  TIP3      H1            -28.3820307153      -16.3785986684      -54.5889393152  TIP3      14110           0.0000000000
     64582     14302  TIP3      H2            -29.3140662212      -16.9561125142      -53.5798921580  TIP3      14110           0.0000000000
     64583     14303  TIP3      OH2           -23.5662797866      -16.7174405784      -52.8871551134  TIP3      14111           0.0000000000
     64584     14303  TIP3      H1            -23.6187997458      -16.6033597621      -53.8448996768  TIP3      14111           0.0000000000
     64585     14303  TIP3      H2            -23.9456931863      -17.6213721255      -52.7591076651  TIP3      14111           0.0000000000
     64586     14304  TIP3      OH2           -22.3005563044      -16.6876711346      -57.2021957497  TIP3      14112           0.0000000000
     64587     14304  TIP3      H1            -23.0494372523      -16.0937635323      -57.3604250812  TIP3      14112           0.0000000000
     64588     14304  TIP3      H2            -22.7404076368      -17.5398129020      -56.9682913971  TIP3      14112           0.0000000000
     64589     14305  TIP3      OH2           -35.0761557046       -0.9045612603      -57.5132628699  TIP3      14113           0.0000000000
     64590     14305  TIP3      H1            -35.6729535874       -0.9445284595      -58.2752621006  TIP3      14113           0.0000000000
     64591     14305  TIP3      H2            -35.0498171904        0.0498692089      -57.3817600934  TIP3      14113           0.0000000000
     64592     14306  TIP3      OH2           -33.1544307074      -14.9371577091      -60.0175292167  TIP3      14114           0.0000000000
     64593     14306  TIP3      H1            -32.6775586240      -15.5563194602      -60.6054836673  TIP3      14114           0.0000000000
     64594     14306  TIP3      H2            -32.3999858491      -14.6873884316      -59.4620219705  TIP3      14114           0.0000000000
     64595     14307  TIP3      OH2           -28.1774053248      -14.7127457292      -57.6491668586  TIP3      14115           0.0000000000
     64596     14307  TIP3      H1            -27.8791362189      -15.2970495075      -56.9294540739  TIP3      14115           0.0000000000
     64597     14307  TIP3      H2            -28.0371044254      -13.8471212643      -57.2030212284  TIP3      14115           0.0000000000
     64598     14308  TIP3      OH2           -26.1971132918        0.3586990377      -59.2138010425  TIP3      14116           0.0000000000
     64599     14308  TIP3      H1            -25.2777259450        0.5783354754      -59.4343576764  TIP3      14116           0.0000000000
     64600     14308  TIP3      H2            -26.4153667061       -0.1675585654      -60.0121811777  TIP3      14116           0.0000000000
     64601     14309  TIP3      OH2           -19.5031666328       -0.1472881274      -56.4916834200  TIP3      14117           0.0000000000
     64602     14309  TIP3      H1            -19.6924315390       -0.9299645216      -57.0636911016  TIP3      14117           0.0000000000
     64603     14309  TIP3      H2            -19.5692252282        0.5872130325      -57.1357588664  TIP3      14117           0.0000000000
     64604     14310  TIP3      OH2           -33.9200648604      -16.0989507579      -44.7995276657  TIP3      14118           0.0000000000
     64605     14310  TIP3      H1            -34.2571631822      -16.9508463554      -44.4608861860  TIP3      14118           0.0000000000
     64606     14310  TIP3      H2            -32.9912657110      -16.1626118078      -44.4707843369  TIP3      14118           0.0000000000
     64607     14311  TIP3      OH2           -31.8639820170      -16.7449062834      -43.2105944084  TIP3      14119           0.0000000000
     64608     14311  TIP3      H1            -30.9719903387      -17.0845761597      -43.4187482861  TIP3      14119           0.0000000000
     64609     14311  TIP3      H2            -32.2546606356      -17.5460498796      -42.8124510321  TIP3      14119           0.0000000000
     64610     14312  TIP3      OH2           -33.2730198918       -0.0035397363      -60.6210108368  TIP3      14120           0.0000000000
     64611     14312  TIP3      H1            -33.5229427880        0.2693478299      -59.7293543013  TIP3      14120           0.0000000000
     64612     14312  TIP3      H2            -32.4663666006       -0.5272406532      -60.4531606143  TIP3      14120           0.0000000000
     64613     14313  TIP3      OH2           -23.4656838633      -17.4495822644      -43.0522466760  TIP3      14121           0.0000000000
     64614     14313  TIP3      H1            -23.3710914672      -17.9226621706      -42.2028625435  TIP3      14121           0.0000000000
     64615     14313  TIP3      H2            -22.5482030685      -17.4833075088      -43.3957229571  TIP3      14121           0.0000000000
     64616     14314  TIP3      OH2           -20.2543538037       -1.3987645848      -44.4206721452  TIP3      14122           0.0000000000
     64617     14314  TIP3      H1            -21.0585903507       -1.5349941710      -44.9673426458  TIP3      14122           0.0000000000
     64618     14314  TIP3      H2            -20.3706366138       -0.4517529376      -44.2036528217  TIP3      14122           0.0000000000
     64619     14315  TIP3      OH2            -5.7933840827       -7.5114389233      -54.4592545569  TIP3      14123           0.0000000000
     64620     14315  TIP3      H1             -5.8272618867       -6.5307067995      -54.4764923467  TIP3      14123           0.0000000000
     64621     14315  TIP3      H2             -6.5440393907       -7.7661257846      -55.0238817516  TIP3      14123           0.0000000000
     64622     14316  TIP3      OH2            -6.9396572612       -8.1921664588      -50.9125169023  TIP3      14124           0.0000000000
     64623     14316  TIP3      H1             -6.9709731110       -8.9075951222      -50.2530888379  TIP3      14124           0.0000000000
     64624     14316  TIP3      H2             -7.2716654204       -8.7215273691      -51.6576377195  TIP3      14124           0.0000000000
     64625     14317  TIP3      OH2           -14.6053563962       -8.5884492886      -49.3852291061  TIP3      14125           0.0000000000
     64626     14317  TIP3      H1            -14.5177537646       -9.2774694251      -48.6937192485  TIP3      14125           0.0000000000
     64627     14317  TIP3      H2            -13.8514624740       -8.0209671353      -49.1661151175  TIP3      14125           0.0000000000
     64628     14318  TIP3      OH2            -3.2687614554       -5.3186791833      -52.6591543920  TIP3      14126           0.0000000000
     64629     14318  TIP3      H1             -3.6816802819       -6.0337848278      -52.1640808256  TIP3      14126           0.0000000000
     64630     14318  TIP3      H2             -3.2416778024       -4.6056407325      -51.9950210539  TIP3      14126           0.0000000000
     64631     14319  TIP3      OH2           -13.6761600974       -4.1422685369      -50.8871050566  TIP3      14127           0.0000000000
     64632     14319  TIP3      H1            -13.9858615144       -5.0123635309      -51.2042840528  TIP3      14127           0.0000000000
     64633     14319  TIP3      H2            -12.7206754677       -4.3258199628      -50.8410375135  TIP3      14127           0.0000000000
     64634     14320  TIP3      OH2           -17.0436418853      -10.5847167489      -55.3958425189  TIP3      14128           0.0000000000
     64635     14320  TIP3      H1            -17.4783264384       -9.7136790892      -55.4604590351  TIP3      14128           0.0000000000
     64636     14320  TIP3      H2            -17.6016592706      -11.1264801569      -55.9685035034  TIP3      14128           0.0000000000
     64637     14321  TIP3      OH2           -16.3256849355       -8.3603366641      -53.2469308022  TIP3      14129           0.0000000000
     64638     14321  TIP3      H1            -16.0501222529       -9.1819109222      -52.7980782792  TIP3      14129           0.0000000000
     64639     14321  TIP3      H2            -15.6310652758       -8.2529270713      -53.9145368523  TIP3      14129           0.0000000000
     64640     14322  TIP3      OH2            -6.1592526292       -0.1640479552      -52.4181692594  TIP3      14130           0.0000000000
     64641     14322  TIP3      H1             -5.5028306254       -0.8467206230      -52.7049710182  TIP3      14130           0.0000000000
     64642     14322  TIP3      H2             -6.3641982839       -0.5015076752      -51.5448668372  TIP3      14130           0.0000000000
     64643     14323  TIP3      OH2            -8.5816367365       -5.8718952739      -50.4718107748  TIP3      14131           0.0000000000
     64644     14323  TIP3      H1             -8.2430934269       -6.5130609411      -51.1203529159  TIP3      14131           0.0000000000
     64645     14323  TIP3      H2             -7.7723521970       -5.7054693460      -49.9552563690  TIP3      14131           0.0000000000
     64646     14324  TIP3      OH2             0.0129208214      -14.2034485804      -49.7454595227  TIP3      14132           0.0000000000
     64647     14324  TIP3      H1              0.1912738741      -13.6187767314      -48.9778078217  TIP3      14132           0.0000000000
     64648     14324  TIP3      H2              0.5823304899      -13.7829029203      -50.4054105280  TIP3      14132           0.0000000000
     64649     14325  TIP3      OH2            -5.2815454818      -11.4154484966      -50.1413675407  TIP3      14133           0.0000000000
     64650     14325  TIP3      H1             -5.2626209033      -12.3810447176      -50.1652907033  TIP3      14133           0.0000000000
     64651     14325  TIP3      H2             -5.5731529686      -11.2497047147      -51.0678624798  TIP3      14133           0.0000000000
     64652     14326  TIP3      OH2           -12.3826731918      -13.3124660098      -52.9247808379  TIP3      14134           0.0000000000
     64653     14326  TIP3      H1            -12.1252723275      -12.4950827839      -53.3924416333  TIP3      14134           0.0000000000
     64654     14326  TIP3      H2            -12.6900763988      -13.8861240835      -53.6522829756  TIP3      14134           0.0000000000
     64655     14327  TIP3      OH2            -4.5421996692      -13.2682871040      -54.6005663639  TIP3      14135           0.0000000000
     64656     14327  TIP3      H1             -3.9200204646      -13.5389169833      -53.8883744415  TIP3      14135           0.0000000000
     64657     14327  TIP3      H2             -3.9940717697      -12.6397004958      -55.0914897935  TIP3      14135           0.0000000000
     64658     14328  TIP3      OH2           -15.6776692411      -10.8928263734      -52.1969366494  TIP3      14136           0.0000000000
     64659     14328  TIP3      H1            -14.9900568864      -11.4310439356      -51.7572678424  TIP3      14136           0.0000000000
     64660     14328  TIP3      H2            -15.5744080384      -11.2065673137      -53.1104578212  TIP3      14136           0.0000000000
     64661     14329  TIP3      OH2           -10.6458279547       -9.1967286765      -52.8116695251  TIP3      14137           0.0000000000
     64662     14329  TIP3      H1             -9.9167526269       -9.8058984326      -52.5524002229  TIP3      14137           0.0000000000
     64663     14329  TIP3      H2            -11.0147254891       -9.9150217243      -53.3803709663  TIP3      14137           0.0000000000
     64664     14330  TIP3      OH2             0.4580248912      -12.8032494815      -47.4662183929  TIP3      14138           0.0000000000
     64665     14330  TIP3      H1             -0.1485849913      -12.0359938718      -47.5783961037  TIP3      14138           0.0000000000
     64666     14330  TIP3      H2              0.4909057880      -12.8815644949      -46.5062477535  TIP3      14138           0.0000000000
     64667     14331  TIP3      OH2           -13.4021069572      -14.4110882814      -48.8873304462  TIP3      14139           0.0000000000
     64668     14331  TIP3      H1            -13.6682326663      -13.8381972331      -49.6406746758  TIP3      14139           0.0000000000
     64669     14331  TIP3      H2            -14.0766874505      -14.1765710520      -48.2098479451  TIP3      14139           0.0000000000
     64670     14332  TIP3      OH2            -6.1029815494       -4.9215594877      -55.3531680437  TIP3      14140           0.0000000000
     64671     14332  TIP3      H1             -6.3637370261       -5.2003219843      -56.2405441121  TIP3      14140           0.0000000000
     64672     14332  TIP3      H2             -6.4121100041       -3.9885372737      -55.3028512612  TIP3      14140           0.0000000000
     64673     14333  TIP3      OH2           -10.8761909072       -6.7661277717      -48.6572476010  TIP3      14141           0.0000000000
     64674     14333  TIP3      H1            -11.5828241387       -6.1222571459      -48.4393679101  TIP3      14141           0.0000000000
     64675     14333  TIP3      H2            -10.1705041604       -6.1682683544      -48.9498327117  TIP3      14141           0.0000000000
     64676     14334  TIP3      OH2            -2.7482354242      -13.8828519943      -52.5757660494  TIP3      14142           0.0000000000
     64677     14334  TIP3      H1             -2.9701637861      -14.6513601132      -52.0428134844  TIP3      14142           0.0000000000
     64678     14334  TIP3      H2             -2.0848108344      -13.4426189448      -52.0188755974  TIP3      14142           0.0000000000
     64679     14335  TIP3      OH2           -13.8170848168      -12.5474604406      -50.8495152062  TIP3      14143           0.0000000000
     64680     14335  TIP3      H1            -13.1754539477      -11.8625483285      -50.5589412927  TIP3      14143           0.0000000000
     64681     14335  TIP3      H2            -13.3118824184      -12.9596307136      -51.6026248762  TIP3      14143           0.0000000000
     64682     14336  TIP3      OH2           -12.4287182904       -4.7600417470      -47.8386985874  TIP3      14144           0.0000000000
     64683     14336  TIP3      H1            -12.4778384005       -3.8475177495      -48.1779074487  TIP3      14144           0.0000000000
     64684     14336  TIP3      H2            -13.3132548729       -4.8405088071      -47.3984148433  TIP3      14144           0.0000000000
     64685     14337  TIP3      OH2           -16.3485061921       -5.1535533980      -57.0476379232  TIP3      14145           0.0000000000
     64686     14337  TIP3      H1            -16.5991294821       -4.8135618482      -57.9243981005  TIP3      14145           0.0000000000
     64687     14337  TIP3      H2            -16.2686761692       -4.3262268027      -56.5320336379  TIP3      14145           0.0000000000
     64688     14338  TIP3      OH2            -2.7406924730       -3.4783851289      -50.2871136694  TIP3      14146           0.0000000000
     64689     14338  TIP3      H1             -3.7097347731       -3.3675636809      -50.1706201284  TIP3      14146           0.0000000000
     64690     14338  TIP3      H2             -2.4722825771       -2.5631619920      -50.4933786364  TIP3      14146           0.0000000000
     64691     14339  TIP3      OH2            -2.4161152238      -15.1973765884      -48.8968329339  TIP3      14147           0.0000000000
     64692     14339  TIP3      H1             -3.1411707992      -14.5652853675      -48.9926635280  TIP3      14147           0.0000000000
     64693     14339  TIP3      H2             -1.7029272937      -14.7785889364      -49.4214980368  TIP3      14147           0.0000000000
     64694     14340  TIP3      OH2            -9.4359641308      -17.0959892593      -51.4178345246  TIP3      14148           0.0000000000
     64695     14340  TIP3      H1             -9.6108658258      -18.0518442905      -51.5107150260  TIP3      14148           0.0000000000
     64696     14340  TIP3      H2            -10.3124128350      -16.7515425128      -51.1472918336  TIP3      14148           0.0000000000
     64697     14341  TIP3      OH2            -4.4781837275       -1.6944989936      -53.7005376074  TIP3      14149           0.0000000000
     64698     14341  TIP3      H1             -4.0524453681       -2.4155366335      -54.2086209086  TIP3      14149           0.0000000000
     64699     14341  TIP3      H2             -4.0450871949       -0.9062659199      -54.0915995186  TIP3      14149           0.0000000000
     64700     14342  TIP3      OH2            -3.2647460096       -3.7694545839      -55.1794825696  TIP3      14150           0.0000000000
     64701     14342  TIP3      H1             -3.5684141459       -4.4659266942      -55.7834133234  TIP3      14150           0.0000000000
     64702     14342  TIP3      H2             -3.2330629367       -4.2606525520      -54.3389752199  TIP3      14150           0.0000000000
     64703     14343  TIP3      OH2            -1.6636525432       -5.1729457887      -46.6793530502  TIP3      14151           0.0000000000
     64704     14343  TIP3      H1             -1.5029533705       -5.8210496195      -47.4047976056  TIP3      14151           0.0000000000
     64705     14343  TIP3      H2             -1.4465491479       -4.3332057832      -47.1314944653  TIP3      14151           0.0000000000
     64706     14344  TIP3      OH2            -7.1482899475       -8.2801625018      -56.9114528258  TIP3      14152           0.0000000000
     64707     14344  TIP3      H1             -7.8567413359       -7.7214141255      -57.2739864970  TIP3      14152           0.0000000000
     64708     14344  TIP3      H2             -6.4463063781       -8.1871832452      -57.5824552633  TIP3      14152           0.0000000000
     64709     14345  TIP3      OH2            -7.0727002339       -9.7161714085      -59.9150357897  TIP3      14153           0.0000000000
     64710     14345  TIP3      H1             -6.3673447771       -9.7347713195      -59.2506350074  TIP3      14153           0.0000000000
     64711     14345  TIP3      H2             -6.7668748486      -10.4343315615      -60.4840835468  TIP3      14153           0.0000000000
     64712     14346  TIP3      OH2             0.2347384705       -8.8605213951      -48.6435333599  TIP3      14154           0.0000000000
     64713     14346  TIP3      H1             -0.4214055314       -8.1363021643      -48.6059894792  TIP3      14154           0.0000000000
     64714     14346  TIP3      H2              0.7311630941       -8.6288113695      -49.4498887576  TIP3      14154           0.0000000000
     64715     14347  TIP3      OH2            -3.6987600057       -8.0794907142      -56.0030230747  TIP3      14155           0.0000000000
     64716     14347  TIP3      H1             -4.4466422377       -7.8438810252      -55.4005184329  TIP3      14155           0.0000000000
     64717     14347  TIP3      H2             -3.2287507354       -8.7535253469      -55.4814391975  TIP3      14155           0.0000000000
     64718     14348  TIP3      OH2            -3.7641520970       -9.9013442471      -46.8520117727  TIP3      14156           0.0000000000
     64719     14348  TIP3      H1             -3.7658640017       -9.0789083530      -46.3556297055  TIP3      14156           0.0000000000
     64720     14348  TIP3      H2             -4.3948345011       -9.6299107241      -47.5591707315  TIP3      14156           0.0000000000
     64721     14349  TIP3      OH2           -12.1012707472       -7.4006242133      -54.0908268810  TIP3      14157           0.0000000000
     64722     14349  TIP3      H1            -12.4039261562       -7.8235073173      -54.9280494477  TIP3      14157           0.0000000000
     64723     14349  TIP3      H2            -11.4871922575       -8.0894317668      -53.7321065406  TIP3      14157           0.0000000000
     64724     14350  TIP3      OH2           -10.7756382212       -4.0367199043      -51.4064913922  TIP3      14158           0.0000000000
     64725     14350  TIP3      H1            -10.7796495740       -4.5577808914      -52.2175333068  TIP3      14158           0.0000000000
     64726     14350  TIP3      H2             -9.9917241484       -4.3891047669      -50.9476267470  TIP3      14158           0.0000000000
     64727     14351  TIP3      OH2           -11.7951892649       -8.6389412543      -50.4065595352  TIP3      14159           0.0000000000
     64728     14351  TIP3      H1            -11.2375837890       -8.5850227063      -51.2190087462  TIP3      14159           0.0000000000
     64729     14351  TIP3      H2            -11.3558772320       -8.0003904281      -49.8103321000  TIP3      14159           0.0000000000
     64730     14352  TIP3      OH2            -5.3427541488       -3.0920733628      -49.7155789196  TIP3      14160           0.0000000000
     64731     14352  TIP3      H1             -5.6335089093       -2.4588562317      -49.0524963646  TIP3      14160           0.0000000000
     64732     14352  TIP3      H2             -5.6004889038       -3.9467720586      -49.2951530874  TIP3      14160           0.0000000000
     64733     14353  TIP3      OH2           -10.8112183243       -4.2377847022      -45.7278422273  TIP3      14161           0.0000000000
     64734     14353  TIP3      H1            -11.2269767019       -3.4986367773      -45.2381861576  TIP3      14161           0.0000000000
     64735     14353  TIP3      H2            -11.4839119409       -4.4373468413      -46.4251111297  TIP3      14161           0.0000000000
     64736     14354  TIP3      OH2            -4.8274761113       -8.8699893046      -58.3391938761  TIP3      14162           0.0000000000
     64737     14354  TIP3      H1             -4.2721887176       -8.6976549759      -57.5379987250  TIP3      14162           0.0000000000
     64738     14354  TIP3      H2             -4.3758388991       -8.3756940435      -59.0596536359  TIP3      14162           0.0000000000
     64739     14355  TIP3      OH2           -13.8698269398       -8.0788698537      -46.5740549059  TIP3      14163           0.0000000000
     64740     14355  TIP3      H1            -13.8168388525       -7.4099313743      -45.8663276725  TIP3      14163           0.0000000000
     64741     14355  TIP3      H2            -14.8120043004       -7.9900770819      -46.7867276617  TIP3      14163           0.0000000000
     64742     14356  TIP3      OH2            -7.1164909729       -2.1492204315      -54.8687027480  TIP3      14164           0.0000000000
     64743     14356  TIP3      H1             -6.6852193046       -1.8464809224      -54.0600883287  TIP3      14164           0.0000000000
     64744     14356  TIP3      H2             -7.6740768154       -1.3999504315      -55.1036569670  TIP3      14164           0.0000000000
     64745     14357  TIP3      OH2           -12.5647349180       -2.2036503053      -44.9810098687  TIP3      14165           0.0000000000
     64746     14357  TIP3      H1            -12.6262895054       -2.3020875166      -45.9465444164  TIP3      14165           0.0000000000
     64747     14357  TIP3      H2            -13.4945822042       -2.3372241355      -44.7133438268  TIP3      14165           0.0000000000
     64748     14358  TIP3      OH2            -1.1045116241      -17.1417091037      -58.4334098869  TIP3      14166           0.0000000000
     64749     14358  TIP3      H1             -2.0512078034      -17.0262591776      -58.1933356680  TIP3      14166           0.0000000000
     64750     14358  TIP3      H2             -0.9022139777      -16.3011624845      -58.8777140632  TIP3      14166           0.0000000000
     64751     14359  TIP3      OH2           -13.1349099118       -8.3873628023      -56.4735751872  TIP3      14167           0.0000000000
     64752     14359  TIP3      H1            -13.4207536836       -7.6029698620      -56.9830208483  TIP3      14167           0.0000000000
     64753     14359  TIP3      H2            -13.7814435867       -9.0569608740      -56.7041681334  TIP3      14167           0.0000000000
     64754     14360  TIP3      OH2             0.0091297249       -2.7885306369      -60.0850744164  TIP3      14168           0.0000000000
     64755     14360  TIP3      H1              0.1752652765       -1.8455457214      -59.9155363557  TIP3      14168           0.0000000000
     64756     14360  TIP3      H2              0.9325637576       -3.1014974312      -60.0882947488  TIP3      14168           0.0000000000
     64757     14361  TIP3      OH2           -17.0397736794       -5.9629938633      -47.5677233711  TIP3      14169           0.0000000000
     64758     14361  TIP3      H1            -17.4791505391       -6.0435343621      -48.4351393138  TIP3      14169           0.0000000000
     64759     14361  TIP3      H2            -16.9542243992       -6.9121230444      -47.3553055053  TIP3      14169           0.0000000000
     64760     14362  TIP3      OH2           -17.2751610167       -3.2268963114      -50.7965944167  TIP3      14170           0.0000000000
     64761     14362  TIP3      H1            -16.3168876144       -3.3431944459      -50.8156110337  TIP3      14170           0.0000000000
     64762     14362  TIP3      H2            -17.3571531066       -2.4092722543      -50.2911087159  TIP3      14170           0.0000000000
     64763     14363  TIP3      OH2             0.9753478018       -2.5142494439      -45.1104486133  TIP3      14171           0.0000000000
     64764     14363  TIP3      H1              0.8614653772       -3.4733561699      -45.1464941242  TIP3      14171           0.0000000000
     64765     14363  TIP3      H2              0.1018877642       -2.2619459629      -44.7300036387  TIP3      14171           0.0000000000
     64766     14364  TIP3      OH2            -8.0806310490       -2.9832893892      -46.2462783126  TIP3      14172           0.0000000000
     64767     14364  TIP3      H1             -8.0195142068       -2.1418180640      -45.7359873258  TIP3      14172           0.0000000000
     64768     14364  TIP3      H2             -8.9514281838       -3.3446270067      -45.9927364220  TIP3      14172           0.0000000000
     64769     14365  TIP3      OH2            -7.6614651277        0.7686596920      -56.4565513822  TIP3      14173           0.0000000000
     64770     14365  TIP3      H1             -7.7256033276        0.6749928164      -57.4232111505  TIP3      14173           0.0000000000
     64771     14365  TIP3      H2             -7.6108139828        1.7252744741      -56.3062482716  TIP3      14173           0.0000000000
     64772     14366  TIP3      OH2           -13.9905217208       -0.3396018871      -54.6336690662  TIP3      14174           0.0000000000
     64773     14366  TIP3      H1            -13.8478847722       -0.7666790463      -53.7590502733  TIP3      14174           0.0000000000
     64774     14366  TIP3      H2            -14.8350066843       -0.7597597874      -54.8769101960  TIP3      14174           0.0000000000
     64775     14367  TIP3      OH2            -4.5815215165       -0.0283286519      -59.4699836286  TIP3      14175           0.0000000000
     64776     14367  TIP3      H1             -4.1265415851       -0.7864864960      -59.9040621986  TIP3      14175           0.0000000000
     64777     14367  TIP3      H2             -4.5408165694       -0.2897561295      -58.5267471536  TIP3      14175           0.0000000000
     64778     14368  TIP3      OH2            -4.8854576889       -0.0912648072      -56.6943582722  TIP3      14176           0.0000000000
     64779     14368  TIP3      H1             -5.8469675582       -0.0201158311      -56.5243208346  TIP3      14176           0.0000000000
     64780     14368  TIP3      H2             -4.6510882769       -0.8351028432      -56.1182133325  TIP3      14176           0.0000000000
     64781     14369  TIP3      OH2            -1.9053584620      -11.0340205650      -44.6310583493  TIP3      14177           0.0000000000
     64782     14369  TIP3      H1             -2.3660906114      -10.6180943961      -45.3750306814  TIP3      14177           0.0000000000
     64783     14369  TIP3      H2             -1.9008977158      -11.9610811147      -44.9232706201  TIP3      14177           0.0000000000
     64784     14370  TIP3      OH2           -14.7480275567       -4.6465065761      -46.6315055229  TIP3      14178           0.0000000000
     64785     14370  TIP3      H1            -14.5266269667       -5.0115210961      -45.7497366776  TIP3      14178           0.0000000000
     64786     14370  TIP3      H2            -15.6174220792       -5.0445569032      -46.8439823404  TIP3      14178           0.0000000000
     64787     14371  TIP3      OH2           -12.0811336381      -16.1898848967      -50.6672580670  TIP3      14179           0.0000000000
     64788     14371  TIP3      H1            -12.9795222038      -16.3009860528      -51.0471542910  TIP3      14179           0.0000000000
     64789     14371  TIP3      H2            -12.1849183429      -15.3336444976      -50.2219218249  TIP3      14179           0.0000000000
     64790     14372  TIP3      OH2            -7.4255609822      -16.5068275327      -47.3210710650  TIP3      14180           0.0000000000
     64791     14372  TIP3      H1             -7.0359301934      -16.9349114191      -46.5362556252  TIP3      14180           0.0000000000
     64792     14372  TIP3      H2             -8.3974578976      -16.6224595780      -47.1754079765  TIP3      14180           0.0000000000
     64793     14373  TIP3      OH2            -4.1353173966      -12.6523401689      -46.4168981570  TIP3      14181           0.0000000000
     64794     14373  TIP3      H1             -4.7026199597      -12.8755046039      -45.6401654626  TIP3      14181           0.0000000000
     64795     14373  TIP3      H2             -4.3366993315      -11.7332075046      -46.6634517793  TIP3      14181           0.0000000000
     64796     14374  TIP3      OH2            -3.3802990620       -7.8372785038      -60.5258229889  TIP3      14182           0.0000000000
     64797     14374  TIP3      H1             -3.3986392685       -8.0326614788      -61.4912121113  TIP3      14182           0.0000000000
     64798     14374  TIP3      H2             -2.5201523576       -7.3975185705      -60.4725400317  TIP3      14182           0.0000000000
     64799     14375  TIP3      OH2            -7.7846821829      -13.9186330012      -60.0125807649  TIP3      14183           0.0000000000
     64800     14375  TIP3      H1             -8.0990946023      -13.9848374048      -59.0922715557  TIP3      14183           0.0000000000
     64801     14375  TIP3      H2             -8.0916778550      -14.7963232099      -60.3186200765  TIP3      14183           0.0000000000
     64802     14376  TIP3      OH2           -11.9566373195      -11.1863223174      -49.4151867200  TIP3      14184           0.0000000000
     64803     14376  TIP3      H1            -12.7074166195      -11.2026761526      -48.7975056082  TIP3      14184           0.0000000000
     64804     14376  TIP3      H2            -12.0064572601      -10.2923151111      -49.8166888939  TIP3      14184           0.0000000000
     64805     14377  TIP3      OH2           -12.0756165512      -11.0374223741      -54.6106424357  TIP3      14185           0.0000000000
     64806     14377  TIP3      H1            -12.9856043386      -11.3579563437      -54.7153170099  TIP3      14185           0.0000000000
     64807     14377  TIP3      H2            -11.6147641615      -11.3898501339      -55.3892699578  TIP3      14185           0.0000000000
     64808     14378  TIP3      OH2            -6.4732252597      -10.5813425811      -55.7924262950  TIP3      14186           0.0000000000
     64809     14378  TIP3      H1             -6.8917015238       -9.7659375267      -56.1444547358  TIP3      14186           0.0000000000
     64810     14378  TIP3      H2             -5.7962502561      -10.7489804344      -56.4614268398  TIP3      14186           0.0000000000
     64811     14379  TIP3      OH2            -7.4358670188      -10.3726958339      -44.3592356001  TIP3      14187           0.0000000000
     64812     14379  TIP3      H1             -7.9641949869      -11.1458446320      -44.0496682541  TIP3      14187           0.0000000000
     64813     14379  TIP3      H2             -6.6012500998      -10.5100401034      -43.8841182785  TIP3      14187           0.0000000000
     64814     14380  TIP3      OH2            -5.3526902762      -11.0712253858      -52.9829290211  TIP3      14188           0.0000000000
     64815     14380  TIP3      H1             -5.7723198698      -10.5388761903      -53.6754075332  TIP3      14188           0.0000000000
     64816     14380  TIP3      H2             -5.3897576926      -11.9443973787      -53.4085879809  TIP3      14188           0.0000000000
     64817     14381  TIP3      OH2           -14.3467229193      -10.9491182483      -47.7500656357  TIP3      14189           0.0000000000
     64818     14381  TIP3      H1            -14.2616843853      -10.5418943350      -46.8704045122  TIP3      14189           0.0000000000
     64819     14381  TIP3      H2            -14.7850375593      -11.7886885190      -47.5392639904  TIP3      14189           0.0000000000
     64820     14382  TIP3      OH2           -10.9728482307      -13.5539075880      -60.8968424339  TIP3      14190           0.0000000000
     64821     14382  TIP3      H1            -11.4262534488      -13.9714496364      -60.1354233059  TIP3      14190           0.0000000000
     64822     14382  TIP3      H2            -11.6832370072      -13.1208647128      -61.3854056831  TIP3      14190           0.0000000000
     64823     14383  TIP3      OH2           -17.6867901083      -13.8405950128      -53.7599097132  TIP3      14191           0.0000000000
     64824     14383  TIP3      H1            -17.0019876141      -13.8795080257      -53.0595598302  TIP3      14191           0.0000000000
     64825     14383  TIP3      H2            -17.2380642449      -14.2143745245      -54.5403631787  TIP3      14191           0.0000000000
     64826     14384  TIP3      OH2           -16.4229498516      -13.1217642488      -58.4150375024  TIP3      14192           0.0000000000
     64827     14384  TIP3      H1            -15.9034470031      -12.5074466802      -58.9653041973  TIP3      14192           0.0000000000
     64828     14384  TIP3      H2            -17.1092047639      -12.4983505558      -58.0938826173  TIP3      14192           0.0000000000
     64829     14385  TIP3      OH2            -6.2424922149       -9.5133339279      -48.3929560559  TIP3      14193           0.0000000000
     64830     14385  TIP3      H1             -5.9077936979      -10.1975482447      -49.0117386748  TIP3      14193           0.0000000000
     64831     14385  TIP3      H2             -6.7225707529      -10.0386069336      -47.7286066036  TIP3      14193           0.0000000000
     64832     14386  TIP3      OH2            -9.5727454643      -14.3426452142      -53.4955293477  TIP3      14194           0.0000000000
     64833     14386  TIP3      H1            -10.2792395316      -13.6715366988      -53.4267755549  TIP3      14194           0.0000000000
     64834     14386  TIP3      H2             -8.9680663237      -13.8066114037      -52.9419880816  TIP3      14194           0.0000000000
     64835     14387  TIP3      OH2           -14.6734775033      -11.9794274384      -54.6887963019  TIP3      14195           0.0000000000
     64836     14387  TIP3      H1            -15.5475271209      -11.8296092578      -55.0959374578  TIP3      14195           0.0000000000
     64837     14387  TIP3      H2            -14.3539312275      -12.8030733809      -55.0936381234  TIP3      14195           0.0000000000
     64838     14388  TIP3      OH2           -11.0081169715      -11.9529767891      -57.1013537909  TIP3      14196           0.0000000000
     64839     14388  TIP3      H1            -10.0638308060      -11.8248187702      -56.8869659511  TIP3      14196           0.0000000000
     64840     14388  TIP3      H2            -11.2351404422      -11.2298079563      -57.7085991898  TIP3      14196           0.0000000000
     64841     14389  TIP3      OH2            -5.0409627551      -14.3103641756      -50.3108351596  TIP3      14197           0.0000000000
     64842     14389  TIP3      H1             -5.7384973627      -14.2352375977      -49.6238543647  TIP3      14197           0.0000000000
     64843     14389  TIP3      H2             -5.5606560320      -14.5308049979      -51.1028297100  TIP3      14197           0.0000000000
     64844     14390  TIP3      OH2           -12.2950095767      -10.7493560136      -59.4772275682  TIP3      14198           0.0000000000
     64845     14390  TIP3      H1            -12.8262102024      -11.1340448246      -60.1950717060  TIP3      14198           0.0000000000
     64846     14390  TIP3      H2            -11.4723725804      -10.5478428781      -59.9492536707  TIP3      14198           0.0000000000
     64847     14391  TIP3      OH2            -1.8461931182        1.3464162888      -43.9936450897  TIP3      14199           0.0000000000
     64848     14391  TIP3      H1             -1.5805976092        1.7319623982      -44.8475968124  TIP3      14199           0.0000000000
     64849     14391  TIP3      H2             -1.1230643257        1.6682787667      -43.4347219713  TIP3      14199           0.0000000000
     64850     14392  TIP3      OH2           -14.1695667187       -6.1813862657      -44.4210478111  TIP3      14200           0.0000000000
     64851     14392  TIP3      H1            -13.4491745559       -5.9366586046      -43.8174755134  TIP3      14200           0.0000000000
     64852     14392  TIP3      H2            -14.9422613734       -6.1020859868      -43.8198056317  TIP3      14200           0.0000000000
     64853     14393  TIP3      OH2            -7.6357357378      -10.6918672607      -51.1791970924  TIP3      14201           0.0000000000
     64854     14393  TIP3      H1             -7.6482683020      -11.0873945195      -52.0823062801  TIP3      14201           0.0000000000
     64855     14393  TIP3      H2             -8.3494662602      -11.2503427422      -50.8532217252  TIP3      14201           0.0000000000
     64856     14394  TIP3      OH2           -13.1889975302      -14.6411346139      -55.2615017102  TIP3      14202           0.0000000000
     64857     14394  TIP3      H1            -13.4621956949      -15.5763955682      -55.2515729823  TIP3      14202           0.0000000000
     64858     14394  TIP3      H2            -12.3643874193      -14.6893865647      -55.7619555319  TIP3      14202           0.0000000000
     64859     14395  TIP3      OH2            -9.5471775887      -12.4705338634      -49.2155578006  TIP3      14203           0.0000000000
     64860     14395  TIP3      H1            -10.3504441222      -11.9151576186      -49.1841983541  TIP3      14203           0.0000000000
     64861     14395  TIP3      H2             -8.9664497302      -12.0748305019      -48.5414318767  TIP3      14203           0.0000000000
     64862     14396  TIP3      OH2            -8.9404781387       -6.2272872471      -57.5508145848  TIP3      14204           0.0000000000
     64863     14396  TIP3      H1             -9.7438673131       -6.6869603763      -57.8901150120  TIP3      14204           0.0000000000
     64864     14396  TIP3      H2             -9.1693524670       -6.0992709986      -56.6082183761  TIP3      14204           0.0000000000
     64865     14397  TIP3      OH2            -1.7552167436       -7.0172907718      -48.7504551573  TIP3      14205           0.0000000000
     64866     14397  TIP3      H1             -1.1919660878       -6.5353039155      -49.3837377354  TIP3      14205           0.0000000000
     64867     14397  TIP3      H2             -2.6142497577       -6.9739169002      -49.2165726403  TIP3      14205           0.0000000000
     64868     14398  TIP3      OH2            -5.1132098177      -13.4062609205      -59.3844406061  TIP3      14206           0.0000000000
     64869     14398  TIP3      H1             -6.0653521917      -13.2543318256      -59.5141702853  TIP3      14206           0.0000000000
     64870     14398  TIP3      H2             -4.7737630759      -12.5576428343      -59.0266682950  TIP3      14206           0.0000000000
     64871     14399  TIP3      OH2            -7.4081702350       -5.9476318412      -46.2850411637  TIP3      14207           0.0000000000
     64872     14399  TIP3      H1             -7.8302636138       -6.3847681917      -45.5383000429  TIP3      14207           0.0000000000
     64873     14399  TIP3      H2             -7.7185281370       -5.0347878878      -46.2183082194  TIP3      14207           0.0000000000
     64874     14400  TIP3      OH2            -4.3766617670      -11.4860738847      -57.7568995411  TIP3      14208           0.0000000000
     64875     14400  TIP3      H1             -3.4954979668      -11.6204577991      -57.3461132958  TIP3      14208           0.0000000000
     64876     14400  TIP3      H2             -4.2703347495      -10.6652480291      -58.2655070134  TIP3      14208           0.0000000000
     64877     14401  TIP3      OH2           -13.8312643281       -6.8240613025      -51.7548617063  TIP3      14209           0.0000000000
     64878     14401  TIP3      H1            -13.1516246195       -6.9094462042      -52.4526554580  TIP3      14209           0.0000000000
     64879     14401  TIP3      H2            -13.7707239796       -7.6830317951      -51.2981568154  TIP3      14209           0.0000000000
     64880     14402  TIP3      OH2            -6.8486288704       -4.7533844334      -58.5237836676  TIP3      14210           0.0000000000
     64881     14402  TIP3      H1             -7.1918658315       -3.9085441251      -58.1658538765  TIP3      14210           0.0000000000
     64882     14402  TIP3      H2             -7.5795140915       -5.3708233703      -58.3042368342  TIP3      14210           0.0000000000
     64883     14403  TIP3      OH2           -16.8408310111       -8.4253481320      -46.4935850732  TIP3      14211           0.0000000000
     64884     14403  TIP3      H1            -16.6729524038       -8.8691390801      -45.6396161441  TIP3      14211           0.0000000000
     64885     14403  TIP3      H2            -17.4632117694       -9.0340992396      -46.9319976551  TIP3      14211           0.0000000000
     64886     14404  TIP3      OH2            -9.8291757787       -8.8620058748      -44.3160970352  TIP3      14212           0.0000000000
     64887     14404  TIP3      H1            -10.1500983204       -9.1737015774      -45.1767018198  TIP3      14212           0.0000000000
     64888     14404  TIP3      H2             -8.9075863366       -9.1890150389      -44.3179905115  TIP3      14212           0.0000000000
     64889     14405  TIP3      OH2            -5.1439781810       -3.5560734091      -46.3430832942  TIP3      14213           0.0000000000
     64890     14405  TIP3      H1             -6.0574468803       -3.3478410786      -46.6101095247  TIP3      14213           0.0000000000
     64891     14405  TIP3      H2             -5.1908669702       -3.2167362585      -45.4300182153  TIP3      14213           0.0000000000
     64892     14406  TIP3      OH2             0.5288949291      -11.3564385493      -57.9794304959  TIP3      14214           0.0000000000
     64893     14406  TIP3      H1             -0.0443043820      -11.6368297493      -58.7168280137  TIP3      14214           0.0000000000
     64894     14406  TIP3      H2              0.6028362366      -10.4063583481      -58.2271879173  TIP3      14214           0.0000000000
     64895     14407  TIP3      OH2             0.4975844765       -5.5070145236      -45.1642342455  TIP3      14215           0.0000000000
     64896     14407  TIP3      H1             -0.3720755811       -5.2596798840      -45.5562578276  TIP3      14215           0.0000000000
     64897     14407  TIP3      H2              1.0653438734       -5.5389180287      -45.9663496482  TIP3      14215           0.0000000000
     64898     14408  TIP3      OH2            -1.2222083415       -2.5196513954      -57.5821203010  TIP3      14216           0.0000000000
     64899     14408  TIP3      H1             -1.5515204467       -3.3567685607      -57.2329169029  TIP3      14216           0.0000000000
     64900     14408  TIP3      H2             -0.8664319879       -2.7391651510      -58.4588677097  TIP3      14216           0.0000000000
     64901     14409  TIP3      OH2            -3.9787950246       -7.7006674148      -50.4747487797  TIP3      14217           0.0000000000
     64902     14409  TIP3      H1             -4.9200837505       -7.9161540370      -50.5756903571  TIP3      14217           0.0000000000
     64903     14409  TIP3      H2             -3.5495517114       -8.4649320521      -50.9050760833  TIP3      14217           0.0000000000
     64904     14410  TIP3      OH2           -11.4654947615       -3.3735842748      -54.3625705676  TIP3      14218           0.0000000000
     64905     14410  TIP3      H1            -10.9605624297       -2.5714624812      -54.5747760746  TIP3      14218           0.0000000000
     64906     14410  TIP3      H2            -12.3404480609       -3.1428347546      -54.7013317381  TIP3      14218           0.0000000000
     64907     14411  TIP3      OH2           -15.6925003198       -8.5336294607      -59.7990991549  TIP3      14219           0.0000000000
     64908     14411  TIP3      H1            -15.1133404197       -7.8685951934      -59.3891013455  TIP3      14219           0.0000000000
     64909     14411  TIP3      H2            -16.5826340372       -8.2201336027      -59.5502914861  TIP3      14219           0.0000000000
     64910     14412  TIP3      OH2           -10.0496187540       -5.7062155677      -54.8607306719  TIP3      14220           0.0000000000
     64911     14412  TIP3      H1            -10.3629412297       -4.7877835071      -54.7573670480  TIP3      14220           0.0000000000
     64912     14412  TIP3      H2            -10.7625229246       -6.2067014565      -54.4142801991  TIP3      14220           0.0000000000
     64913     14413  TIP3      OH2            -9.5944112767       -1.5227982288      -48.4384785749  TIP3      14221           0.0000000000
     64914     14413  TIP3      H1             -9.1341679019       -0.7188631563      -48.7265858315  TIP3      14221           0.0000000000
     64915     14413  TIP3      H2             -8.9778008363       -1.8650024299      -47.7663745865  TIP3      14221           0.0000000000
     64916     14414  TIP3      OH2           -11.3667632271       -0.6997580783      -55.3541582950  TIP3      14222           0.0000000000
     64917     14414  TIP3      H1            -12.3306124196       -0.6053560266      -55.1719467122  TIP3      14222           0.0000000000
     64918     14414  TIP3      H2            -11.0040060814        0.1044638487      -54.9555270314  TIP3      14222           0.0000000000
     64919     14415  TIP3      OH2            -6.0545777764       -5.5017539818      -48.8110734253  TIP3      14223           0.0000000000
     64920     14415  TIP3      H1             -6.3945449143       -5.7136168434      -47.9145522305  TIP3      14223           0.0000000000
     64921     14415  TIP3      H2             -5.4395087031       -6.2310940154      -48.9944774852  TIP3      14223           0.0000000000
     64922     14416  TIP3      OH2            -3.7302804774       -4.4469556436      -59.7330866503  TIP3      14224           0.0000000000
     64923     14416  TIP3      H1             -3.4362875111       -4.9227024114      -58.9298099818  TIP3      14224           0.0000000000
     64924     14416  TIP3      H2             -4.6839474643       -4.6328319239      -59.6530742181  TIP3      14224           0.0000000000
     64925     14417  TIP3      OH2            -3.2520614185       -0.9419518943      -46.3331297525  TIP3      14225           0.0000000000
     64926     14417  TIP3      H1             -3.9422398872       -1.4371681384      -46.8125317596  TIP3      14225           0.0000000000
     64927     14417  TIP3      H2             -3.0694446750       -0.2425989548      -46.9980309432  TIP3      14225           0.0000000000
     64928     14418  TIP3      OH2             0.7323007580       -0.0977465154      -59.4781801988  TIP3      14226           0.0000000000
     64929     14418  TIP3      H1              1.4194717811        0.5675773350      -59.6846393813  TIP3      14226           0.0000000000
     64930     14418  TIP3      H2              0.0169189023        0.5132835557      -59.1935263112  TIP3      14226           0.0000000000
     64931     14419  TIP3      OH2           -15.1926818146      -13.6898581769      -46.9469106806  TIP3      14227           0.0000000000
     64932     14419  TIP3      H1            -16.0989774570      -13.3375493831      -46.9649067754  TIP3      14227           0.0000000000
     64933     14419  TIP3      H2            -15.3037792401      -14.5349294181      -46.4827741452  TIP3      14227           0.0000000000
     64934     14420  TIP3      OH2            -2.9585035137       -5.8155508841      -57.4918646788  TIP3      14228           0.0000000000
     64935     14420  TIP3      H1             -3.1949298973       -6.6021585919      -56.9541495059  TIP3      14228           0.0000000000
     64936     14420  TIP3      H2             -2.0038877619       -5.7722163630      -57.3137513538  TIP3      14228           0.0000000000
     64937     14421  TIP3      OH2           -15.5803551404       -1.9069251567      -48.5176531420  TIP3      14229           0.0000000000
     64938     14421  TIP3      H1            -15.2754135449       -2.8273140493      -48.5102169569  TIP3      14229           0.0000000000
     64939     14421  TIP3      H2            -15.3173229577       -1.6147299415      -47.6373723291  TIP3      14229           0.0000000000
     64940     14422  TIP3      OH2            -9.6037163148       -3.3770063749      -61.2379316941  TIP3      14230           0.0000000000
     64941     14422  TIP3      H1             -9.5041324574       -4.1425173402      -61.8280277545  TIP3      14230           0.0000000000
     64942     14422  TIP3      H2            -10.0458809133       -3.8087465084      -60.4736985856  TIP3      14230           0.0000000000
     64943     14423  TIP3      OH2           -10.8326063399       -3.8495053983      -58.7852665018  TIP3      14231           0.0000000000
     64944     14423  TIP3      H1            -10.5617647842       -4.3655488730      -58.0161683461  TIP3      14231           0.0000000000
     64945     14423  TIP3      H2            -10.7392686847       -2.9231293849      -58.4615969824  TIP3      14231           0.0000000000
     64946     14424  TIP3      OH2           -14.2891086318       -6.6045200856      -58.3017200878  TIP3      14232           0.0000000000
     64947     14424  TIP3      H1            -15.0033897209       -6.2092365063      -57.7627179057  TIP3      14232           0.0000000000
     64948     14424  TIP3      H2            -13.7836937026       -5.8244664679      -58.5943862963  TIP3      14232           0.0000000000
     64949     14425  TIP3      OH2            -6.4649120751      -13.9153841036      -47.9774254721  TIP3      14233           0.0000000000
     64950     14425  TIP3      H1             -5.7442387887      -13.8547906105      -47.3409948802  TIP3      14233           0.0000000000
     64951     14425  TIP3      H2             -6.8424314433      -14.7943811649      -47.7763592954  TIP3      14233           0.0000000000
     64952     14426  TIP3      OH2            -5.6880382689      -14.3750162368      -56.9193213687  TIP3      14234           0.0000000000
     64953     14426  TIP3      H1             -5.4729763960      -13.8854267662      -57.7365735773  TIP3      14234           0.0000000000
     64954     14426  TIP3      H2             -5.1551287868      -13.9037355213      -56.2605250908  TIP3      14234           0.0000000000
     64955     14427  TIP3      OH2            -8.0272546301       -2.1883249682      -58.0914650605  TIP3      14235           0.0000000000
     64956     14427  TIP3      H1             -8.8444197297       -1.6546983272      -58.0175911360  TIP3      14235           0.0000000000
     64957     14427  TIP3      H2             -7.4879386939       -1.6377376554      -58.6770273613  TIP3      14235           0.0000000000
     64958     14428  TIP3      OH2            -8.4548266640      -12.6353282316      -56.0953824114  TIP3      14236           0.0000000000
     64959     14428  TIP3      H1             -7.7166852191      -12.0034968317      -56.0176564685  TIP3      14236           0.0000000000
     64960     14428  TIP3      H2             -8.7609717019      -12.6502443336      -55.1606961018  TIP3      14236           0.0000000000
     64961     14429  TIP3      OH2            -7.9281806335      -11.5622806339      -46.8806636801  TIP3      14237           0.0000000000
     64962     14429  TIP3      H1             -7.8509179810      -11.0135844234      -46.0765689234  TIP3      14237           0.0000000000
     64963     14429  TIP3      H2             -7.2775764531      -12.2715994924      -46.7950747768  TIP3      14237           0.0000000000
     64964     14430  TIP3      OH2            -7.6143529806      -15.5419390635      -55.1902504509  TIP3      14238           0.0000000000
     64965     14430  TIP3      H1             -7.9954203784      -14.8982728801      -54.5590239650  TIP3      14238           0.0000000000
     64966     14430  TIP3      H2             -6.9434315096      -14.9759252752      -55.6354136829  TIP3      14238           0.0000000000
     64967     14431  TIP3      OH2           -10.6188024800       -1.1517430163      -58.0639171249  TIP3      14239           0.0000000000
     64968     14431  TIP3      H1            -10.5307844445       -0.3416437347      -58.6163472035  TIP3      14239           0.0000000000
     64969     14431  TIP3      H2            -10.8965899967       -0.8034012676      -57.1879634646  TIP3      14239           0.0000000000
     64970     14432  TIP3      OH2           -11.9764977004      -14.4119048727      -58.4889574625  TIP3      14240           0.0000000000
     64971     14432  TIP3      H1            -12.0178864726      -13.5223986318      -58.0795967348  TIP3      14240           0.0000000000
     64972     14432  TIP3      H2            -11.0739808203      -14.6785293760      -58.2235586417  TIP3      14240           0.0000000000
     64973     14433  TIP3      OH2            -1.7515624466      -13.6846932193      -46.0361759067  TIP3      14241           0.0000000000
     64974     14433  TIP3      H1             -2.6835201378      -13.3826895686      -46.1673068967  TIP3      14241           0.0000000000
     64975     14433  TIP3      H2             -1.4569300566      -13.7135015066      -46.9615239792  TIP3      14241           0.0000000000
     64976     14434  TIP3      OH2            -3.1371872266       -9.9135344451      -52.0415004625  TIP3      14242           0.0000000000
     64977     14434  TIP3      H1             -3.9763693381      -10.3586191216      -52.3028366063  TIP3      14242           0.0000000000
     64978     14434  TIP3      H2             -2.6679945854      -10.6004059062      -51.5159481337  TIP3      14242           0.0000000000
     64979     14435  TIP3      OH2           -13.7471319846       -3.9913541541      -59.4412572597  TIP3      14243           0.0000000000
     64980     14435  TIP3      H1            -13.0801810388       -3.3637771279      -59.1249064690  TIP3      14243           0.0000000000
     64981     14435  TIP3      H2            -13.2233153626       -4.4558650857      -60.1248280155  TIP3      14243           0.0000000000
     64982     14436  TIP3      OH2           -15.4024584208      -11.3177596572      -60.2961195038  TIP3      14244           0.0000000000
     64983     14436  TIP3      H1            -15.3850311246      -10.3585764057      -60.0922687067  TIP3      14244           0.0000000000
     64984     14436  TIP3      H2            -16.2941356686      -11.4925462102      -60.6040486717  TIP3      14244           0.0000000000
     64985     14437  TIP3      OH2            -2.0776478868       -0.6517452549      -50.3603913343  TIP3      14245           0.0000000000
     64986     14437  TIP3      H1             -2.1658040563        0.0282526588      -51.0556627263  TIP3      14245           0.0000000000
     64987     14437  TIP3      H2             -1.1131646709       -0.6006565068      -50.1861065703  TIP3      14245           0.0000000000
     64988     14438  TIP3      OH2           -14.6104199306      -16.5325423756      -51.5418132969  TIP3      14246           0.0000000000
     64989     14438  TIP3      H1            -14.7662819049      -16.5116609111      -52.5127122997  TIP3      14246           0.0000000000
     64990     14438  TIP3      H2            -15.0078247693      -17.3964079636      -51.3055903062  TIP3      14246           0.0000000000
     64991     14439  TIP3      OH2           -15.6281661247       -2.6085608446      -55.4041376300  TIP3      14247           0.0000000000
     64992     14439  TIP3      H1            -16.4824089449       -2.1625839528      -55.4526908227  TIP3      14247           0.0000000000
     64993     14439  TIP3      H2            -15.1544215758       -2.1453201395      -56.1079086467  TIP3      14247           0.0000000000
     64994     14440  TIP3      OH2           -16.4278423535        0.0407313938      -44.1264514220  TIP3      14248           0.0000000000
     64995     14440  TIP3      H1            -15.8214342202       -0.1596909074      -43.3860670056  TIP3      14248           0.0000000000
     64996     14440  TIP3      H2            -16.8258995425       -0.8291452359      -44.3066026457  TIP3      14248           0.0000000000
     64997     14441  TIP3      OH2           -11.7377614510       -1.0443963797      -42.5161016627  TIP3      14249           0.0000000000
     64998     14441  TIP3      H1            -10.9825966490       -1.5434052179      -42.1833210091  TIP3      14249           0.0000000000
     64999     14441  TIP3      H2            -11.7686078389       -1.3207601409      -43.4519061626  TIP3      14249           0.0000000000
     65000     14442  TIP3      OH2            -7.6102025396       -1.5270471587      -61.1141024011  TIP3      14250           0.0000000000
     65001     14442  TIP3      H1             -8.3022272911       -2.1873376721      -60.8872183037  TIP3      14250           0.0000000000
     65002     14442  TIP3      H2             -6.8916421239       -2.1253609321      -61.3625866557  TIP3      14250           0.0000000000
     65003     14443  TIP3      OH2            -5.2236858601       -2.6709092474      -43.7829785885  TIP3      14251           0.0000000000
     65004     14443  TIP3      H1             -5.5835127622       -3.5307762838      -43.4831594759  TIP3      14251           0.0000000000
     65005     14443  TIP3      H2             -4.4788250318       -2.5079310788      -43.1707694118  TIP3      14251           0.0000000000
     65006     14444  TIP3      OH2            -3.0516625516       -1.7833142558      -60.9282189416  TIP3      14252           0.0000000000
     65007     14444  TIP3      H1             -2.7556474026       -2.5592882778      -60.4249344704  TIP3      14252           0.0000000000
     65008     14444  TIP3      H2             -2.2890956604       -1.5581328943      -61.4804544830  TIP3      14252           0.0000000000
     65009     14445  TIP3      OH2           -16.5158668651       -6.1875388441      -43.1281444681  TIP3      14253           0.0000000000
     65010     14445  TIP3      H1            -16.3492683081       -7.0989468019      -43.4297736261  TIP3      14253           0.0000000000
     65011     14445  TIP3      H2            -17.2553929507       -5.9295434206      -43.7028874758  TIP3      14253           0.0000000000
     65012     14446  TIP3      OH2           -12.1640337860       -5.8417978006      -61.1103436616  TIP3      14254           0.0000000000
     65013     14446  TIP3      H1            -12.0254471779       -6.6033219978      -60.5270246331  TIP3      14254           0.0000000000
     65014     14446  TIP3      H2            -11.4160539793       -5.9608087871      -61.7278237145  TIP3      14254           0.0000000000
     65015     14447  TIP3      OH2            -9.7965366411       -6.1980037031      -43.7441783184  TIP3      14255           0.0000000000
     65016     14447  TIP3      H1            -10.1343081870       -5.8865985727      -44.6064148549  TIP3      14255           0.0000000000
     65017     14447  TIP3      H2             -9.7240716636       -7.1770322297      -43.8511499227  TIP3      14255           0.0000000000
     65018     14448  TIP3      OH2            -6.7339423329       -4.7334304375      -61.3321268414  TIP3      14256           0.0000000000
     65019     14448  TIP3      H1             -7.0041195406       -4.6522928691      -60.4038267733  TIP3      14256           0.0000000000
     65020     14448  TIP3      H2             -6.9233049012       -5.6910450433      -61.4766267737  TIP3      14256           0.0000000000
     65021     14449  TIP3      OH2            -4.0942041158       -6.3288736526      -46.2591472213  TIP3      14257           0.0000000000
     65022     14449  TIP3      H1             -3.3195373476       -5.7525319045      -46.4445272531  TIP3      14257           0.0000000000
     65023     14449  TIP3      H2             -4.8087480106       -5.6761847112      -46.3495780304  TIP3      14257           0.0000000000
     65024     14450  TIP3      OH2           -15.5925993680       -8.9623632383      -43.7488280069  TIP3      14258           0.0000000000
     65025     14450  TIP3      H1            -15.1757314345       -9.8255375896      -43.8391297112  TIP3      14258           0.0000000000
     65026     14450  TIP3      H2            -15.8268887333       -8.9565599746      -42.8067543220  TIP3      14258           0.0000000000
     65027     14451  TIP3      OH2           -10.9525848097       -7.8278090251      -58.6755276067  TIP3      14259           0.0000000000
     65028     14451  TIP3      H1            -11.4725200941       -8.3642217412      -58.0596515147  TIP3      14259           0.0000000000
     65029     14451  TIP3      H2            -10.6622583435       -8.4984620088      -59.3358445381  TIP3      14259           0.0000000000
     65030     14452  TIP3      OH2           -11.6943024822      -10.0171854850      -46.3942861927  TIP3      14260           0.0000000000
     65031     14452  TIP3      H1            -12.2921834856       -9.2966913269      -46.1386482844  TIP3      14260           0.0000000000
     65032     14452  TIP3      H2            -11.2961941372       -9.6497058942      -47.2015924853  TIP3      14260           0.0000000000
     65033     14453  TIP3      OH2            -9.8856291864       -9.6009663413      -60.4813362592  TIP3      14261           0.0000000000
     65034     14453  TIP3      H1            -10.0395892198       -9.6921240920      -61.4424094922  TIP3      14261           0.0000000000
     65035     14453  TIP3      H2             -8.9095122054       -9.5502208237      -60.4157435244  TIP3      14261           0.0000000000
     65036     14454  TIP3      OH2            -6.6135633216       -7.4302997913      -43.0315370267  TIP3      14262           0.0000000000
     65037     14454  TIP3      H1             -5.6749615402       -7.5061610677      -43.2111216560  TIP3      14262           0.0000000000
     65038     14454  TIP3      H2             -6.8205754889       -8.2213356493      -42.4998556955  TIP3      14262           0.0000000000
     65039     14455  TIP3      OH2            -0.5563599585       -7.2829659305      -61.0718378968  TIP3      14263           0.0000000000
     65040     14455  TIP3      H1             -0.7474845067       -7.6627594470      -61.9425567233  TIP3      14263           0.0000000000
     65041     14455  TIP3      H2             -0.4678641312       -6.3199776493      -61.2577478335  TIP3      14263           0.0000000000
     65042     14456  TIP3      OH2           -11.2895171712      -12.6402227719      -45.3375705185  TIP3      14264           0.0000000000
     65043     14456  TIP3      H1            -11.1725595467      -13.3486063990      -45.9969199655  TIP3      14264           0.0000000000
     65044     14456  TIP3      H2            -11.3334368684      -11.8292847833      -45.8867965812  TIP3      14264           0.0000000000
     65045     14457  TIP3      OH2           -10.8858745307      -14.2575496010      -47.7997657854  TIP3      14265           0.0000000000
     65046     14457  TIP3      H1            -10.3769593830      -13.7838413381      -48.5069236751  TIP3      14265           0.0000000000
     65047     14457  TIP3      H2            -11.7815734410      -14.3364299142      -48.1975551041  TIP3      14265           0.0000000000
     65048     14458  TIP3      OH2            -9.3476348123       -8.7672966074      -47.5423103385  TIP3      14266           0.0000000000
     65049     14458  TIP3      H1             -8.6035735619       -8.9431706604      -48.1324831872  TIP3      14266           0.0000000000
     65050     14458  TIP3      H2             -9.7159918842       -7.9293449996      -47.8711431209  TIP3      14266           0.0000000000
     65051     14459  TIP3      OH2            -4.9385492687      -10.9951370563      -42.5857063401  TIP3      14267           0.0000000000
     65052     14459  TIP3      H1             -4.7162536449      -11.9342087547      -42.6751063769  TIP3      14267           0.0000000000
     65053     14459  TIP3      H2             -4.0651875986      -10.5865670888      -42.5400138727  TIP3      14267           0.0000000000
     65054     14460  TIP3      OH2            -3.5755672372       -8.1083448271      -44.3221893486  TIP3      14268           0.0000000000
     65055     14460  TIP3      H1             -3.8671241739       -7.5327104942      -45.0717309230  TIP3      14268           0.0000000000
     65056     14460  TIP3      H2             -2.6571795174       -8.2899147957      -44.6242237719  TIP3      14268           0.0000000000
     65057     14461  TIP3      OH2           -12.8267653141      -11.3874467440      -43.4180233065  TIP3      14269           0.0000000000
     65058     14461  TIP3      H1            -13.5966772824      -11.9661762584      -43.5848641487  TIP3      14269           0.0000000000
     65059     14461  TIP3      H2            -12.1734352754      -11.7581620054      -44.0385158477  TIP3      14269           0.0000000000
     65060     14462  TIP3      OH2           -10.0997088195      -16.8207342725      -47.3874031292  TIP3      14270           0.0000000000
     65061     14462  TIP3      H1            -10.2802095192      -15.8586174053      -47.4978099331  TIP3      14270           0.0000000000
     65062     14462  TIP3      H2            -10.8440850207      -17.2029602028      -47.8884714041  TIP3      14270           0.0000000000
     65063     14463  TIP3      OH2            -8.8273287639      -12.4912659638      -43.7652290631  TIP3      14271           0.0000000000
     65064     14463  TIP3      H1             -9.1421566449      -12.7253121098      -42.8705642544  TIP3      14271           0.0000000000
     65065     14463  TIP3      H2             -9.6077516417      -12.6946287541      -44.3081999722  TIP3      14271           0.0000000000
     65066     14464  TIP3      OH2            -6.1049023220      -13.3454873365      -44.6749918030  TIP3      14272           0.0000000000
     65067     14464  TIP3      H1             -7.0700681365      -13.2941315352      -44.5680281028  TIP3      14272           0.0000000000
     65068     14464  TIP3      H2             -5.8409238795      -13.9880742039      -43.9883859671  TIP3      14272           0.0000000000
     65069     14465  TIP3      OH2            -4.5249593189      -14.7285371020      -42.7789143960  TIP3      14273           0.0000000000
     65070     14465  TIP3      H1             -4.5714591024      -15.7062517196      -42.7467016498  TIP3      14273           0.0000000000
     65071     14465  TIP3      H2             -4.7713176640      -14.4353605697      -41.8791341254  TIP3      14273           0.0000000000
     65072     14466  TIP3      OH2           -14.7515106459      -13.4521303772      -43.6615732470  TIP3      14274           0.0000000000
     65073     14466  TIP3      H1            -14.5000043749      -14.1874870736      -44.2477226431  TIP3      14274           0.0000000000
     65074     14466  TIP3      H2            -14.8385639215      -13.9000664952      -42.7972468915  TIP3      14274           0.0000000000
     65075     14467  TIP3      OH2            -9.8805420856      -17.4241427393      -44.6933972238  TIP3      14275           0.0000000000
     65076     14467  TIP3      H1             -9.2045191205      -18.1314123541      -44.7116547434  TIP3      14275           0.0000000000
     65077     14467  TIP3      H2             -9.9977270891      -17.2857315103      -45.6544252424  TIP3      14275           0.0000000000
     65078     14468  TIP3      OH2            -9.5203198492      -15.8144917584      -42.5771733573  TIP3      14276           0.0000000000
     65079     14468  TIP3      H1             -9.6934306237      -16.3199958509      -43.4102754800  TIP3      14276           0.0000000000
     65080     14468  TIP3      H2            -10.1195703554      -15.0498953897      -42.6782949181  TIP3      14276           0.0000000000
     65081     14469  TIP3      OH2           -10.0574058800        1.1724909078      -59.3556604992  TIP3      14277           0.0000000000
     65082     14469  TIP3      H1             -9.0803530691        1.1610528645      -59.3533863692  TIP3      14277           0.0000000000
     65083     14469  TIP3      H2            -10.1876615382        1.6740149438      -60.1732373133  TIP3      14277           0.0000000000
     65084     14470  TIP3      OH2           -16.5021710173       -4.3281717679      -59.9349343480  TIP3      14278           0.0000000000
     65085     14470  TIP3      H1            -15.5351167997       -4.2334565295      -59.7546993939  TIP3      14278           0.0000000000
     65086     14470  TIP3      H2            -16.4514403254       -4.9713314961      -60.6816855861  TIP3      14278           0.0000000000
     65087     14471  TIP3      OH2           -17.7146912937        1.0615095408      -54.9697425871  TIP3      14279           0.0000000000
     65088     14471  TIP3      H1            -18.4362661834        0.5755958571      -55.4290647712  TIP3      14279           0.0000000000
     65089     14471  TIP3      H2            -17.4387866052        0.4046211151      -54.3046660466  TIP3      14279           0.0000000000
     65090     14472  TIP3      OH2           -16.8966644827       -0.8047880202      -53.0936611794  TIP3      14280           0.0000000000
     65091     14472  TIP3      H1            -17.2486584429       -1.6840045030      -52.8946972653  TIP3      14280           0.0000000000
     65092     14472  TIP3      H2            -16.6706232065       -0.4764747433      -52.2074823040  TIP3      14280           0.0000000000
     65093     14473  TIP3      OH2             0.6428821006       -0.0095316803      -50.1643110517  TIP3      14281           0.0000000000
     65094     14473  TIP3      H1              0.6733632059        0.1509214636      -49.2052631141  TIP3      14281           0.0000000000
     65095     14473  TIP3      H2              1.3466345951        0.5733245345      -50.4672393769  TIP3      14281           0.0000000000
     65096     14474  TIP3      OH2             0.2130386966       -0.4146491041      -47.2152702586  TIP3      14282           0.0000000000
     65097     14474  TIP3      H1             -0.2548520771       -1.1841730538      -47.6001274681  TIP3      14282           0.0000000000
     65098     14474  TIP3      H2              0.7040768307       -0.8616218058      -46.5061070461  TIP3      14282           0.0000000000
     65099     14475  TIP3      OH2            -1.3615181122       -4.6721416566      -42.5259800609  TIP3      14283           0.0000000000
     65100     14475  TIP3      H1             -2.1914560339       -4.5267874963      -42.0663483808  TIP3      14283           0.0000000000
     65101     14475  TIP3      H2             -0.8888137573       -3.8830570524      -42.1760089650  TIP3      14283           0.0000000000
     65102     14476  TIP3      OH2            -0.0248262374       -6.3627759682      -57.1177283139  TIP3      14284           0.0000000000
     65103     14476  TIP3      H1              0.8424163353       -5.9731745886      -56.9309106441  TIP3      14284           0.0000000000
     65104     14476  TIP3      H2             -0.0407148708       -7.0817557623      -56.4484773827  TIP3      14284           0.0000000000
     65105     14477  TIP3      OH2             0.3366099533       -8.2868373910      -55.2263930938  TIP3      14285           0.0000000000
     65106     14477  TIP3      H1             -0.4155857938       -8.7860195206      -54.8352198334  TIP3      14285           0.0000000000
     65107     14477  TIP3      H2              0.9337684093       -8.1567052490      -54.4637706188  TIP3      14285           0.0000000000
     65108     14478  TIP3      OH2             0.0931480510       -5.5912418638      -50.2417851203  TIP3      14286           0.0000000000
     65109     14478  TIP3      H1              0.9053228041       -5.9705289585      -50.6245600609  TIP3      14286           0.0000000000
     65110     14478  TIP3      H2              0.2388761563       -4.6387765136      -50.4171978458  TIP3      14286           0.0000000000
     65111     14479  TIP3      OH2            -1.3473243908       -2.6884193874      -47.9750419862  TIP3      14287           0.0000000000
     65112     14479  TIP3      H1             -2.0380632144       -2.3470929487      -47.3862498833  TIP3      14287           0.0000000000
     65113     14479  TIP3      H2             -1.8965732955       -3.0892866309      -48.6833597364  TIP3      14287           0.0000000000
     65114     14480  TIP3      OH2             0.6376153530       -8.4638106682      -58.8376690020  TIP3      14288           0.0000000000
     65115     14480  TIP3      H1              0.0698582911       -8.1228798964      -59.5608724551  TIP3      14288           0.0000000000
     65116     14480  TIP3      H2              0.5369090759       -7.7511795467      -58.1790643571  TIP3      14288           0.0000000000
     65117     14481  TIP3      OH2            -0.9883189445      -11.2376291892      -60.3257463232  TIP3      14289           0.0000000000
     65118     14481  TIP3      H1             -0.9130674300      -10.5716067092      -61.0191490372  TIP3      14289           0.0000000000
     65119     14481  TIP3      H2             -1.1753550784      -12.0596444156      -60.8199527087  TIP3      14289           0.0000000000
     65120     14482  TIP3      OH2            -1.8400500069       -9.8163625225      -54.6613909774  TIP3      14290           0.0000000000
     65121     14482  TIP3      H1             -1.9933993618      -10.7698584827      -54.6992113525  TIP3      14290           0.0000000000
     65122     14482  TIP3      H2             -2.1740647090       -9.6002526306      -53.7726117577  TIP3      14290           0.0000000000
     65123     14483  TIP3      OH2           -16.8381373865       -7.7272001287      -50.5988734290  TIP3      14291           0.0000000000
     65124     14483  TIP3      H1            -16.6598328919       -7.8104059642      -51.5617419877  TIP3      14291           0.0000000000
     65125     14483  TIP3      H2            -15.9448423931       -7.9060034379      -50.2456153065  TIP3      14291           0.0000000000
     65126     14484  TIP3      OH2            -0.9940072720       -7.8355273565      -44.9104657731  TIP3      14292           0.0000000000
     65127     14484  TIP3      H1             -0.3834384084       -8.6089641442      -44.8552341370  TIP3      14292           0.0000000000
     65128     14484  TIP3      H2             -0.3646296574       -7.0872657118      -44.9950966114  TIP3      14292           0.0000000000
     65129     14485  TIP3      OH2             0.5026465811       -9.9579723179      -44.3062178315  TIP3      14293           0.0000000000
     65130     14485  TIP3      H1             -0.3641496803      -10.3796722650      -44.4806124051  TIP3      14293           0.0000000000
     65131     14485  TIP3      H2              1.0879192560      -10.7304085307      -44.3895034144  TIP3      14293           0.0000000000
     65132     14486  TIP3      OH2            -1.7396350109      -13.7604376771      -61.1888874947  TIP3      14294           0.0000000000
     65133     14486  TIP3      H1             -1.1524560668      -14.2009799574      -60.5455838538  TIP3      14294           0.0000000000
     65134     14486  TIP3      H2             -2.6050597571      -14.1785504003      -61.0361042689  TIP3      14294           0.0000000000
     65135     14487  TIP3      OH2            -2.1975207169      -12.2344933442      -56.2467810325  TIP3      14295           0.0000000000
     65136     14487  TIP3      H1             -1.8824584582      -13.1551012051      -56.0825464182  TIP3      14295           0.0000000000
     65137     14487  TIP3      H2             -1.3733235709      -11.8267655913      -56.5460138741  TIP3      14295           0.0000000000
     65138     14488  TIP3      OH2            -1.5380784309      -11.6877271154      -50.7571151660  TIP3      14296           0.0000000000
     65139     14488  TIP3      H1             -0.5791424220      -11.4559121947      -50.7722193081  TIP3      14296           0.0000000000
     65140     14488  TIP3      H2             -1.7260566683      -11.5475586795      -49.8177253348  TIP3      14296           0.0000000000
     65141     14489  TIP3      OH2            -1.4673197324      -10.9668726599      -47.9653640515  TIP3      14297           0.0000000000
     65142     14489  TIP3      H1             -2.3543697699      -10.6783636115      -47.6611300574  TIP3      14297           0.0000000000
     65143     14489  TIP3      H2             -1.0368552784      -10.1092136392      -48.1987791485  TIP3      14297           0.0000000000
     65144     14490  TIP3      OH2           -17.2180496361      -12.4254634790      -44.4385575059  TIP3      14298           0.0000000000
     65145     14490  TIP3      H1            -16.2811017094      -12.6410956944      -44.2530703200  TIP3      14298           0.0000000000
     65146     14490  TIP3      H2            -17.6763628879      -13.2518672685      -44.1717981858  TIP3      14298           0.0000000000
     65147     14491  TIP3      OH2             0.8014699687      -16.9023402886      -42.6372680770  TIP3      14299           0.0000000000
     65148     14491  TIP3      H1              1.1539819282      -17.5635451042      -43.2577471317  TIP3      14299           0.0000000000
     65149     14491  TIP3      H2              0.9047766247      -16.0888902591      -43.1690351875  TIP3      14299           0.0000000000
     65150     14492  TIP3      OH2            -1.4999617896      -14.9440697497      -56.1552321562  TIP3      14300           0.0000000000
     65151     14492  TIP3      H1             -1.2898071500      -15.3801294241      -55.3014134820  TIP3      14300           0.0000000000
     65152     14492  TIP3      H2             -2.1030371519      -15.5823126280      -56.5918150730  TIP3      14300           0.0000000000
     65153     14493  TIP3      OH2           -16.0259454317      -14.1370322103      -51.5931130994  TIP3      14301           0.0000000000
     65154     14493  TIP3      H1            -15.5616924254      -14.9641229386      -51.3410400246  TIP3      14301           0.0000000000
     65155     14493  TIP3      H2            -15.4702568944      -13.4435179751      -51.2110351343  TIP3      14301           0.0000000000
     65156     14494  TIP3      OH2           -17.7390862588      -11.1351492209      -50.5598838200  TIP3      14302           0.0000000000
     65157     14494  TIP3      H1            -17.1738699307      -11.3870481968      -51.3190198816  TIP3      14302           0.0000000000
     65158     14494  TIP3      H2            -17.2694396568      -10.3325991511      -50.2904473570  TIP3      14302           0.0000000000
     65159     14495  TIP3      OH2             0.3220360803      -14.8031651995      -44.2825572210  TIP3      14303           0.0000000000
     65160     14495  TIP3      H1             -0.6165453117      -14.5318089519      -44.3337751024  TIP3      14303           0.0000000000
     65161     14495  TIP3      H2              0.3554963967      -15.3550927011      -45.0787576710  TIP3      14303           0.0000000000
     65162     14496  TIP3      OH2             0.3107758638      -14.9093945574      -59.6017431790  TIP3      14304           0.0000000000
     65163     14496  TIP3      H1              0.7240691342      -15.6223908729      -60.1386139555  TIP3      14304           0.0000000000
     65164     14496  TIP3      H2              1.0162844517      -14.2478063547      -59.5497309639  TIP3      14304           0.0000000000
     65165     14497  TIP3      OH2           -17.3687354857      -14.8590813075      -56.4755060998  TIP3      14305           0.0000000000
     65166     14497  TIP3      H1            -18.3122614796      -14.7021926092      -56.6409310053  TIP3      14305           0.0000000000
     65167     14497  TIP3      H2            -16.9516316541      -14.3846494405      -57.2129268973  TIP3      14305           0.0000000000
     65168     14498  TIP3      OH2            -2.6492324637        0.0900578435      -54.5397373806  TIP3      14306           0.0000000000
     65169     14498  TIP3      H1             -1.9612389474       -0.2266833644      -55.1542138137  TIP3      14306           0.0000000000
     65170     14498  TIP3      H2             -2.1252296298        0.5728654512      -53.8840074430  TIP3      14306           0.0000000000
     65171     14499  TIP3      OH2           -17.4254254889      -16.2256602354      -48.1935112012  TIP3      14307           0.0000000000
     65172     14499  TIP3      H1            -18.0919081756      -16.4166527732      -47.5102656241  TIP3      14307           0.0000000000
     65173     14499  TIP3      H2            -17.8808695255      -15.5505690532      -48.7323202741  TIP3      14307           0.0000000000
     65174     14500  TIP3      OH2           -15.1831850014       -3.0323734587      -44.0288684038  TIP3      14308           0.0000000000
     65175     14500  TIP3      H1            -16.0203806029       -2.8054446179      -44.4678082073  TIP3      14308           0.0000000000
     65176     14500  TIP3      H2            -15.4530096194       -3.1002824281      -43.1097688971  TIP3      14308           0.0000000000
     65177     14501  TIP3      OH2           -12.2836180765       -2.0171436926      -47.7502334634  TIP3      14309           0.0000000000
     65178     14501  TIP3      H1            -12.6131531313       -1.1492953112      -48.0229177932  TIP3      14309           0.0000000000
     65179     14501  TIP3      H2            -11.3575797474       -1.9330355567      -48.0552849341  TIP3      14309           0.0000000000
     65180     14502  TIP3      OH2            -7.9644277497       -0.5946649475      -44.8480918054  TIP3      14310           0.0000000000
     65181     14502  TIP3      H1             -7.8269788942       -0.9462550563      -43.9390738644  TIP3      14310           0.0000000000
     65182     14502  TIP3      H2             -7.0610437695       -0.2906210313      -45.0895506878  TIP3      14310           0.0000000000
     65183     14503  TIP3      OH2            -5.6774830571        0.6721868482      -45.5350276152  TIP3      14311           0.0000000000
     65184     14503  TIP3      H1             -4.9449491107        0.0882417755      -45.7734618664  TIP3      14311           0.0000000000
     65185     14503  TIP3      H2             -5.3015475526        1.1119318234      -44.7418909445  TIP3      14311           0.0000000000
     65186     14504  TIP3      OH2            -0.6572287072      -16.7133467040      -46.4289085700  TIP3      14312           0.0000000000
     65187     14504  TIP3      H1             -1.4856983184      -16.4147735301      -46.8417708166  TIP3      14312           0.0000000000
     65188     14504  TIP3      H2             -0.4894302025      -17.5365833055      -46.9460706784  TIP3      14312           0.0000000000
     65189     14505  TIP3      OH2           -14.8615895301        1.2170863237      -47.7581120295  TIP3      14313           0.0000000000
     65190     14505  TIP3      H1            -15.5912138194        1.7185973604      -48.1524168962  TIP3      14313           0.0000000000
     65191     14505  TIP3      H2            -15.1704978367        1.0275584200      -46.8606327409  TIP3      14313           0.0000000000
     65192     14506  TIP3      OH2           -12.3925394390        0.7936259164      -48.6814131090  TIP3      14314           0.0000000000
     65193     14506  TIP3      H1            -13.2847194190        0.9444392022      -48.2887935883  TIP3      14314           0.0000000000
     65194     14506  TIP3      H2            -12.4482473611        1.3853534256      -49.4538957626  TIP3      14314           0.0000000000
     65195     14507  TIP3      OH2            -7.6834568993        0.7104140344      -49.5167320628  TIP3      14315           0.0000000000
     65196     14507  TIP3      H1             -8.1483963447        1.2660529317      -50.1600747460  TIP3      14315           0.0000000000
     65197     14507  TIP3      H2             -7.5541610876        1.3402946784      -48.7767557945  TIP3      14315           0.0000000000
     65198     14508  TIP3      OH2            -5.4009167891       -0.4878640683      -48.4797771861  TIP3      14316           0.0000000000
     65199     14508  TIP3      H1             -6.2513118094       -0.2057636248      -48.8541189983  TIP3      14316           0.0000000000
     65200     14508  TIP3      H2             -4.9119570888        0.3457828240      -48.5746000023  TIP3      14316           0.0000000000
     65201     14509  TIP3      OH2            -2.8155385712        1.0854897075      -48.2643220800  TIP3      14317           0.0000000000
     65202     14509  TIP3      H1             -2.8675774839        2.0467217126      -48.4913190505  TIP3      14317           0.0000000000
     65203     14509  TIP3      H2             -2.5971605456        0.7140546023      -49.1420216938  TIP3      14317           0.0000000000
     65204     14510  TIP3      OH2           -15.3992632323       -0.1328519357      -50.8133835162  TIP3      14318           0.0000000000
     65205     14510  TIP3      H1            -15.4828515586       -0.5928369350      -49.9509005392  TIP3      14318           0.0000000000
     65206     14510  TIP3      H2            -14.5849712610       -0.5130467986      -51.2006651483  TIP3      14318           0.0000000000
     65207     14511  TIP3      OH2           -13.3232141540       -1.4215951373      -52.1625301029  TIP3      14319           0.0000000000
     65208     14511  TIP3      H1            -13.4891968054       -2.3544194672      -51.9264035599  TIP3      14319           0.0000000000
     65209     14511  TIP3      H2            -12.4696074669       -1.2660522475      -51.7062773883  TIP3      14319           0.0000000000
     65210     14512  TIP3      OH2           -10.7170017577       -0.9363822296      -51.2835378187  TIP3      14320           0.0000000000
     65211     14512  TIP3      H1            -10.5658797939       -1.8625200896      -51.5436574839  TIP3      14320           0.0000000000
     65212     14512  TIP3      H2            -10.6762347014       -0.9924607423      -50.3171014820  TIP3      14320           0.0000000000
     65213     14513  TIP3      OH2            -7.1934605083      -15.3273587153      -52.0805079227  TIP3      14321           0.0000000000
     65214     14513  TIP3      H1             -7.9581820186      -15.8943193162      -51.8854931290  TIP3      14321           0.0000000000
     65215     14513  TIP3      H2             -6.7299484539      -15.8233080322      -52.7568580605  TIP3      14321           0.0000000000
     65216     14514  TIP3      OH2            -2.1298683618      -17.2390567634      -52.0824277704  TIP3      14322           0.0000000000
     65217     14514  TIP3      H1             -1.5196102455      -16.6461318545      -52.5888530496  TIP3      14322           0.0000000000
     65218     14514  TIP3      H2             -3.0133698989      -16.8793400021      -52.3112481188  TIP3      14322           0.0000000000
     65219     14515  TIP3      OH2            -0.4614618265      -15.9907923675      -53.8066944698  TIP3      14323           0.0000000000
     65220     14515  TIP3      H1              0.2263367589      -16.5653122865      -54.2204895054  TIP3      14323           0.0000000000
     65221     14515  TIP3      H2              0.0448528234      -15.1535488348      -53.6978480256  TIP3      14323           0.0000000000
     65222     14516  TIP3      OH2           -14.9173740499      -16.6568381359      -54.2898649457  TIP3      14324           0.0000000000
     65223     14516  TIP3      H1            -15.7018663196      -16.8633155968      -54.8296635736  TIP3      14324           0.0000000000
     65224     14516  TIP3      H2            -14.4324320551      -17.5069270639      -54.3534559569  TIP3      14324           0.0000000000
     65225     14517  TIP3      OH2           -16.1272692100      -16.9100990453      -58.5769082435  TIP3      14325           0.0000000000
     65226     14517  TIP3      H1            -15.6358979368      -16.2580897507      -59.1109159199  TIP3      14325           0.0000000000
     65227     14517  TIP3      H2            -16.6950866503      -16.3351766161      -58.0379171417  TIP3      14325           0.0000000000
     65228     14518  TIP3      OH2           -10.4080753492      -16.8308357076      -54.5307355177  TIP3      14326           0.0000000000
     65229     14518  TIP3      H1             -9.5687458974      -16.3265142954      -54.5705555778  TIP3      14326           0.0000000000
     65230     14518  TIP3      H2            -10.4705204377      -16.9127781794      -53.5819359658  TIP3      14326           0.0000000000
     65231     14519  TIP3      OH2            -4.6996272564      -16.7214879211      -52.8921094809  TIP3      14327           0.0000000000
     65232     14519  TIP3      H1             -4.7659070045      -16.6049495482      -53.8481778992  TIP3      14327           0.0000000000
     65233     14519  TIP3      H2             -5.1183568544      -17.6072663560      -52.7553288819  TIP3      14327           0.0000000000
     65234     14520  TIP3      OH2            -3.4442372183      -16.6877162360      -57.2033964379  TIP3      14328           0.0000000000
     65235     14520  TIP3      H1             -4.1936935736      -16.0923104462      -57.3588038312  TIP3      14328           0.0000000000
     65236     14520  TIP3      H2             -3.8847805808      -17.5392146755      -56.9678957100  TIP3      14328           0.0000000000
     65237     14521  TIP3      OH2           -16.2166252192       -0.9603298072      -57.5440986125  TIP3      14329           0.0000000000
     65238     14521  TIP3      H1            -16.8730358025       -0.9736776106      -58.2647404129  TIP3      14329           0.0000000000
     65239     14521  TIP3      H2            -16.2148308095       -0.0041732764      -57.3743651167  TIP3      14329           0.0000000000
     65240     14522  TIP3      OH2           -14.3009947154      -14.9648895590      -60.0632447782  TIP3      14330           0.0000000000
     65241     14522  TIP3      H1            -13.7685069865      -15.5821584671      -60.5914799900  TIP3      14330           0.0000000000
     65242     14522  TIP3      H2            -13.6348845153      -14.6410156673      -59.4290414333  TIP3      14330           0.0000000000
     65243     14523  TIP3      OH2            -9.2710785602      -14.7259378098      -57.6660413373  TIP3      14331           0.0000000000
     65244     14523  TIP3      H1             -9.0264060034      -15.2928733550      -56.9138852151  TIP3      14331           0.0000000000
     65245     14523  TIP3      H2             -9.2037687531      -13.8572996990      -57.1988099922  TIP3      14331           0.0000000000
     65246     14524  TIP3      OH2            -7.3410788365        0.3529388110      -59.2139242233  TIP3      14332           0.0000000000
     65247     14524  TIP3      H1             -6.4226997231        0.5778025666      -59.4347787080  TIP3      14332           0.0000000000
     65248     14524  TIP3      H2             -7.5598346862       -0.1695030167      -60.0136530095  TIP3      14332           0.0000000000
     65249     14525  TIP3      OH2            -0.6497819642       -0.1474790640      -56.4910383391  TIP3      14333           0.0000000000
     65250     14525  TIP3      H1             -0.8366633131       -0.9298608741      -57.0638572915  TIP3      14333           0.0000000000
     65251     14525  TIP3      H2             -0.7132048278        0.5872320421      -57.1354005857  TIP3      14333           0.0000000000
     65252     14526  TIP3      OH2           -15.0124148250      -16.1190177047      -44.8472676538  TIP3      14334           0.0000000000
     65253     14526  TIP3      H1            -15.4005427341      -16.9146506468      -44.4410510846  TIP3      14334           0.0000000000
     65254     14526  TIP3      H2            -14.1033622098      -16.1612258168      -44.4648174392  TIP3      14334           0.0000000000
     65255     14527  TIP3      OH2           -13.0110685209      -16.7354576167      -43.2007613753  TIP3      14335           0.0000000000
     65256     14527  TIP3      H1            -12.1188276023      -17.0730460877      -43.4196540749  TIP3      14335           0.0000000000
     65257     14527  TIP3      H2            -13.3852761819      -17.5438138959      -42.8001170746  TIP3      14335           0.0000000000
     65258     14528  TIP3      OH2           -14.4245799802        0.0223169772      -60.6067211760  TIP3      14336           0.0000000000
     65259     14528  TIP3      H1            -14.6881862244        0.2760087657      -59.7116611865  TIP3      14336           0.0000000000
     65260     14528  TIP3      H2            -13.6373991203       -0.5345472738      -60.4498016423  TIP3      14336           0.0000000000
     65261     14529  TIP3      OH2            -4.6084412897      -17.4485090071      -43.0543717091  TIP3      14337           0.0000000000
     65262     14529  TIP3      H1             -4.5149228806      -17.9158159714      -42.2022734361  TIP3      14337           0.0000000000
     65263     14529  TIP3      H2             -3.6903213234      -17.4810393865      -43.3965303957  TIP3      14337           0.0000000000
     65264     14530  TIP3      OH2            -1.4201903508       -1.4266698799      -44.4022924475  TIP3      14338           0.0000000000
     65265     14530  TIP3      H1             -2.2028940067       -1.5191426962      -44.9862953493  TIP3      14338           0.0000000000
     65266     14530  TIP3      H2             -1.5068711917       -0.4693121445      -44.2011193585  TIP3      14338           0.0000000000
     65267     14531  TIP3      OH2            13.0620206622       -7.5194011599      -54.4752570595  TIP3      14339           0.0000000000
     65268     14531  TIP3      H1             13.0318398842       -6.5381321392      -54.4482523352  TIP3      14339           0.0000000000
     65269     14531  TIP3      H2             12.2990238317       -7.7525741064      -55.0172575656  TIP3      14339           0.0000000000
     65270     14532  TIP3      OH2            11.9017989385       -8.2695558061      -50.9578898205  TIP3      14340           0.0000000000
     65271     14532  TIP3      H1             11.8895518783       -8.9095628700      -50.2305231302  TIP3      14340           0.0000000000
     65272     14532  TIP3      H2             11.5455244622       -8.7835829837      -51.6991390599  TIP3      14340           0.0000000000
     65273     14533  TIP3      OH2             4.2535019187       -8.5894004551      -49.3870713297  TIP3      14341           0.0000000000
     65274     14533  TIP3      H1              4.3375889462       -9.2777129270      -48.6942231225  TIP3      14341           0.0000000000
     65275     14533  TIP3      H2              5.0035046299       -8.0194928136      -49.1634422273  TIP3      14341           0.0000000000
     65276     14534  TIP3      OH2            15.5857268775       -5.3172237505      -52.6553350416  TIP3      14342           0.0000000000
     65277     14534  TIP3      H1             15.1740721286       -6.0348067906      -52.1633762976  TIP3      14342           0.0000000000
     65278     14534  TIP3      H2             15.6120888403       -4.6099922932      -51.9840674765  TIP3      14342           0.0000000000
     65279     14535  TIP3      OH2             5.1795574503       -4.1417503141      -50.8868697839  TIP3      14343           0.0000000000
     65280     14535  TIP3      H1              4.8694751765       -5.0116328649      -51.2039648204  TIP3      14343           0.0000000000
     65281     14535  TIP3      H2              6.1351161040       -4.3246831582      -50.8406740787  TIP3      14343           0.0000000000
     65282     14536  TIP3      OH2             1.8178989392      -10.5868439887      -55.3942362970  TIP3      14344           0.0000000000
     65283     14536  TIP3      H1              1.3819775486       -9.7164208720      -55.4598514468  TIP3      14344           0.0000000000
     65284     14536  TIP3      H2              1.2571624520      -11.1276041304      -55.9656313127  TIP3      14344           0.0000000000
     65285     14537  TIP3      OH2             2.5311807438       -8.3598991716      -53.2461724365  TIP3      14345           0.0000000000
     65286     14537  TIP3      H1              2.8055028219       -9.1823694945      -52.7984015732  TIP3      14345           0.0000000000
     65287     14537  TIP3      H2              3.2243769765       -8.2532593566      -53.9151398093  TIP3      14345           0.0000000000
     65288     14538  TIP3      OH2            12.7041104724       -0.1594352299      -52.4178184395  TIP3      14346           0.0000000000
     65289     14538  TIP3      H1             13.3549357235       -0.8476589642      -52.7043192509  TIP3      14346           0.0000000000
     65290     14538  TIP3      H2             12.4901691747       -0.4960889246      -51.5474512489  TIP3      14346           0.0000000000
     65291     14539  TIP3      OH2            10.2771302292       -5.8701316030      -50.4660137261  TIP3      14347           0.0000000000
     65292     14539  TIP3      H1             10.6145519910       -6.4947707341      -51.1256427949  TIP3      14347           0.0000000000
     65293     14539  TIP3      H2             11.0873171344       -5.7092108552      -49.9513847610  TIP3      14347           0.0000000000
     65294     14540  TIP3      OH2            18.8697630933      -14.2028091154      -49.7446778340  TIP3      14348           0.0000000000
     65295     14540  TIP3      H1             19.0500943749      -13.6184324088      -48.9769451844  TIP3      14348           0.0000000000
     65296     14540  TIP3      H2             19.4429011678      -13.7859616639      -50.4038786596  TIP3      14348           0.0000000000
     65297     14541  TIP3      OH2            13.4442827281      -11.3978576024      -50.1526731387  TIP3      14349           0.0000000000
     65298     14541  TIP3      H1             13.6114809607      -12.3568370283      -50.1478038795  TIP3      14349           0.0000000000
     65299     14541  TIP3      H2             13.3406578752      -11.2578860674      -51.1137588395  TIP3      14349           0.0000000000
     65300     14542  TIP3      OH2             6.5568282201      -13.3084692351      -52.9389835064  TIP3      14350           0.0000000000
     65301     14542  TIP3      H1              6.6651809617      -12.4742817039      -53.4319714050  TIP3      14350           0.0000000000
     65302     14542  TIP3      H2              6.1590547726      -13.8824551507      -53.6286374791  TIP3      14350           0.0000000000
     65303     14543  TIP3      OH2            14.2940112513      -13.2331540465      -54.5672488893  TIP3      14351           0.0000000000
     65304     14543  TIP3      H1             14.9445973683      -13.5459086028      -53.8966555006  TIP3      14351           0.0000000000
     65305     14543  TIP3      H2             14.8587263955      -12.6516961956      -55.0968775609  TIP3      14351           0.0000000000
     65306     14544  TIP3      OH2             3.1821442475      -10.8983330590      -52.2044330664  TIP3      14352           0.0000000000
     65307     14544  TIP3      H1              3.8513507006      -11.4423510208      -51.7492323774  TIP3      14352           0.0000000000
     65308     14544  TIP3      H2              3.2876098777      -11.2129779526      -53.1155091356  TIP3      14352           0.0000000000
     65309     14545  TIP3      OH2             8.3366082362       -9.3435959008      -52.8701383469  TIP3      14353           0.0000000000
     65310     14545  TIP3      H1              9.0132025365       -9.9267318738      -52.4878720398  TIP3      14353           0.0000000000
     65311     14545  TIP3      H2              7.8272238585       -9.9946390438      -53.3938339442  TIP3      14353           0.0000000000
     65312     14546  TIP3      OH2            19.3128869740      -12.8025436284      -47.4662078860  TIP3      14354           0.0000000000
     65313     14546  TIP3      H1             18.7075360618      -12.0356699669      -47.5792105397  TIP3      14354           0.0000000000
     65314     14546  TIP3      H2             19.3466442719      -12.8792307408      -46.5063742096  TIP3      14354           0.0000000000
     65315     14547  TIP3      OH2             5.4676814279      -14.4091643605      -48.8987351481  TIP3      14355           0.0000000000
     65316     14547  TIP3      H1              5.1848612049      -13.8378549878      -49.6441357828  TIP3      14355           0.0000000000
     65317     14547  TIP3      H2              4.7900072108      -14.1814126949      -48.2165127514  TIP3      14355           0.0000000000
     65318     14548  TIP3      OH2            12.7428563476       -4.9412217450      -55.3584992625  TIP3      14356           0.0000000000
     65319     14548  TIP3      H1             12.4961329683       -5.1876585846      -56.2548828786  TIP3      14356           0.0000000000
     65320     14548  TIP3      H2             12.4581129864       -3.9975791224      -55.2861943646  TIP3      14356           0.0000000000
     65321     14549  TIP3      OH2             7.9791403018       -6.7674343813      -48.6598532099  TIP3      14357           0.0000000000
     65322     14549  TIP3      H1              7.2747896871       -6.1224486366      -48.4391075015  TIP3      14357           0.0000000000
     65323     14549  TIP3      H2              8.6857015068       -6.1688682573      -48.9499798769  TIP3      14357           0.0000000000
     65324     14550  TIP3      OH2            16.1076644818      -13.8814509586      -52.5756088706  TIP3      14358           0.0000000000
     65325     14550  TIP3      H1             15.8861697568      -14.6507095996      -52.0430063258  TIP3      14358           0.0000000000
     65326     14550  TIP3      H2             16.7778118194      -13.4463472513      -52.0231939060  TIP3      14358           0.0000000000
     65327     14551  TIP3      OH2             5.0351013586      -12.5533532723      -50.8620906960  TIP3      14359           0.0000000000
     65328     14551  TIP3      H1              5.6636748993      -11.8641318509      -50.5521241346  TIP3      14359           0.0000000000
     65329     14551  TIP3      H2              5.5504969356      -12.9638715239      -51.6010137269  TIP3      14359           0.0000000000
     65330     14552  TIP3      OH2             6.4282661980       -4.7606371593      -47.8398058657  TIP3      14360           0.0000000000
     65331     14552  TIP3      H1              6.3805141968       -3.8473513190      -48.1771527883  TIP3      14360           0.0000000000
     65332     14552  TIP3      H2              5.5458917290       -4.8413001997      -47.3966138806  TIP3      14360           0.0000000000
     65333     14553  TIP3      OH2             2.5080987887       -5.1533477033      -57.0474884559  TIP3      14361           0.0000000000
     65334     14553  TIP3      H1              2.2557409189       -4.8133429532      -57.9234993609  TIP3      14361           0.0000000000
     65335     14553  TIP3      H2              2.5873929636       -4.3258250397      -56.5319096725  TIP3      14361           0.0000000000
     65336     14554  TIP3      OH2            16.1162399414       -3.4790814222      -50.2870292043  TIP3      14362           0.0000000000
     65337     14554  TIP3      H1             15.1479792924       -3.3680325480      -50.1672115750  TIP3      14362           0.0000000000
     65338     14554  TIP3      H2             16.3851463821       -2.5638082510      -50.4904481126  TIP3      14362           0.0000000000
     65339     14555  TIP3      OH2            16.4394324618      -15.1978085756      -48.8990131340  TIP3      14363           0.0000000000
     65340     14555  TIP3      H1             15.7149643219      -14.5641586817      -48.9914337382  TIP3      14363           0.0000000000
     65341     14555  TIP3      H2             17.1528957710      -14.7790261358      -49.4211720378  TIP3      14363           0.0000000000
     65342     14556  TIP3      OH2             9.4036375149      -17.0754127411      -51.4322973412  TIP3      14364           0.0000000000
     65343     14556  TIP3      H1              9.2603040528      -18.0387166966      -51.5090828678  TIP3      14364           0.0000000000
     65344     14556  TIP3      H2              8.5255496122      -16.7696328728      -51.1262197609  TIP3      14364           0.0000000000
     65345     14557  TIP3      OH2            14.3770609106       -1.6949287971      -53.7011261193  TIP3      14365           0.0000000000
     65346     14557  TIP3      H1             14.8042151760       -2.4152974283      -54.2085667459  TIP3      14365           0.0000000000
     65347     14557  TIP3      H2             14.8114300282       -0.9066392153      -54.0910391081  TIP3      14365           0.0000000000
     65348     14558  TIP3      OH2            15.5905611241       -3.7690635189      -55.1796110054  TIP3      14366           0.0000000000
     65349     14558  TIP3      H1             15.2872305403       -4.4670523166      -55.7821064037  TIP3      14366           0.0000000000
     65350     14558  TIP3      H2             15.6276979381       -4.2554229294      -54.3360184615  TIP3      14366           0.0000000000
     65351     14559  TIP3      OH2            17.2014439291       -5.1724783335      -46.6873529686  TIP3      14367           0.0000000000
     65352     14559  TIP3      H1             17.3508247170       -5.8274340477      -47.4049103777  TIP3      14367           0.0000000000
     65353     14559  TIP3      H2             17.4144465400       -4.3331286801      -47.1324028982  TIP3      14367           0.0000000000
     65354     14560  TIP3      OH2            11.6636602688       -8.3417687620      -56.9830164697  TIP3      14368           0.0000000000
     65355     14560  TIP3      H1             11.0039722756       -7.6593149988      -57.1989769551  TIP3      14368           0.0000000000
     65356     14560  TIP3      H2             12.4814840433       -8.1787328659      -57.4993381094  TIP3      14368           0.0000000000
     65357     14561  TIP3      OH2            11.8217328453       -9.7646933817      -59.9213169896  TIP3      14369           0.0000000000
     65358     14561  TIP3      H1             12.5226979437       -9.8696579733      -59.2502496489  TIP3      14369           0.0000000000
     65359     14561  TIP3      H2             12.1027991450      -10.4985250949      -60.5036164376  TIP3      14369           0.0000000000
     65360     14562  TIP3      OH2            19.0928416285       -8.8604587967      -48.6431764531  TIP3      14370           0.0000000000
     65361     14562  TIP3      H1             18.4344154358       -8.1377293437      -48.6050922853  TIP3      14370           0.0000000000
     65362     14562  TIP3      H2             19.5873247522       -8.6283133561      -49.4502826392  TIP3      14370           0.0000000000
     65363     14563  TIP3      OH2            15.1297252978       -8.1028453597      -56.0192960149  TIP3      14371           0.0000000000
     65364     14563  TIP3      H1             14.4227598386       -7.8294476339      -55.3852990236  TIP3      14371           0.0000000000
     65365     14563  TIP3      H2             15.6354437033       -8.7417642060      -55.4827269813  TIP3      14371           0.0000000000
     65366     14564  TIP3      OH2            15.0795942570       -9.9088036919      -46.8772253621  TIP3      14372           0.0000000000
     65367     14564  TIP3      H1             15.0867465697       -9.0888060798      -46.3559395561  TIP3      14372           0.0000000000
     65368     14564  TIP3      H2             14.4499699759       -9.6175046249      -47.5692969822  TIP3      14372           0.0000000000
     65369     14565  TIP3      OH2             6.7620788137       -7.4172969641      -54.0852334394  TIP3      14373           0.0000000000
     65370     14565  TIP3      H1              6.4421346533       -7.8064405427      -54.9347646119  TIP3      14373           0.0000000000
     65371     14565  TIP3      H2              7.3763751032       -8.1078647274      -53.7514329647  TIP3      14373           0.0000000000
     65372     14566  TIP3      OH2             8.0798424096       -4.0334458885      -51.4057110419  TIP3      14374           0.0000000000
     65373     14566  TIP3      H1              8.0743301432       -4.5545093744      -52.2166612448  TIP3      14374           0.0000000000
     65374     14566  TIP3      H2              8.8654531788       -4.3895589335      -50.9523566565  TIP3      14374           0.0000000000
     65375     14567  TIP3      OH2             7.0891169208       -8.6676772698      -50.4220428101  TIP3      14375           0.0000000000
     65376     14567  TIP3      H1              7.6384208530       -8.5711829756      -51.2251370151  TIP3      14375           0.0000000000
     65377     14567  TIP3      H2              7.4823632345       -8.0031889015      -49.8138258885  TIP3      14375           0.0000000000
     65378     14568  TIP3      OH2            13.5144632073       -3.0967411211      -49.7148033604  TIP3      14376           0.0000000000
     65379     14568  TIP3      H1             13.2207634843       -2.4593158910      -49.0583703804  TIP3      14376           0.0000000000
     65380     14568  TIP3      H2             13.2532125239       -3.9490102884      -49.2942810066  TIP3      14376           0.0000000000
     65381     14569  TIP3      OH2             8.0444143888       -4.2374568436      -45.7280973920  TIP3      14377           0.0000000000
     65382     14569  TIP3      H1              7.6294149792       -3.4985480184      -45.2377958333  TIP3      14377           0.0000000000
     65383     14569  TIP3      H2              7.3720673959       -4.4373424673      -46.4253047284  TIP3      14377           0.0000000000
     65384     14570  TIP3      OH2            13.9754666332       -8.7877897191      -58.3518663950  TIP3      14378           0.0000000000
     65385     14570  TIP3      H1             14.5672862112       -8.7222749510      -57.5518262338  TIP3      14378           0.0000000000
     65386     14570  TIP3      H2             14.5291512957       -8.3906438568      -59.0637808255  TIP3      14378           0.0000000000
     65387     14571  TIP3      OH2             4.9863831652       -8.0782067186      -46.5755003661  TIP3      14379           0.0000000000
     65388     14571  TIP3      H1              5.0390421319       -7.4109254189      -45.8660221380  TIP3      14379           0.0000000000
     65389     14571  TIP3      H2              4.0439701575       -7.9901674375      -46.7865102096  TIP3      14379           0.0000000000
     65390     14572  TIP3      OH2            11.7403057720       -2.1496947695      -54.8647857221  TIP3      14380           0.0000000000
     65391     14572  TIP3      H1             12.1710427312       -1.8429191398      -54.0590549847  TIP3      14380           0.0000000000
     65392     14572  TIP3      H2             11.1828502689       -1.4005793050      -55.1033643122  TIP3      14380           0.0000000000
     65393     14573  TIP3      OH2             6.2913549976       -2.2038972824      -44.9812460120  TIP3      14381           0.0000000000
     65394     14573  TIP3      H1              6.2298015366       -2.3020101966      -45.9468636940  TIP3      14381           0.0000000000
     65395     14573  TIP3      H2              5.3615864858       -2.3369207026      -44.7135335401  TIP3      14381           0.0000000000
     65396     14574  TIP3      OH2            17.7538746323      -17.1431848845      -58.4317881313  TIP3      14382           0.0000000000
     65397     14574  TIP3      H1             16.8057157926      -17.0314191983      -58.1939717575  TIP3      14382           0.0000000000
     65398     14574  TIP3      H2             17.9535200839      -16.3016564868      -58.8771324913  TIP3      14382           0.0000000000
     65399     14575  TIP3      OH2             5.7238898599       -8.3977286649      -56.4596723831  TIP3      14383           0.0000000000
     65400     14575  TIP3      H1              5.4482727555       -7.6135033569      -56.9788010113  TIP3      14383           0.0000000000
     65401     14575  TIP3      H2              5.0762513678       -9.0614833695      -56.7023632836  TIP3      14383           0.0000000000
     65402     14576  TIP3      OH2            18.8649820099       -2.7881855716      -60.0844849024  TIP3      14384           0.0000000000
     65403     14576  TIP3      H1             19.0316265139       -1.8452165547      -59.9154320459  TIP3      14384           0.0000000000
     65404     14576  TIP3      H2             19.7883998375       -3.1015679893      -60.0881391919  TIP3      14384           0.0000000000
     65405     14577  TIP3      OH2             1.8152430375       -5.9628081887      -47.5677280128  TIP3      14385           0.0000000000
     65406     14577  TIP3      H1              1.3773026071       -6.0433288834      -48.4361852342  TIP3      14385           0.0000000000
     65407     14577  TIP3      H2              1.9019975170       -6.9110521527      -47.3559042656  TIP3      14385           0.0000000000
     65408     14578  TIP3      OH2             1.5807774559       -3.2277819060      -50.7955160663  TIP3      14386           0.0000000000
     65409     14578  TIP3      H1              2.5391281634       -3.3432483264      -50.8155639909  TIP3      14386           0.0000000000
     65410     14578  TIP3      H2              1.4988686504       -2.4093424202      -50.2912770757  TIP3      14386           0.0000000000
     65411     14579  TIP3      OH2            19.8204159160       -2.5239262356      -45.1039557166  TIP3      14387           0.0000000000
     65412     14579  TIP3      H1             19.7029645196       -3.4831928483      -45.1331118711  TIP3      14387           0.0000000000
     65413     14579  TIP3      H2             18.9474102293       -2.2754721487      -44.7191325517  TIP3      14387           0.0000000000
     65414     14580  TIP3      OH2            10.7774545012       -2.9844908839      -46.2443884202  TIP3      14388           0.0000000000
     65415     14580  TIP3      H1             10.8350907543       -2.1423867738      -45.7360049633  TIP3      14388           0.0000000000
     65416     14580  TIP3      H2              9.9048330734       -3.3435830508      -45.9927867968  TIP3      14388           0.0000000000
     65417     14581  TIP3      OH2            11.2238318420        0.7583639715      -56.4558778430  TIP3      14389           0.0000000000
     65418     14581  TIP3      H1             11.1101274131        0.6812225252      -57.4199721284  TIP3      14389           0.0000000000
     65419     14581  TIP3      H2             11.2217890181        1.7187534367      -56.2985779999  TIP3      14389           0.0000000000
     65420     14582  TIP3      OH2             4.8558400987       -0.3619386637      -54.6298257139  TIP3      14390           0.0000000000
     65421     14582  TIP3      H1              5.0030022932       -0.7768590861      -53.7530060778  TIP3      14390           0.0000000000
     65422     14582  TIP3      H2              4.0073787186       -0.7719991734      -54.8693961810  TIP3      14390           0.0000000000
     65423     14583  TIP3      OH2            14.2745973453       -0.0279799257      -59.4703883850  TIP3      14391           0.0000000000
     65424     14583  TIP3      H1             14.7291755665       -0.7844967419      -59.9064420783  TIP3      14391           0.0000000000
     65425     14583  TIP3      H2             14.3153152765       -0.2894423599      -58.5269678623  TIP3      14391           0.0000000000
     65426     14584  TIP3      OH2            13.9723434538       -0.0931391472      -56.6953545625  TIP3      14392           0.0000000000
     65427     14584  TIP3      H1             13.0101279931       -0.0168099228      -56.5246987207  TIP3      14392           0.0000000000
     65428     14584  TIP3      H2             14.2046280053       -0.8353449272      -56.1169203423  TIP3      14392           0.0000000000
     65429     14585  TIP3      OH2            16.9676355670      -11.0567593817      -44.6366087473  TIP3      14393           0.0000000000
     65430     14585  TIP3      H1             16.4917316180      -10.6054018967      -45.3528649490  TIP3      14393           0.0000000000
     65431     14585  TIP3      H2             16.9518272619      -11.9759526834      -44.9418030329  TIP3      14393           0.0000000000
     65432     14586  TIP3      OH2             4.1082081768       -4.6470943278      -46.6308826349  TIP3      14394           0.0000000000
     65433     14586  TIP3      H1              4.3297927461       -5.0118581824      -45.7493552964  TIP3      14394           0.0000000000
     65434     14586  TIP3      H2              3.2389140302       -5.0447766808      -46.8446485492  TIP3      14394           0.0000000000
     65435     14587  TIP3      OH2             6.7882373131      -16.1727696921      -50.6823350348  TIP3      14395           0.0000000000
     65436     14587  TIP3      H1              5.8855703017      -16.2994998411      -51.0490331909  TIP3      14395           0.0000000000
     65437     14587  TIP3      H2              6.6538266009      -15.3424140036      -50.1963953550  TIP3      14395           0.0000000000
     65438     14588  TIP3      OH2            11.4320352730      -16.5077307979      -47.3217742810  TIP3      14396           0.0000000000
     65439     14588  TIP3      H1             11.8237837820      -16.9300337120      -46.5347390408  TIP3      14396           0.0000000000
     65440     14588  TIP3      H2             10.4597415765      -16.6226552862      -47.1751712704  TIP3      14396           0.0000000000
     65441     14589  TIP3      OH2            14.7207551205      -12.6589090469      -46.4184156009  TIP3      14397           0.0000000000
     65442     14589  TIP3      H1             14.1542062617      -12.8738295147      -45.6382169231  TIP3      14397           0.0000000000
     65443     14589  TIP3      H2             14.5343712728      -11.7321612259      -46.6478918377  TIP3      14397           0.0000000000
     65444     14590  TIP3      OH2            15.4456994745       -7.8202170553      -60.5249618097  TIP3      14398           0.0000000000
     65445     14590  TIP3      H1             15.4647829198       -8.0331884765      -61.4888528506  TIP3      14398           0.0000000000
     65446     14590  TIP3      H2             16.3245020554       -7.4052268431      -60.4644857997  TIP3      14398           0.0000000000
     65447     14591  TIP3      OH2            11.0731583225      -13.9195275041      -60.0129650672  TIP3      14399           0.0000000000
     65448     14591  TIP3      H1             10.7576580830      -13.9804085632      -59.0924851588  TIP3      14399           0.0000000000
     65449     14591  TIP3      H2             10.7640141668      -14.7962651803      -60.3173994311  TIP3      14399           0.0000000000
     65450     14592  TIP3      OH2             6.8959617859      -11.1934766201      -49.4203306867  TIP3      14400           0.0000000000
     65451     14592  TIP3      H1              6.1516804307      -11.2080795519      -48.7904860635  TIP3      14400           0.0000000000
     65452     14592  TIP3      H2              6.8421710865      -10.2891880464      -49.8011607698  TIP3      14400           0.0000000000
     65453     14593  TIP3      OH2             6.8522412291      -11.0833847455      -54.5636743372  TIP3      14401           0.0000000000
     65454     14593  TIP3      H1              5.9129855158      -11.3332256176      -54.6957641007  TIP3      14401           0.0000000000
     65455     14593  TIP3      H2              7.2273473958      -11.3721437546      -55.4187338158  TIP3      14401           0.0000000000
     65456     14594  TIP3      OH2            12.3660300683      -10.5816047641      -55.7911156618  TIP3      14402           0.0000000000
     65457     14594  TIP3      H1             11.9764408490       -9.7580085779      -56.1505584129  TIP3      14402           0.0000000000
     65458     14594  TIP3      H2             13.0677790785      -10.7576001745      -56.4406162403  TIP3      14402           0.0000000000
     65459     14595  TIP3      OH2            11.4239669439      -10.3704807368      -44.3580808132  TIP3      14403           0.0000000000
     65460     14595  TIP3      H1             10.8984669573      -11.1456701493      -44.0468291509  TIP3      14403           0.0000000000
     65461     14595  TIP3      H2             12.2618936941      -10.4908677764      -43.8810453340  TIP3      14403           0.0000000000
     65462     14596  TIP3      OH2            13.4059281884      -11.0865158817      -52.9497328627  TIP3      14404           0.0000000000
     65463     14596  TIP3      H1             13.1199485330      -10.5252733056      -53.6894491504  TIP3      14404           0.0000000000
     65464     14596  TIP3      H2             13.4994184315      -11.9380204905      -53.4173685844  TIP3      14404           0.0000000000
     65465     14597  TIP3      OH2             4.5105108381      -10.9496743509      -47.7501097384  TIP3      14405           0.0000000000
     65466     14597  TIP3      H1              4.5943703977      -10.5418981169      -46.8705688495  TIP3      14405           0.0000000000
     65467     14597  TIP3      H2              4.0707403025      -11.7885166081      -47.5392623508  TIP3      14405           0.0000000000
     65468     14598  TIP3      OH2             7.8844665159      -13.5506298375      -60.8957533825  TIP3      14406           0.0000000000
     65469     14598  TIP3      H1              7.4331517044      -13.9697840101      -60.1347506945  TIP3      14406           0.0000000000
     65470     14598  TIP3      H2              7.1724565177      -13.1215098824      -61.3859604908  TIP3      14406           0.0000000000
     65471     14599  TIP3      OH2             1.1698393223      -13.8400936211      -53.7596110773  TIP3      14407           0.0000000000
     65472     14599  TIP3      H1              1.8542373063      -13.8798106111      -53.0592230070  TIP3      14407           0.0000000000
     65473     14599  TIP3      H2              1.6171874645      -14.2141534405      -54.5407012184  TIP3      14407           0.0000000000
     65474     14600  TIP3      OH2             2.4333027175      -13.1218895290      -58.4147353744  TIP3      14408           0.0000000000
     65475     14600  TIP3      H1              2.9471195176      -12.5093728748      -58.9718196620  TIP3      14408           0.0000000000
     65476     14600  TIP3      H2              1.7468395189      -12.4985237842      -58.0937411427  TIP3      14408           0.0000000000
     65477     14601  TIP3      OH2            12.5993703718       -9.5059991499      -48.3966172650  TIP3      14409           0.0000000000
     65478     14601  TIP3      H1             12.9810292930      -10.1924365988      -48.9805826387  TIP3      14409           0.0000000000
     65479     14601  TIP3      H2             12.1337843388      -10.0336819325      -47.7231621582  TIP3      14409           0.0000000000
     65480     14602  TIP3      OH2             9.4046300644      -13.5239201827      -53.5601485090  TIP3      14410           0.0000000000
     65481     14602  TIP3      H1              8.4706870800      -13.5234674304      -53.2667229715  TIP3      14410           0.0000000000
     65482     14602  TIP3      H2              9.8861595341      -13.6987519169      -52.7370991910  TIP3      14410           0.0000000000
     65483     14603  TIP3      OH2             4.2127697297      -11.9784492768      -54.6900733540  TIP3      14411           0.0000000000
     65484     14603  TIP3      H1              3.3291354485      -11.8216093653      -55.0815561411  TIP3      14411           0.0000000000
     65485     14603  TIP3      H2              4.4970487438      -12.8123528888      -55.0996207624  TIP3      14411           0.0000000000
     65486     14604  TIP3      OH2             7.8564444200      -11.9239434248      -57.0599485577  TIP3      14412           0.0000000000
     65487     14604  TIP3      H1              8.8124897408      -11.8278641325      -56.8955631967  TIP3      14412           0.0000000000
     65488     14604  TIP3      H2              7.6108539898      -11.2501819647      -57.7181430873  TIP3      14412           0.0000000000
     65489     14605  TIP3      OH2            13.8093344305      -14.2908764113      -50.3201628734  TIP3      14413           0.0000000000
     65490     14605  TIP3      H1             13.1267935241      -14.2442171367      -49.6145067998  TIP3      14413           0.0000000000
     65491     14605  TIP3      H2             13.2997885744      -14.5487845140      -51.1024541569  TIP3      14413           0.0000000000
     65492     14606  TIP3      OH2             6.5758675675      -10.7332358146      -59.4769141579  TIP3      14414           0.0000000000
     65493     14606  TIP3      H1              6.0310343012      -11.1282365994      -60.1816977771  TIP3      14414           0.0000000000
     65494     14606  TIP3      H2              7.3872141586      -10.5609326549      -59.9646457994  TIP3      14414           0.0000000000
     65495     14607  TIP3      OH2            16.9912673062        1.4863453865      -43.9893947287  TIP3      14415           0.0000000000
     65496     14607  TIP3      H1             17.3681267350        1.5986965412      -44.8949054907  TIP3      14415           0.0000000000
     65497     14607  TIP3      H2             17.7992420698        1.5812788102      -43.4379685323  TIP3      14415           0.0000000000
     65498     14608  TIP3      OH2             4.6816766638       -6.1823716152      -44.4177354460  TIP3      14416           0.0000000000
     65499     14608  TIP3      H1              5.4098224357       -5.9373029658      -43.8210576200  TIP3      14416           0.0000000000
     65500     14608  TIP3      H2              3.9138477691       -6.0996767979      -43.8143924016  TIP3      14416           0.0000000000
     65501     14609  TIP3      OH2            10.6856220432      -10.7712680507      -51.6662547010  TIP3      14417           0.0000000000
     65502     14609  TIP3      H1             11.2853431072      -11.3051019826      -52.2003681044  TIP3      14417           0.0000000000
     65503     14609  TIP3      H2             10.5405135378      -11.3211659120      -50.8844252842  TIP3      14417           0.0000000000
     65504     14610  TIP3      OH2             5.6964850554      -14.6267492344      -55.2293581169  TIP3      14418           0.0000000000
     65505     14610  TIP3      H1              5.3865882821      -15.5506880865      -55.2368046191  TIP3      14418           0.0000000000
     65506     14610  TIP3      H2              6.4872155441      -14.6948462329      -55.7781971077  TIP3      14418           0.0000000000
     65507     14611  TIP3      OH2             9.3247979497      -12.4453764280      -49.2520550816  TIP3      14419           0.0000000000
     65508     14611  TIP3      H1              8.5004987161      -11.9258663461      -49.1637125203  TIP3      14419           0.0000000000
     65509     14611  TIP3      H2              9.8799847412      -12.0924501637      -48.5300097733  TIP3      14419           0.0000000000
     65510     14612  TIP3      OH2             9.9444333488       -6.3167438155      -57.5811596073  TIP3      14420           0.0000000000
     65511     14612  TIP3      H1              9.0682607206       -6.6757082025      -57.8647054736  TIP3      14420           0.0000000000
     65512     14612  TIP3      H2              9.7035617604       -6.0750383555      -56.6533982475  TIP3      14420           0.0000000000
     65513     14613  TIP3      OH2            17.1018066584       -7.0190334245      -48.7517867473  TIP3      14421           0.0000000000
     65514     14613  TIP3      H1             17.6636586174       -6.5347067172      -49.3838788430  TIP3      14421           0.0000000000
     65515     14613  TIP3      H2             16.2410406135       -6.9738829793      -49.2148822377  TIP3      14421           0.0000000000
     65516     14614  TIP3      OH2            13.7543455483      -13.4216735947      -59.3807093925  TIP3      14422           0.0000000000
     65517     14614  TIP3      H1             12.8000810828      -13.2771525262      -59.5131949262  TIP3      14422           0.0000000000
     65518     14614  TIP3      H2             14.0853947272      -12.5669185748      -59.0280615630  TIP3      14422           0.0000000000
     65519     14615  TIP3      OH2            11.4066157289       -5.9503967667      -46.3088490517  TIP3      14423           0.0000000000
     65520     14615  TIP3      H1             11.0586001845       -6.3810112218      -45.5210093450  TIP3      14423           0.0000000000
     65521     14615  TIP3      H2             11.1487003227       -5.0295387688      -46.2021116735  TIP3      14423           0.0000000000
     65522     14616  TIP3      OH2            14.4560770781      -11.4532792916      -57.7535399055  TIP3      14424           0.0000000000
     65523     14616  TIP3      H1             15.3376569712      -11.6234801635      -57.3485068628  TIP3      14424           0.0000000000
     65524     14616  TIP3      H2             14.6154188349      -10.6658843613      -58.2834637269  TIP3      14424           0.0000000000
     65525     14617  TIP3      OH2             5.0271602881       -6.8239240990      -51.7534403228  TIP3      14425           0.0000000000
     65526     14617  TIP3      H1              5.7036861463       -6.9093562327      -52.4539283622  TIP3      14425           0.0000000000
     65527     14617  TIP3      H2              5.0829051522       -7.6841158027      -51.2988921066  TIP3      14425           0.0000000000
     65528     14618  TIP3      OH2            12.0063001916       -4.7868591605      -58.5189157233  TIP3      14426           0.0000000000
     65529     14618  TIP3      H1             11.7114354037       -3.9075934731      -58.1871064414  TIP3      14426           0.0000000000
     65530     14618  TIP3      H2             11.2417302991       -5.3245409271      -58.2474646110  TIP3      14426           0.0000000000
     65531     14619  TIP3      OH2             2.0085264064       -8.4231812313      -46.4901925862  TIP3      14427           0.0000000000
     65532     14619  TIP3      H1              2.1855730434       -8.8703449487      -45.6396749076  TIP3      14427           0.0000000000
     65533     14619  TIP3      H2              1.3937458388       -9.0350770471      -46.9330338907  TIP3      14427           0.0000000000
     65534     14620  TIP3      OH2             9.0260056502       -8.8643089552      -44.3169042224  TIP3      14428           0.0000000000
     65535     14620  TIP3      H1              8.7062431375       -9.1731619535      -45.1767553812  TIP3      14428           0.0000000000
     65536     14620  TIP3      H2              9.9488344718       -9.1887359195      -44.3186206445  TIP3      14428           0.0000000000
     65537     14621  TIP3      OH2            13.7172073354       -3.5131101136      -46.3574469565  TIP3      14429           0.0000000000
     65538     14621  TIP3      H1             12.7892750075       -3.3481482635      -46.5932330346  TIP3      14429           0.0000000000
     65539     14621  TIP3      H2             13.6757252370       -3.2325276413      -45.4227333830  TIP3      14429           0.0000000000
     65540     14622  TIP3      OH2            19.3817917721      -11.3554588026      -57.9787956282  TIP3      14430           0.0000000000
     65541     14622  TIP3      H1             18.8124127532      -11.6370999640      -58.7173037995  TIP3      14430           0.0000000000
     65542     14622  TIP3      H2             19.4581326447      -10.4062235483      -58.2265656485  TIP3      14430           0.0000000000
     65543     14623  TIP3      OH2            19.3649228657       -5.4808508648      -45.1671469610  TIP3      14431           0.0000000000
     65544     14623  TIP3      H1             18.4731839742       -5.2650785755      -45.5340411054  TIP3      14431           0.0000000000
     65545     14623  TIP3      H2             19.9123022806       -5.5375039551      -45.9793716956  TIP3      14431           0.0000000000
     65546     14624  TIP3      OH2            17.6310276301       -2.5205281170      -57.5828808548  TIP3      14432           0.0000000000
     65547     14624  TIP3      H1             17.3036911731       -3.3581072897      -57.2312318951  TIP3      14432           0.0000000000
     65548     14624  TIP3      H2             17.9903577742       -2.7394788683      -58.4585013733  TIP3      14432           0.0000000000
     65549     14625  TIP3      OH2            14.8770859765       -7.7020687907      -50.4735033050  TIP3      14433           0.0000000000
     65550     14625  TIP3      H1             13.9370096026       -7.9120096312      -50.5813563972  TIP3      14433           0.0000000000
     65551     14625  TIP3      H2             15.3085718294       -8.4625612619      -50.9065862748  TIP3      14433           0.0000000000
     65552     14626  TIP3      OH2             7.3994249776       -3.3716992577      -54.3699104681  TIP3      14434           0.0000000000
     65553     14626  TIP3      H1              7.8965759930       -2.5626180214      -54.5752618189  TIP3      14434           0.0000000000
     65554     14626  TIP3      H2              6.5199594553       -3.1410122868      -54.6988956085  TIP3      14434           0.0000000000
     65555     14627  TIP3      OH2             3.1711809144       -8.5352095400      -59.8011568065  TIP3      14435           0.0000000000
     65556     14627  TIP3      H1              3.7445677463       -7.8673152417      -59.3892413319  TIP3      14435           0.0000000000
     65557     14627  TIP3      H2              2.2777970040       -8.2237392378      -59.5535665599  TIP3      14435           0.0000000000
     65558     14628  TIP3      OH2             8.8103757843       -5.7028903912      -54.8920057925  TIP3      14436           0.0000000000
     65559     14628  TIP3      H1              8.5011911028       -4.7863451903      -54.7633650880  TIP3      14436           0.0000000000
     65560     14628  TIP3      H2              8.1104971531       -6.2002872166      -54.4194560046  TIP3      14436           0.0000000000
     65561     14629  TIP3      OH2             9.2617001311       -1.5223827506      -48.4383309166  TIP3      14437           0.0000000000
     65562     14629  TIP3      H1              9.7221865077       -0.7187099789      -48.7269517867  TIP3      14437           0.0000000000
     65563     14629  TIP3      H2              9.8782673803       -1.8651599150      -47.7666278709  TIP3      14437           0.0000000000
     65564     14630  TIP3      OH2             7.4857977993       -0.7157192249      -55.3242129224  TIP3      14438           0.0000000000
     65565     14630  TIP3      H1              6.5216290074       -0.5731414978      -55.1909028714  TIP3      14438           0.0000000000
     65566     14630  TIP3      H2              7.8531610853        0.1191056368      -54.9819010967  TIP3      14438           0.0000000000
     65567     14631  TIP3      OH2            12.7795091514       -5.5298250389      -48.8250733566  TIP3      14439           0.0000000000
     65568     14631  TIP3      H1             12.4606071254       -5.7185901262      -47.9179718043  TIP3      14439           0.0000000000
     65569     14631  TIP3      H2             13.4248935732       -6.2357443710      -48.9906462766  TIP3      14439           0.0000000000
     65570     14632  TIP3      OH2            15.1210748834       -4.4590770648      -59.7441547937  TIP3      14440           0.0000000000
     65571     14632  TIP3      H1             15.4318939031       -4.9089400993      -58.9318508557  TIP3      14440           0.0000000000
     65572     14632  TIP3      H2             14.1686481698       -4.6132422484      -59.6428417018  TIP3      14440           0.0000000000
     65573     14633  TIP3      OH2            15.5924053777       -0.9111523686      -46.3206838922  TIP3      14441           0.0000000000
     65574     14633  TIP3      H1             14.9220558689       -1.4411680106      -46.8013251028  TIP3      14441           0.0000000000
     65575     14633  TIP3      H2             15.7879569318       -0.2534497694      -47.0202691243  TIP3      14441           0.0000000000
     65576     14634  TIP3      OH2            19.5871385439       -0.0971393522      -59.4786264335  TIP3      14442           0.0000000000
     65577     14634  TIP3      H1             20.2749489384        0.5676121048      -59.6845988936  TIP3      14442           0.0000000000
     65578     14634  TIP3      H2             18.8719571370        0.5140800762      -59.1938317101  TIP3      14442           0.0000000000
     65579     14635  TIP3      OH2             3.6654944195      -13.6902548099      -46.9461490903  TIP3      14443           0.0000000000
     65580     14635  TIP3      H1              2.7569795614      -13.3376771949      -46.9652710953  TIP3      14443           0.0000000000
     65581     14635  TIP3      H2              3.5521087846      -14.5344581849      -46.4825382619  TIP3      14443           0.0000000000
     65582     14636  TIP3      OH2            15.8897157382       -5.8259923034      -57.4977292205  TIP3      14444           0.0000000000
     65583     14636  TIP3      H1             15.6726226990       -6.6067208743      -56.9474871287  TIP3      14444           0.0000000000
     65584     14636  TIP3      H2             16.8431693243       -5.7698777745      -57.3232068838  TIP3      14444           0.0000000000
     65585     14637  TIP3      OH2             3.2759502622       -1.9069171978      -48.5178258121  TIP3      14445           0.0000000000
     65586     14637  TIP3      H1              3.5852514592       -2.8258122917      -48.5118600972  TIP3      14445           0.0000000000
     65587     14637  TIP3      H2              3.5389017569       -1.6147531659      -47.6376061072  TIP3      14445           0.0000000000
     65588     14638  TIP3      OH2             9.2819903716       -3.3925597906      -61.2230316895  TIP3      14446           0.0000000000
     65589     14638  TIP3      H1              9.3382249749       -4.1380668252      -61.8382818596  TIP3      14446           0.0000000000
     65590     14638  TIP3      H2              8.7920167035       -3.7982587031      -60.4755065447  TIP3      14446           0.0000000000
     65591     14639  TIP3      OH2             8.0540556969       -3.8633373533      -58.7861659939  TIP3      14447           0.0000000000
     65592     14639  TIP3      H1              8.2697959915       -4.3556846705      -57.9907262083  TIP3      14447           0.0000000000
     65593     14639  TIP3      H2              8.1075443505       -2.9266917209      -58.4718859508  TIP3      14447           0.0000000000
     65594     14640  TIP3      OH2             4.5696748182       -6.6054265383      -58.2999655144  TIP3      14448           0.0000000000
     65595     14640  TIP3      H1              3.8531141469       -6.2104638850      -57.7629815271  TIP3      14448           0.0000000000
     65596     14640  TIP3      H2              5.0719110866       -5.8239634920      -58.5942700605  TIP3      14448           0.0000000000
     65597     14641  TIP3      OH2            12.3962299784      -13.9162802285      -47.9788898161  TIP3      14449           0.0000000000
     65598     14641  TIP3      H1             13.1122445843      -13.8565519773      -47.3372993965  TIP3      14449           0.0000000000
     65599     14641  TIP3      H2             12.0125399849      -14.7926991021      -47.7761266277  TIP3      14449           0.0000000000
     65600     14642  TIP3      OH2            13.1406063306      -14.3475981634      -56.8946806475  TIP3      14450           0.0000000000
     65601     14642  TIP3      H1             13.3691348596      -13.8851965108      -57.7249859681  TIP3      14450           0.0000000000
     65602     14642  TIP3      H2             13.7129852653      -13.8922239367      -56.2625156965  TIP3      14450           0.0000000000
     65603     14643  TIP3      OH2            10.8268520249       -2.2224186792      -58.1121857580  TIP3      14451           0.0000000000
     65604     14643  TIP3      H1             10.0192248354       -1.6732853752      -58.0150045518  TIP3      14451           0.0000000000
     65605     14643  TIP3      H2             11.3698235867       -1.6488464336      -58.6743478221  TIP3      14451           0.0000000000
     65606     14644  TIP3      OH2            10.3668386329      -12.5834058985      -56.0811703551  TIP3      14452           0.0000000000
     65607     14644  TIP3      H1             11.1592612753      -12.0168959470      -56.0160091007  TIP3      14452           0.0000000000
     65608     14644  TIP3      H2             10.0983890288      -12.7245088171      -55.1544794976  TIP3      14452           0.0000000000
     65609     14645  TIP3      OH2            10.9234966141      -11.5705061198      -46.8833502371  TIP3      14453           0.0000000000
     65610     14645  TIP3      H1             10.9981627177      -11.0126613303      -46.0847421489  TIP3      14453           0.0000000000
     65611     14645  TIP3      H2             11.5861422746      -12.2647012489      -46.7882652288  TIP3      14453           0.0000000000
     65612     14646  TIP3      OH2            11.2168441040      -15.5395029250      -55.1966037497  TIP3      14454           0.0000000000
     65613     14646  TIP3      H1             10.8961069215      -14.8933752919      -54.5443348040  TIP3      14454           0.0000000000
     65614     14646  TIP3      H2             11.9133494368      -14.9933273634      -55.6358074170  TIP3      14454           0.0000000000
     65615     14647  TIP3      OH2             8.2303508535       -1.1551159874      -58.0599368588  TIP3      14455           0.0000000000
     65616     14647  TIP3      H1              8.3233283492       -0.3402703243      -58.6110407893  TIP3      14455           0.0000000000
     65617     14647  TIP3      H2              7.9569323011       -0.7893392865      -57.1903614901  TIP3      14455           0.0000000000
     65618     14648  TIP3      OH2             6.8768497613      -14.4321140466      -58.4833578365  TIP3      14456           0.0000000000
     65619     14648  TIP3      H1              6.8266658620      -13.5346530354      -58.0973049494  TIP3      14456           0.0000000000
     65620     14648  TIP3      H2              7.7839752287      -14.6798059556      -58.2173892025  TIP3      14456           0.0000000000
     65621     14649  TIP3      OH2            17.1037810290      -13.7060039539      -46.0318178466  TIP3      14457           0.0000000000
     65622     14649  TIP3      H1             16.1765391153      -13.3867120753      -46.1648754780  TIP3      14457           0.0000000000
     65623     14649  TIP3      H2             17.4021347429      -13.7154885826      -46.9590670823  TIP3      14457           0.0000000000
     65624     14650  TIP3      OH2            15.7204768333       -9.9140017735      -52.0343354222  TIP3      14458           0.0000000000
     65625     14650  TIP3      H1             14.8947694618      -10.3617396307      -52.2992240673  TIP3      14458           0.0000000000
     65626     14650  TIP3      H2             16.1982265469      -10.6000552229      -51.5162222658  TIP3      14458           0.0000000000
     65627     14651  TIP3      OH2             5.1086217418       -3.9916765539      -59.4399186960  TIP3      14459           0.0000000000
     65628     14651  TIP3      H1              5.7736765641       -3.3607796742      -59.1257941729  TIP3      14459           0.0000000000
     65629     14651  TIP3      H2              5.6292260708       -4.4542510392      -60.1271897206  TIP3      14459           0.0000000000
     65630     14652  TIP3      OH2             3.4549911463      -11.3174046418      -60.2960626046  TIP3      14460           0.0000000000
     65631     14652  TIP3      H1              3.4716580672      -10.3597859983      -60.0878711689  TIP3      14460           0.0000000000
     65632     14652  TIP3      H2              2.5625933097      -11.4921714935      -60.6039610951  TIP3      14460           0.0000000000
     65633     14653  TIP3      OH2            16.7795885077       -0.6459869586      -50.3463893899  TIP3      14461           0.0000000000
     65634     14653  TIP3      H1             16.6904678446        0.0251613197      -51.0526991056  TIP3      14461           0.0000000000
     65635     14653  TIP3      H2             17.7456138204       -0.5999708128      -50.1849592268  TIP3      14461           0.0000000000
     65636     14654  TIP3      OH2             4.2702942638      -16.5323513377      -51.5509851476  TIP3      14462           0.0000000000
     65637     14654  TIP3      H1              4.0763584235      -16.5143471066      -52.5142531025  TIP3      14462           0.0000000000
     65638     14654  TIP3      H2              3.8565089249      -17.3853247094      -51.3009993078  TIP3      14462           0.0000000000
     65639     14655  TIP3      OH2             3.2324877764       -2.6134518738      -55.4108469347  TIP3      14463           0.0000000000
     65640     14655  TIP3      H1              2.3771702683       -2.1650208125      -55.4530830339  TIP3      14463           0.0000000000
     65641     14655  TIP3      H2              3.7038707614       -2.1444400796      -56.1092950917  TIP3      14463           0.0000000000
     65642     14656  TIP3      OH2             2.4269660946        0.0399291738      -44.1260880935  TIP3      14464           0.0000000000
     65643     14656  TIP3      H1              3.0339411057       -0.1593257072      -43.3870330262  TIP3      14464           0.0000000000
     65644     14656  TIP3      H2              2.0302086178       -0.8299303566      -44.3069135523  TIP3      14464           0.0000000000
     65645     14657  TIP3      OH2             7.1120549996       -1.0404693661      -42.5167267273  TIP3      14465           0.0000000000
     65646     14657  TIP3      H1              7.8687231360       -1.5403944446      -42.1840051560  TIP3      14465           0.0000000000
     65647     14657  TIP3      H2              7.0859713923       -1.3198093116      -43.4537029063  TIP3      14465           0.0000000000
     65648     14658  TIP3      OH2            11.2473461783       -1.5123833585      -61.1156459549  TIP3      14466           0.0000000000
     65649     14658  TIP3      H1             10.5504967629       -2.1687830613      -60.8924354805  TIP3      14466           0.0000000000
     65650     14658  TIP3      H2             11.9662867379       -2.1074880662      -61.3710316901  TIP3      14466           0.0000000000
     65651     14659  TIP3      OH2            13.6143389820       -2.6558781170      -43.7654712589  TIP3      14467           0.0000000000
     65652     14659  TIP3      H1             13.2995984534       -3.5440173678      -43.4923277123  TIP3      14467           0.0000000000
     65653     14659  TIP3      H2             14.3836954356       -2.5382252660      -43.1746517373  TIP3      14467           0.0000000000
     65654     14660  TIP3      OH2            15.8044633689       -1.7841639044      -60.9277624785  TIP3      14468           0.0000000000
     65655     14660  TIP3      H1             16.1014717673       -2.5599793994      -60.4253962573  TIP3      14468           0.0000000000
     65656     14660  TIP3      H2             16.5665508848       -1.5584743239      -61.4806341691  TIP3      14468           0.0000000000
     65657     14661  TIP3      OH2             2.3087452386       -6.2008989339      -43.1105218779  TIP3      14469           0.0000000000
     65658     14661  TIP3      H1              2.5268659045       -7.0954972632      -43.4348226389  TIP3      14469           0.0000000000
     65659     14661  TIP3      H2              1.6178320157       -5.9270803502      -43.7314002087  TIP3      14469           0.0000000000
     65660     14662  TIP3      OH2             6.6984926164       -5.8360234747      -61.1044495934  TIP3      14470           0.0000000000
     65661     14662  TIP3      H1              6.8046930907       -6.6119500817      -60.5382967226  TIP3      14470           0.0000000000
     65662     14662  TIP3      H2              7.4291531566       -5.9632172339      -61.7374355300  TIP3      14470           0.0000000000
     65663     14663  TIP3      OH2             9.0578042639       -6.1998550086      -43.7435578478  TIP3      14471           0.0000000000
     65664     14663  TIP3      H1              8.7230481947       -5.8862692393      -44.6071213363  TIP3      14471           0.0000000000
     65665     14663  TIP3      H2              9.1322250181       -7.1763684278      -43.8519153128  TIP3      14471           0.0000000000
     65666     14664  TIP3      OH2            12.1311359003       -4.7316297453      -61.3265505101  TIP3      14472           0.0000000000
     65667     14664  TIP3      H1             11.8320535171       -4.6108693091      -60.4134175880  TIP3      14472           0.0000000000
     65668     14664  TIP3      H2             11.9330639398       -5.6767702630      -61.5031928774  TIP3      14472           0.0000000000
     65669     14665  TIP3      OH2            14.7542995581       -6.3394254584      -46.3510896386  TIP3      14473           0.0000000000
     65670     14665  TIP3      H1             15.5423889907       -5.7569183664      -46.4132405129  TIP3      14473           0.0000000000
     65671     14665  TIP3      H2             14.0544930874       -5.6720876799      -46.3151092276  TIP3      14473           0.0000000000
     65672     14666  TIP3      OH2             3.2597190247       -8.9611568463      -43.7489979979  TIP3      14474           0.0000000000
     65673     14666  TIP3      H1              3.6795433342       -9.8232887035      -43.8393272353  TIP3      14474           0.0000000000
     65674     14666  TIP3      H2              3.0261352681       -8.9560563531      -42.8065220131  TIP3      14474           0.0000000000
     65675     14667  TIP3      OH2             7.9582774631       -7.8392712269      -58.6687054423  TIP3      14475           0.0000000000
     65676     14667  TIP3      H1              7.3781497581       -8.3399520857      -58.0621939952  TIP3      14475           0.0000000000
     65677     14667  TIP3      H2              8.1410329285       -8.5222684471      -59.3511311956  TIP3      14475           0.0000000000
     65678     14668  TIP3      OH2             7.1611086994      -10.0187571092      -46.3957815677  TIP3      14476           0.0000000000
     65679     14668  TIP3      H1              6.5651024602       -9.2972544037      -46.1387391686  TIP3      14476           0.0000000000
     65680     14668  TIP3      H2              7.5588999997       -9.6504752130      -47.2030617713  TIP3      14476           0.0000000000
     65681     14669  TIP3      OH2             8.9882523876       -9.5463226555      -60.4849232589  TIP3      14477           0.0000000000
     65682     14669  TIP3      H1              8.7706221040       -9.6994142340      -61.4305528437  TIP3      14477           0.0000000000
     65683     14669  TIP3      H2              9.9505348078       -9.6445013547      -60.4624179330  TIP3      14477           0.0000000000
     65684     14670  TIP3      OH2            12.2349553749       -7.4484988672      -43.0576924410  TIP3      14478           0.0000000000
     65685     14670  TIP3      H1             13.1917481138       -7.4614086639      -43.1810556393  TIP3      14478           0.0000000000
     65686     14670  TIP3      H2             12.0633421594       -8.2151570740      -42.4877522089  TIP3      14478           0.0000000000
     65687     14671  TIP3      OH2            18.2970290636       -7.2842929497      -61.0687006346  TIP3      14479           0.0000000000
     65688     14671  TIP3      H1             18.1080618901       -7.6627164620      -61.9420507743  TIP3      14479           0.0000000000
     65689     14671  TIP3      H2             18.3875642759       -6.3207560290      -61.2569932874  TIP3      14479           0.0000000000
     65690     14672  TIP3      OH2             7.5687828902      -12.6399765730      -45.3376383410  TIP3      14480           0.0000000000
     65691     14672  TIP3      H1              7.6836385179      -13.3488578921      -45.9971331581  TIP3      14480           0.0000000000
     65692     14672  TIP3      H2              7.5224973031      -11.8288980393      -45.8864432732  TIP3      14480           0.0000000000
     65693     14673  TIP3      OH2             7.9711076643      -14.2575240894      -47.7828242474  TIP3      14481           0.0000000000
     65694     14673  TIP3      H1              8.4792298867      -13.7923508052      -48.4898057526  TIP3      14481           0.0000000000
     65695     14673  TIP3      H2              7.0774660563      -14.3354652688      -48.1886424303  TIP3      14481           0.0000000000
     65696     14674  TIP3      OH2             9.5094123077       -8.7656393109      -47.5408035525  TIP3      14482           0.0000000000
     65697     14674  TIP3      H1             10.2632217225       -8.9328003618      -48.1124221007  TIP3      14482           0.0000000000
     65698     14674  TIP3      H2              9.1439478008       -7.9329828336      -47.8778812596  TIP3      14482           0.0000000000
     65699     14675  TIP3      OH2            13.9045973616      -11.0176766292      -42.5781520494  TIP3      14483           0.0000000000
     65700     14675  TIP3      H1             14.1403128878      -11.9518800159      -42.6709180312  TIP3      14483           0.0000000000
     65701     14675  TIP3      H2             14.7687537607      -10.5733183158      -42.5465190411  TIP3      14483           0.0000000000
     65702     14676  TIP3      OH2            15.2468398426       -8.2229295785      -44.4119568876  TIP3      14484           0.0000000000
     65703     14676  TIP3      H1             14.9957794350       -7.5017590364      -45.0294784627  TIP3      14484           0.0000000000
     65704     14676  TIP3      H2             16.2055487280       -8.2538180468      -44.6006514414  TIP3      14484           0.0000000000
     65705     14677  TIP3      OH2             6.0274383907      -11.3887416588      -43.4160409568  TIP3      14485           0.0000000000
     65706     14677  TIP3      H1              5.2593430265      -11.9661373686      -43.5847869244  TIP3      14485           0.0000000000
     65707     14677  TIP3      H2              6.6828469242      -11.7582007968      -44.0386243816  TIP3      14485           0.0000000000
     65708     14678  TIP3      OH2             8.7598926693      -16.8207447868      -47.3974287384  TIP3      14486           0.0000000000
     65709     14678  TIP3      H1              8.5761645255      -15.8582986561      -47.4916261416  TIP3      14486           0.0000000000
     65710     14678  TIP3      H2              8.0106527524      -17.1875901275      -47.8966846355  TIP3      14486           0.0000000000
     65711     14679  TIP3      OH2            10.0279690644      -12.4909274273      -43.7658491711  TIP3      14487           0.0000000000
     65712     14679  TIP3      H1              9.7140220790      -12.7247065227      -42.8705475724  TIP3      14487           0.0000000000
     65713     14679  TIP3      H2              9.2469887309      -12.6947527915      -44.3079299706  TIP3      14487           0.0000000000
     65714     14680  TIP3      OH2            12.7504720030      -13.3443220684      -44.6799298152  TIP3      14488           0.0000000000
     65715     14680  TIP3      H1             11.7859236291      -13.2938842358      -44.5677449954  TIP3      14488           0.0000000000
     65716     14680  TIP3      H2             13.0168603441      -13.9903110242      -43.9989000415  TIP3      14488           0.0000000000
     65717     14681  TIP3      OH2            14.3339820472      -14.7261603319      -42.7758716383  TIP3      14489           0.0000000000
     65718     14681  TIP3      H1             14.2849173188      -15.7050864069      -42.7462314043  TIP3      14489           0.0000000000
     65719     14681  TIP3      H2             14.0829450111      -14.4366588083      -41.8770690396  TIP3      14489           0.0000000000
     65720     14682  TIP3      OH2             4.1014774459      -13.4505798301      -43.6601361055  TIP3      14490           0.0000000000
     65721     14682  TIP3      H1              4.3540861400      -14.1853494187      -44.2459391994  TIP3      14490           0.0000000000
     65722     14682  TIP3      H2              4.0181543759      -13.9001432928      -42.7965166141  TIP3      14490           0.0000000000
     65723     14683  TIP3      OH2             8.9736845610      -17.4270122067      -44.6945238122  TIP3      14491           0.0000000000
     65724     14683  TIP3      H1              9.6532600141      -18.1304367024      -44.7109637302  TIP3      14491           0.0000000000
     65725     14683  TIP3      H2              8.8582413371      -17.2848001140      -45.6550592137  TIP3      14491           0.0000000000
     65726     14684  TIP3      OH2             9.3358216007      -15.8146415725      -42.5776463544  TIP3      14492           0.0000000000
     65727     14684  TIP3      H1              9.1623652209      -16.3201334860      -43.4104233450  TIP3      14492           0.0000000000
     65728     14684  TIP3      H2              8.7364789374      -15.0499880095      -42.6782663532  TIP3      14492           0.0000000000
     65729     14685  TIP3      OH2             8.8012319448        1.1005771676      -59.4030004943  TIP3      14493           0.0000000000
     65730     14685  TIP3      H1              9.7681664145        1.1844569378      -59.3361028750  TIP3      14493           0.0000000000
     65731     14685  TIP3      H2              8.6544325288        1.7014200593      -60.1431581410  TIP3      14493           0.0000000000
     65732     14686  TIP3      OH2             2.3536971186       -4.3281306717      -59.9351862159  TIP3      14494           0.0000000000
     65733     14686  TIP3      H1              3.3205865980       -4.2333735338      -59.7546977127  TIP3      14494           0.0000000000
     65734     14686  TIP3      H2              2.4044043232       -4.9713978691      -60.6817561591  TIP3      14494           0.0000000000
     65735     14687  TIP3      OH2             1.1371664427        1.0569974552      -54.9711593821  TIP3      14495           0.0000000000
     65736     14687  TIP3      H1              0.4162469973        0.5718299324      -55.4292895898  TIP3      14495           0.0000000000
     65737     14687  TIP3      H2              1.4168571257        0.4040991389      -54.3041607769  TIP3      14495           0.0000000000
     65738     14688  TIP3      OH2             1.9586226820       -0.8056559267      -53.0939041784  TIP3      14496           0.0000000000
     65739     14688  TIP3      H1              1.6074190280       -1.6847851190      -52.8945531533  TIP3      14496           0.0000000000
     65740     14688  TIP3      H2              2.1854117239       -0.4760508430      -52.2081948452  TIP3      14496           0.0000000000
     65741     14689  TIP3      OH2            19.4900683845        0.0010369023      -50.1572678593  TIP3      14497           0.0000000000
     65742     14689  TIP3      H1             19.5341492275        0.1568825661      -49.1998969561  TIP3      14497           0.0000000000
     65743     14689  TIP3      H2             20.2130121390        0.5659376565      -50.4701261207  TIP3      14497           0.0000000000
     65744     14690  TIP3      OH2            19.0555180519       -0.4115687915      -47.1984635637  TIP3      14498           0.0000000000
     65745     14690  TIP3      H1             18.6000893140       -1.1832823194      -47.5995875857  TIP3      14498           0.0000000000
     65746     14690  TIP3      H2             19.5591142370       -0.8628931273      -46.5032229167  TIP3      14498           0.0000000000
     65747     14691  TIP3      OH2            17.5173970842       -4.6954638278      -42.5448684098  TIP3      14499           0.0000000000
     65748     14691  TIP3      H1             16.6115342909       -4.7198196738      -42.1802062757  TIP3      14499           0.0000000000
     65749     14691  TIP3      H2             17.8887020144       -3.8891243459      -42.1354333422  TIP3      14499           0.0000000000
     65750     14692  TIP3      OH2            18.8303227312       -6.3632922328      -57.1177375803  TIP3      14500           0.0000000000
     65751     14692  TIP3      H1             19.6979297599       -5.9723853563      -56.9316313593  TIP3      14500           0.0000000000
     65752     14692  TIP3      H2             18.8160122464       -7.0817537983      -56.4482737208  TIP3      14500           0.0000000000
     65753     14693  TIP3      OH2            19.1905170640       -8.2877379670      -55.2273890406  TIP3      14501           0.0000000000
     65754     14693  TIP3      H1             18.4404694432       -8.7862497235      -54.8349541580  TIP3      14501           0.0000000000
     65755     14693  TIP3      H2             19.7897723541       -8.1568400751      -54.4646493764  TIP3      14501           0.0000000000
     65756     14694  TIP3      OH2            18.9506258559       -5.5875623614      -50.2367521658  TIP3      14502           0.0000000000
     65757     14694  TIP3      H1             19.7596992997       -5.9682450361      -50.6227610555  TIP3      14502           0.0000000000
     65758     14694  TIP3      H2             19.0957643624       -4.6349131390      -50.4145471109  TIP3      14502           0.0000000000
     65759     14695  TIP3      OH2            17.5087889189       -2.6853551551      -47.9755376531  TIP3      14503           0.0000000000
     65760     14695  TIP3      H1             16.8175945600       -2.3461714945      -47.3879706393  TIP3      14503           0.0000000000
     65761     14695  TIP3      H2             16.9622513507       -3.0884736149      -48.6844767235  TIP3      14503           0.0000000000
     65762     14696  TIP3      OH2            19.4942922797       -8.4663968115      -58.8364389271  TIP3      14504           0.0000000000
     65763     14696  TIP3      H1             18.9280046288       -8.1245758214      -59.5599943013  TIP3      14504           0.0000000000
     65764     14696  TIP3      H2             19.3945127249       -7.7527788484      -58.1790047941  TIP3      14504           0.0000000000
     65765     14697  TIP3      OH2            17.8747019836      -11.2428244763      -60.3314597145  TIP3      14505           0.0000000000
     65766     14697  TIP3      H1             17.9424022784      -10.5731657323      -61.0217889161  TIP3      14505           0.0000000000
     65767     14697  TIP3      H2             17.6813091363      -12.0633639697      -60.8248425514  TIP3      14505           0.0000000000
     65768     14698  TIP3      OH2            17.0024138118       -9.8115093691      -54.6631731581  TIP3      14506           0.0000000000
     65769     14698  TIP3      H1             16.8656072832      -10.7682726598      -54.6989754060  TIP3      14506           0.0000000000
     65770     14698  TIP3      H2             16.6881472903       -9.6013753741      -53.7643621277  TIP3      14506           0.0000000000
     65771     14699  TIP3      OH2             2.0190178055       -7.7268554833      -50.5984499421  TIP3      14507           0.0000000000
     65772     14699  TIP3      H1              2.1960400606       -7.8101197562      -51.5616508937  TIP3      14507           0.0000000000
     65773     14699  TIP3      H2              2.9122062554       -7.9061738857      -50.2457009032  TIP3      14507           0.0000000000
     65774     14700  TIP3      OH2            17.8775832541       -7.8486186461      -44.9667806833  TIP3      14508           0.0000000000
     65775     14700  TIP3      H1             18.4852146546       -8.6059416193      -44.8368807642  TIP3      14508           0.0000000000
     65776     14700  TIP3      H2             18.4782490574       -7.0746145562      -44.9670607731  TIP3      14508           0.0000000000
     65777     14701  TIP3      OH2            19.3745330957       -9.9673410479      -44.3172385939  TIP3      14509           0.0000000000
     65778     14701  TIP3      H1             18.4916732110      -10.3657590154      -44.4734401685  TIP3      14509           0.0000000000
     65779     14701  TIP3      H2             19.9447994569      -10.7502805481      -44.3956440944  TIP3      14509           0.0000000000
     65780     14702  TIP3      OH2            17.1167482823      -13.7607426577      -61.1887924546  TIP3      14510           0.0000000000
     65781     14702  TIP3      H1             17.7042484461      -14.2007733965      -60.5456552796  TIP3      14510           0.0000000000
     65782     14702  TIP3      H2             16.2538122710      -14.1835754860      -61.0380773361  TIP3      14510           0.0000000000
     65783     14703  TIP3      OH2            16.6562689078      -12.2316373835      -56.2427525322  TIP3      14511           0.0000000000
     65784     14703  TIP3      H1             16.9710549951      -13.1533344825      -56.0815438322  TIP3      14511           0.0000000000
     65785     14703  TIP3      H2             17.4872507092      -11.8332880025      -56.5380530410  TIP3      14511           0.0000000000
     65786     14704  TIP3      OH2            17.3194437407      -11.6876425502      -50.7565842713  TIP3      14512           0.0000000000
     65787     14704  TIP3      H1             18.2798139814      -11.4577080624      -50.7707120268  TIP3      14512           0.0000000000
     65788     14704  TIP3      H2             17.1316763021      -11.5478159885      -49.8168613289  TIP3      14512           0.0000000000
     65789     14705  TIP3      OH2            17.3876640544      -10.9677231338      -47.9699494844  TIP3      14513           0.0000000000
     65790     14705  TIP3      H1             16.5018990294      -10.6787101833      -47.6599816636  TIP3      14513           0.0000000000
     65791     14705  TIP3      H2             17.8191515266      -10.1091322159      -48.1976711159  TIP3      14513           0.0000000000
     65792     14706  TIP3      OH2             1.6385548792      -12.4262632121      -44.4350736308  TIP3      14514           0.0000000000
     65793     14706  TIP3      H1              2.5760820429      -12.6445514700      -44.2524907565  TIP3      14514           0.0000000000
     65794     14706  TIP3      H2              1.1822643262      -13.2567152034      -44.1743494599  TIP3      14514           0.0000000000
     65795     14707  TIP3      OH2            19.7241507076      -16.8739376134      -42.6080909295  TIP3      14515           0.0000000000
     65796     14707  TIP3      H1             19.9911137014      -17.5620959625      -43.2537226306  TIP3      14515           0.0000000000
     65797     14707  TIP3      H2             19.7429398695      -16.0902989061      -43.1951805570  TIP3      14515           0.0000000000
     65798     14708  TIP3      OH2            17.3534056884      -14.9424065957      -56.1545102509  TIP3      14516           0.0000000000
     65799     14708  TIP3      H1             17.5664617718      -15.3800940799      -55.3015003546  TIP3      14516           0.0000000000
     65800     14708  TIP3      H2             16.7539072335      -15.5830909770      -56.5917326934  TIP3      14516           0.0000000000
     65801     14709  TIP3      OH2             2.8352646216      -14.1378568238      -51.5952237576  TIP3      14517           0.0000000000
     65802     14709  TIP3      H1              3.2959105875      -14.9645668249      -51.3402739234  TIP3      14517           0.0000000000
     65803     14709  TIP3      H2              3.3870921499      -13.4452133954      -51.2085449282  TIP3      14517           0.0000000000
     65804     14710  TIP3      OH2             1.1180299813      -11.1351120097      -50.5602497834  TIP3      14518           0.0000000000
     65805     14710  TIP3      H1              1.6817661941      -11.3868820334      -51.3200627257  TIP3      14518           0.0000000000
     65806     14710  TIP3      H2              1.5866808302      -10.3322190599      -50.2906197025  TIP3      14518           0.0000000000
     65807     14711  TIP3      OH2            19.1832763188      -14.8114421957      -44.2674373942  TIP3      14519           0.0000000000
     65808     14711  TIP3      H1             18.2510585129      -14.5303453492      -44.3362998972  TIP3      14519           0.0000000000
     65809     14711  TIP3      H2             19.2215926356      -15.3511407495      -45.0706068408  TIP3      14519           0.0000000000
     65810     14712  TIP3      OH2            19.1688988808      -14.9089194337      -59.6006803790  TIP3      14520           0.0000000000
     65811     14712  TIP3      H1             19.5803380038      -15.6221562419      -60.1384411270  TIP3      14520           0.0000000000
     65812     14712  TIP3      H2             19.8752575874      -14.2480252033      -59.5506578140  TIP3      14520           0.0000000000
     65813     14713  TIP3      OH2             1.4876290240      -14.8591643335      -56.4750611731  TIP3      14521           0.0000000000
     65814     14713  TIP3      H1              0.5438309612      -14.7025324210      -56.6406244184  TIP3      14521           0.0000000000
     65815     14713  TIP3      H2              1.9041816539      -14.3847292948      -57.2129417995  TIP3      14521           0.0000000000
     65816     14714  TIP3      OH2            16.2198463693        0.0750949699      -54.5333105901  TIP3      14522           0.0000000000
     65817     14714  TIP3      H1             16.9041454918       -0.2284578015      -55.1571833940  TIP3      14522           0.0000000000
     65818     14714  TIP3      H2             16.7370017309        0.5721459328      -53.8827628372  TIP3      14522           0.0000000000
     65819     14715  TIP3      OH2             1.4318997620      -16.2273787891      -48.1927811241  TIP3      14523           0.0000000000
     65820     14715  TIP3      H1              0.7643722215      -16.4167168825      -47.5102888542  TIP3      14523           0.0000000000
     65821     14715  TIP3      H2              0.9751654837      -15.5505827842      -48.7321815808  TIP3      14523           0.0000000000
     65822     14716  TIP3      OH2             3.6718665233       -3.0347608925      -44.0289935866  TIP3      14524           0.0000000000
     65823     14716  TIP3      H1              2.8354816655       -2.8033436990      -44.4670494561  TIP3      14524           0.0000000000
     65824     14716  TIP3      H2              3.4034235987       -3.0988277433      -43.1093639266  TIP3      14524           0.0000000000
     65825     14717  TIP3      OH2             6.5706742244       -2.0160739186      -47.7488523571  TIP3      14525           0.0000000000
     65826     14717  TIP3      H1              6.2427146568       -1.1487944751      -48.0231332341  TIP3      14525           0.0000000000
     65827     14717  TIP3      H2              7.4969186632       -1.9346658093      -48.0560408845  TIP3      14525           0.0000000000
     65828     14718  TIP3      OH2            10.8894475139       -0.5929467030      -44.8479344054  TIP3      14526           0.0000000000
     65829     14718  TIP3      H1             11.0298163495       -0.9480043639      -43.9391433299  TIP3      14526           0.0000000000
     65830     14718  TIP3      H2             11.7877570476       -0.2969490607      -45.0964821537  TIP3      14526           0.0000000000
     65831     14719  TIP3      OH2            13.1948570610        0.6997683199      -45.5431453001  TIP3      14527           0.0000000000
     65832     14719  TIP3      H1             13.9005527365        0.0822470594      -45.7829171563  TIP3      14527           0.0000000000
     65833     14719  TIP3      H2             13.5451383522        1.0904082751      -44.7231206877  TIP3      14527           0.0000000000
     65834     14720  TIP3      OH2            18.1982459409      -16.7138220788      -46.4277327639  TIP3      14528           0.0000000000
     65835     14720  TIP3      H1             17.3700701785      -16.4146309478      -46.8419969472  TIP3      14528           0.0000000000
     65836     14720  TIP3      H2             18.3664822259      -17.5361642589      -46.9459377336  TIP3      14528           0.0000000000
     65837     14721  TIP3      OH2             3.9955459391        1.2163982832      -47.7579653880  TIP3      14529           0.0000000000
     65838     14721  TIP3      H1              3.2644541260        1.7188202426      -48.1526298568  TIP3      14529           0.0000000000
     65839     14721  TIP3      H2              3.6853689960        1.0274581425      -46.8607109755  TIP3      14529           0.0000000000
     65840     14722  TIP3      OH2             6.4636170397        0.7944492967      -48.6827519031  TIP3      14530           0.0000000000
     65841     14722  TIP3      H1              5.5715879937        0.9463743444      -48.2898415011  TIP3      14530           0.0000000000
     65842     14722  TIP3      H2              6.4098270950        1.3853214336      -49.4569766730  TIP3      14530           0.0000000000
     65843     14723  TIP3      OH2            11.1719643572        0.7094282902      -49.5170374392  TIP3      14531           0.0000000000
     65844     14723  TIP3      H1             10.7080895878        1.2658262582      -50.1604849478  TIP3      14531           0.0000000000
     65845     14723  TIP3      H2             11.3019364927        1.3397845894      -48.7772845485  TIP3      14531           0.0000000000
     65846     14724  TIP3      OH2            13.4576263286       -0.4850339294      -48.4829032796  TIP3      14532           0.0000000000
     65847     14724  TIP3      H1             12.6050087166       -0.2053595572      -48.8537356854  TIP3      14532           0.0000000000
     65848     14724  TIP3      H2             13.9438271337        0.3533441951      -48.5727016210  TIP3      14532           0.0000000000
     65849     14725  TIP3      OH2            16.0370567226        1.0900731507      -48.2539995033  TIP3      14533           0.0000000000
     65850     14725  TIP3      H1             15.9805619311        2.0427367141      -48.5075593337  TIP3      14533           0.0000000000
     65851     14725  TIP3      H2             16.2543014412        0.7045183788      -49.1307933446  TIP3      14533           0.0000000000
     65852     14726  TIP3      OH2             3.4569007859       -0.1325428042      -50.8133695473  TIP3      14534           0.0000000000
     65853     14726  TIP3      H1              3.3741035776       -0.5923288047      -49.9509300292  TIP3      14534           0.0000000000
     65854     14726  TIP3      H2              4.2709488149       -0.5127384895      -51.2012947989  TIP3      14534           0.0000000000
     65855     14727  TIP3      OH2             5.5313212361       -1.4213165911      -52.1598154423  TIP3      14535           0.0000000000
     65856     14727  TIP3      H1              5.3670032669       -2.3548158594      -51.9262482860  TIP3      14535           0.0000000000
     65857     14727  TIP3      H2              6.3872322202       -1.2664220352      -51.7073832241  TIP3      14535           0.0000000000
     65858     14728  TIP3      OH2             8.1393759956       -0.9461396300      -51.2903481917  TIP3      14536           0.0000000000
     65859     14728  TIP3      H1              8.2911950291       -1.8713724024      -51.5455478422  TIP3      14536           0.0000000000
     65860     14728  TIP3      H2              8.1791493458       -0.9946988092      -50.3235375112  TIP3      14536           0.0000000000
     65861     14729  TIP3      OH2            11.5875419713      -15.2866919015      -52.1450338586  TIP3      14537           0.0000000000
     65862     14729  TIP3      H1             10.9122393030      -15.9270439635      -51.8633895883  TIP3      14537           0.0000000000
     65863     14729  TIP3      H2             12.1406014922      -15.8210021208      -52.7274410468  TIP3      14537           0.0000000000
     65864     14730  TIP3      OH2            16.7248735968      -17.2396938018      -52.0825808495  TIP3      14538           0.0000000000
     65865     14730  TIP3      H1             17.3366286180      -16.6462648552      -52.5885978286  TIP3      14538           0.0000000000
     65866     14730  TIP3      H2             15.8425282758      -16.8779004560      -52.3112658985  TIP3      14538           0.0000000000
     65867     14731  TIP3      OH2            18.3927992333      -15.9900624552      -53.8054359490  TIP3      14539           0.0000000000
     65868     14731  TIP3      H1             19.0800230327      -16.5650105539      -54.2190752550  TIP3      14539           0.0000000000
     65869     14731  TIP3      H2             18.9002403273      -15.1535297852      -53.6968650540  TIP3      14539           0.0000000000
     65870     14732  TIP3      OH2             3.9618795261      -16.6619483529      -54.2966561752  TIP3      14540           0.0000000000
     65871     14732  TIP3      H1              3.1641372404      -16.8553347314      -54.8252917525  TIP3      14540           0.0000000000
     65872     14732  TIP3      H2              4.4195768075      -17.5230308345      -54.3570693192  TIP3      14540           0.0000000000
     65873     14733  TIP3      OH2             2.7287677264      -16.9095676238      -58.5767395209  TIP3      14541           0.0000000000
     65874     14733  TIP3      H1              3.2201140743      -16.2579095478      -59.1108939671  TIP3      14541           0.0000000000
     65875     14733  TIP3      H2              2.1606740459      -16.3349384492      -58.0382118264  TIP3      14541           0.0000000000
     65876     14734  TIP3      OH2             8.4287865864      -16.7354604881      -54.5102554896  TIP3      14542           0.0000000000
     65877     14734  TIP3      H1              9.3292450726      -16.3781668055      -54.5843393671  TIP3      14542           0.0000000000
     65878     14734  TIP3      H2              8.3958935097      -16.9547585916      -53.5802625412  TIP3      14542           0.0000000000
     65879     14735  TIP3      OH2            14.1454232458      -16.7168209185      -52.8868742649  TIP3      14543           0.0000000000
     65880     14735  TIP3      H1             14.0933315814      -16.6035651430      -53.8447869362  TIP3      14543           0.0000000000
     65881     14735  TIP3      H2             13.7647749810      -17.6200952422      -52.7579575233  TIP3      14543           0.0000000000
     65882     14736  TIP3      OH2            15.4114729567      -16.6875967955      -57.2020502927  TIP3      14544           0.0000000000
     65883     14736  TIP3      H1             14.6624210199      -16.0937996394      -57.3604906986  TIP3      14544           0.0000000000
     65884     14736  TIP3      H2             14.9716975370      -17.5397591094      -56.9683272260  TIP3      14544           0.0000000000
     65885     14737  TIP3      OH2             2.6406941682       -0.9600816057      -57.5451191181  TIP3      14545           0.0000000000
     65886     14737  TIP3      H1              1.9839796548       -0.9740188280      -58.2654819721  TIP3      14545           0.0000000000
     65887     14737  TIP3      H2              2.6382614983       -0.0049442564      -57.3740258238  TIP3      14545           0.0000000000
     65888     14738  TIP3      OH2             4.5549538880      -14.9644355044      -60.0635689187  TIP3      14546           0.0000000000
     65889     14738  TIP3      H1              5.0869957487      -15.5819836483      -60.5919389484  TIP3      14546           0.0000000000
     65890     14738  TIP3      H2              5.2210170084      -14.6426013599      -59.4286724148  TIP3      14546           0.0000000000
     65891     14739  TIP3      OH2             9.5815528347      -14.7195199640      -57.6602678315  TIP3      14547           0.0000000000
     65892     14739  TIP3      H1              9.8320397731      -15.2980408117      -56.9208287829  TIP3      14547           0.0000000000
     65893     14739  TIP3      H2              9.6509008178      -13.8518334644      -57.2033458765  TIP3      14547           0.0000000000
     65894     14740  TIP3      OH2            11.5156641375        0.3493936014      -59.2094324709  TIP3      14548           0.0000000000
     65895     14740  TIP3      H1             12.4323270003        0.5784196658      -59.4341910146  TIP3      14548           0.0000000000
     65896     14740  TIP3      H2             11.2948691232       -0.1679105892      -60.0130379289  TIP3      14548           0.0000000000
     65897     14741  TIP3      OH2            18.2025083969       -0.1495071306      -56.4934650790  TIP3      14549           0.0000000000
     65898     14741  TIP3      H1             18.0180960746       -0.9315952033      -57.0664501759  TIP3      14549           0.0000000000
     65899     14741  TIP3      H2             18.1426361054        0.5867853055      -57.1364051693  TIP3      14549           0.0000000000
     65900     14742  TIP3      OH2             3.8448719912      -16.1172204167      -44.8475479696  TIP3      14550           0.0000000000
     65901     14742  TIP3      H1              3.4552454225      -16.9141390940      -44.4408904935  TIP3      14550           0.0000000000
     65902     14742  TIP3      H2              4.7527933532      -16.1609683473      -44.4647619364  TIP3      14550           0.0000000000
     65903     14743  TIP3      OH2             5.8446347576      -16.7362160556      -43.2017951427  TIP3      14551           0.0000000000
     65904     14743  TIP3      H1              6.7376185942      -17.0730887554      -43.4190565028  TIP3      14551           0.0000000000
     65905     14743  TIP3      H2              5.4711101454      -17.5436584904      -42.7991257106  TIP3      14551           0.0000000000
     65906     14744  TIP3      OH2             4.4347948801        0.0274699720      -60.6051049543  TIP3      14552           0.0000000000
     65907     14744  TIP3      H1              4.1754660171        0.2861520565      -59.7088312628  TIP3      14552           0.0000000000
     65908     14744  TIP3      H2              5.2183822050       -0.5360003941      -60.4495870536  TIP3      14552           0.0000000000
     65909     14745  TIP3      OH2            14.2604288562      -17.4314272340      -43.0366970059  TIP3      14553           0.0000000000
     65910     14745  TIP3      H1             14.3447053809      -17.9242068769      -42.1985393461  TIP3      14553           0.0000000000
     65911     14745  TIP3      H2             15.1688374163      -17.4845945403      -43.3942215071  TIP3      14553           0.0000000000
     65912     14746  TIP3      OH2            17.4577294004       -1.3874630065      -44.4225966636  TIP3      14554           0.0000000000
     65913     14746  TIP3      H1             16.6572068672       -1.5528166051      -44.9687018513  TIP3      14554           0.0000000000
     65914     14746  TIP3      H2             17.3334149464       -0.4555785797      -44.2011414039  TIP3      14554           0.0000000000
     65915     14747  TIP3      OH2            31.9015227599       -7.5357798903      -54.4395533274  TIP3      14555           0.0000000000
     65916     14747  TIP3      H1             31.9026254629       -6.5530193461      -54.4678113788  TIP3      14555           0.0000000000
     65917     14747  TIP3      H2             31.1731974063       -7.7590611669      -55.0421205536  TIP3      14555           0.0000000000
     65918     14748  TIP3      OH2            30.7599060251       -8.2672366917      -50.9399298648  TIP3      14556           0.0000000000
     65919     14748  TIP3      H1             30.7416575001       -8.9155668214      -50.2214552838  TIP3      14556           0.0000000000
     65920     14748  TIP3      H2             30.4332504366       -8.7812178981      -51.6994860133  TIP3      14556           0.0000000000
     65921     14749  TIP3      OH2            23.1094799599       -8.5894807422      -49.3870931062  TIP3      14557           0.0000000000
     65922     14749  TIP3      H1             23.1935496060       -9.2772695109      -48.6936414389  TIP3      14557           0.0000000000
     65923     14749  TIP3      H2             23.8593390026       -8.0194568378      -49.1633460923  TIP3      14557           0.0000000000
     65924     14750  TIP3      OH2            34.4635728271       -5.3408687063      -52.6423014947  TIP3      14558           0.0000000000
     65925     14750  TIP3      H1             34.0389206171       -6.0502600935      -52.1521324309  TIP3      14558           0.0000000000
     65926     14750  TIP3      H2             34.4676770733       -4.6207653974      -51.9905753472  TIP3      14558           0.0000000000
     65927     14751  TIP3      OH2            24.0360775424       -4.1428590181      -50.8859044595  TIP3      14559           0.0000000000
     65928     14751  TIP3      H1             23.7252064670       -5.0120724723      -51.2042439022  TIP3      14559           0.0000000000
     65929     14751  TIP3      H2             24.9913757038       -4.3255216282      -50.8403425266  TIP3      14559           0.0000000000
     65930     14752  TIP3      OH2            20.6746242932      -10.5860464678      -55.3925467961  TIP3      14560           0.0000000000
     65931     14752  TIP3      H1             20.2375906707       -9.7163771277      -55.4602508568  TIP3      14560           0.0000000000
     65932     14752  TIP3      H2             20.1181147240      -11.1287768968      -55.9649202706  TIP3      14560           0.0000000000
     65933     14753  TIP3      OH2            21.3870699682       -8.3597772346      -53.2462860151  TIP3      14561           0.0000000000
     65934     14753  TIP3      H1             21.6615296913       -9.1823014073      -52.7987286445  TIP3      14561           0.0000000000
     65935     14753  TIP3      H2             22.0802719924       -8.2531656671      -53.9152891226  TIP3      14561           0.0000000000
     65936     14754  TIP3      OH2            31.5628404179       -0.1294435426      -52.4235605223  TIP3      14562           0.0000000000
     65937     14754  TIP3      H1             32.1890885676       -0.8388514257      -52.7125665553  TIP3      14562           0.0000000000
     65938     14754  TIP3      H2             31.3282934163       -0.4824755977      -51.5602108322  TIP3      14562           0.0000000000
     65939     14755  TIP3      OH2            29.1383040507       -5.8687352054      -50.4620476185  TIP3      14563           0.0000000000
     65940     14755  TIP3      H1             29.4708165045       -6.4952570777      -51.1252638776  TIP3      14563           0.0000000000
     65941     14755  TIP3      H2             29.9513752872       -5.7103022880      -49.9506573722  TIP3      14563           0.0000000000
     65942     14756  TIP3      OH2            32.3108290360      -11.3927066738      -50.1562106185  TIP3      14564           0.0000000000
     65943     14756  TIP3      H1             32.4733610196      -12.3510929061      -50.1775996438  TIP3      14564           0.0000000000
     65944     14756  TIP3      H2             32.2102287863      -11.2406812370      -51.1174713366  TIP3      14564           0.0000000000
     65945     14757  TIP3      OH2            25.4113353499      -13.3084487813      -52.9378511013  TIP3      14565           0.0000000000
     65946     14757  TIP3      H1             25.5222286315      -12.4750289926      -53.4323543254  TIP3      14565           0.0000000000
     65947     14757  TIP3      H2             25.0158072778      -13.8823879922      -53.6289618177  TIP3      14565           0.0000000000
     65948     14758  TIP3      OH2            33.2633042688      -12.8139705695      -54.2860478211  TIP3      14566           0.0000000000
     65949     14758  TIP3      H1             33.7832412985      -13.5440976374      -53.8779703494  TIP3      14566           0.0000000000
     65950     14758  TIP3      H2             33.7102488450      -12.7458338153      -55.1277806789  TIP3      14566           0.0000000000
     65951     14759  TIP3      OH2            22.0381772743      -10.8983912919      -52.2044759600  TIP3      14567           0.0000000000
     65952     14759  TIP3      H1             22.7073229995      -11.4424152165      -51.7493131728  TIP3      14567           0.0000000000
     65953     14759  TIP3      H2             22.1435786331      -11.2130526123      -53.1155165175  TIP3      14567           0.0000000000
     65954     14760  TIP3      OH2            27.1921920927       -9.3429707691      -52.8788292646  TIP3      14568           0.0000000000
     65955     14760  TIP3      H1             27.8694191969       -9.9237390430      -52.4896124245  TIP3      14568           0.0000000000
     65956     14760  TIP3      H2             26.6821335958      -10.0017106953      -53.3900336334  TIP3      14568           0.0000000000
     65957     14761  TIP3      OH2            24.3230529982      -14.4093460438      -48.8984861342  TIP3      14569           0.0000000000
     65958     14761  TIP3      H1             24.0410964836      -13.8378494242      -49.6442141572  TIP3      14569           0.0000000000
     65959     14761  TIP3      H2             23.6459971692      -14.1807698083      -48.2165136739  TIP3      14569           0.0000000000
     65960     14762  TIP3      OH2            31.5956464066       -4.9499255712      -55.3586855154  TIP3      14570           0.0000000000
     65961     14762  TIP3      H1             31.3413438109       -5.2108542384      -56.2499097435  TIP3      14570           0.0000000000
     65962     14762  TIP3      H2             31.3003150162       -4.0114610979      -55.2986494899  TIP3      14570           0.0000000000
     65963     14763  TIP3      OH2            26.8358892042       -6.7678804209      -48.6604326373  TIP3      14571           0.0000000000
     65964     14763  TIP3      H1             26.1323965921       -6.1232521121      -48.4402879097  TIP3      14571           0.0000000000
     65965     14763  TIP3      H2             27.5424215509       -6.1686942157      -48.9498023339  TIP3      14571           0.0000000000
     65966     14764  TIP3      OH2            34.7106237457      -13.9484500774      -52.4541382784  TIP3      14572           0.0000000000
     65967     14764  TIP3      H1             34.7105514513      -14.7510689672      -51.9325136242  TIP3      14572           0.0000000000
     65968     14764  TIP3      H2             35.4487119495      -13.4513907629      -52.0516697245  TIP3      14572           0.0000000000
     65969     14765  TIP3      OH2            23.8917093881      -12.5541218250      -50.8618550853  TIP3      14573           0.0000000000
     65970     14765  TIP3      H1             24.5192367074      -11.8642850467      -50.5519228142  TIP3      14573           0.0000000000
     65971     14765  TIP3      H2             24.4083042747      -12.9631475080      -51.6011826723  TIP3      14573           0.0000000000
     65972     14766  TIP3      OH2            25.2843640825       -4.7603162718      -47.8392729655  TIP3      14574           0.0000000000
     65973     14766  TIP3      H1             25.2340700998       -3.8472755200      -48.1770079612  TIP3      14574           0.0000000000
     65974     14766  TIP3      H2             24.4019134368       -4.8417657042      -47.3961220981  TIP3      14574           0.0000000000
     65975     14767  TIP3      OH2            21.3604869757       -5.1539928165      -57.0465344111  TIP3      14575           0.0000000000
     65976     14767  TIP3      H1             21.1126778532       -4.8122138618      -57.9241507635  TIP3      14575           0.0000000000
     65977     14767  TIP3      H2             21.4512063577       -4.3263152318      -56.5265164053  TIP3      14575           0.0000000000
     65978     14768  TIP3      OH2            34.7740139398       -3.5553563588      -50.1938533750  TIP3      14576           0.0000000000
     65979     14768  TIP3      H1             33.8159091554       -3.3414615354      -50.1498495341  TIP3      14576           0.0000000000
     65980     14768  TIP3      H2             35.1569236135       -2.7103103638      -50.4962926862  TIP3      14576           0.0000000000
     65981     14769  TIP3      OH2            35.1001059785      -15.0659296054      -49.1339396666  TIP3      14577           0.0000000000
     65982     14769  TIP3      H1             34.4003600362      -14.3896349494      -49.0362670151  TIP3      14577           0.0000000000
     65983     14769  TIP3      H2             35.8522156390      -14.5756593768      -49.4891839708  TIP3      14577           0.0000000000
     65984     14770  TIP3      OH2            28.2604036483      -17.0766588388      -51.4340435841  TIP3      14578           0.0000000000
     65985     14770  TIP3      H1             28.1243810754      -18.0411649022      -51.5047012529  TIP3      14578           0.0000000000
     65986     14770  TIP3      H2             27.3821404241      -16.7707401922      -51.1264745128  TIP3      14578           0.0000000000
     65987     14771  TIP3      OH2            33.1435411086       -1.7636475147      -53.6794553875  TIP3      14579           0.0000000000
     65988     14771  TIP3      H1             33.6342825533       -2.4446705038      -54.1852780571  TIP3      14579           0.0000000000
     65989     14771  TIP3      H2             33.5976834810       -0.9648510589      -54.0301472385  TIP3      14579           0.0000000000
     65990     14772  TIP3      OH2            34.4282542634       -3.7811987061      -55.1766766680  TIP3      14580           0.0000000000
     65991     14772  TIP3      H1             34.1860400790       -4.4950674011      -55.7875450460  TIP3      14580           0.0000000000
     65992     14772  TIP3      H2             34.4889876742       -4.2838163101      -54.3385965774  TIP3      14580           0.0000000000
     65993     14773  TIP3      OH2            35.8002366390       -5.0346339613      -46.5652920466  TIP3      14581           0.0000000000
     65994     14773  TIP3      H1             36.0790640270       -5.7338216103      -47.1905718263  TIP3      14581           0.0000000000
     65995     14773  TIP3      H2             36.2102806341       -4.2772387127      -47.0223606887  TIP3      14581           0.0000000000
     65996     14774  TIP3      OH2            30.5488627657       -8.2553898694      -56.9264309881  TIP3      14582           0.0000000000
     65997     14774  TIP3      H1             29.8575387544       -7.6933145210      -57.3057493771  TIP3      14582           0.0000000000
     65998     14774  TIP3      H2             31.2615311684       -8.2033394847      -57.5889112345  TIP3      14582           0.0000000000
     65999     14775  TIP3      OH2            30.6395974422       -9.7084896647      -59.9194367239  TIP3      14583           0.0000000000
     66000     14775  TIP3      H1             31.3503592269       -9.7373672162      -59.2588671531  TIP3      14583           0.0000000000
     66001     14775  TIP3      H2             30.9385203383      -10.4367906596      -60.4812845937  TIP3      14583           0.0000000000
     66002     14776  TIP3      OH2            33.9707968181       -8.0815358158      -56.0386477986  TIP3      14584           0.0000000000
     66003     14776  TIP3      H1             33.2523090122       -7.8201131051      -55.4154223700  TIP3      14584           0.0000000000
     66004     14776  TIP3      H2             34.4600382516       -8.7130351001      -55.4681088126  TIP3      14584           0.0000000000
     66005     14777  TIP3      OH2            33.9518523899       -9.8939611829      -46.9076159963  TIP3      14585           0.0000000000
     66006     14777  TIP3      H1             33.9027867675       -9.0957306259      -46.3569645347  TIP3      14585           0.0000000000
     66007     14777  TIP3      H2             33.3103254785       -9.6262968315      -47.5916651775  TIP3      14585           0.0000000000
     66008     14778  TIP3      OH2            25.6158967947       -7.4184304569      -54.0841059305  TIP3      14586           0.0000000000
     66009     14778  TIP3      H1             25.2976038163       -7.8059240201      -54.9351081120  TIP3      14586           0.0000000000
     66010     14778  TIP3      H2             26.2330743596       -8.1076166618      -53.7520685009  TIP3      14586           0.0000000000
     66011     14779  TIP3      OH2            26.9350390424       -4.0194198766      -51.4083564087  TIP3      14587           0.0000000000
     66012     14779  TIP3      H1             26.9310178948       -4.5527797837      -52.2141392392  TIP3      14587           0.0000000000
     66013     14779  TIP3      H2             27.7154653281       -4.3809145000      -50.9476208226  TIP3      14587           0.0000000000
     66014     14780  TIP3      OH2            25.9446954736       -8.6688465627      -50.4230418430  TIP3      14588           0.0000000000
     66015     14780  TIP3      H1             26.4953863311       -8.5709145926      -51.2248584774  TIP3      14588           0.0000000000
     66016     14780  TIP3      H2             26.3357898885       -8.0040229383      -49.8138771875  TIP3      14588           0.0000000000
     66017     14781  TIP3      OH2            32.2927201753       -3.0825669271      -49.7297533992  TIP3      14589           0.0000000000
     66018     14781  TIP3      H1             32.0902464994       -2.4570367317      -49.0303884086  TIP3      14589           0.0000000000
     66019     14781  TIP3      H2             32.1078279987       -3.9504522050      -49.2987509365  TIP3      14589           0.0000000000
     66020     14782  TIP3      OH2            26.9003204743       -4.2368385090      -45.7285126928  TIP3      14590           0.0000000000
     66021     14782  TIP3      H1             26.4851297834       -3.4984221050      -45.2377595453  TIP3      14590           0.0000000000
     66022     14782  TIP3      H2             26.2277883567       -4.4372929276      -46.4253510116  TIP3      14590           0.0000000000
     66023     14783  TIP3      OH2            32.8671491508       -8.8917395892      -58.3255335762  TIP3      14591           0.0000000000
     66024     14783  TIP3      H1             33.4251921479       -8.6756191809      -57.5367513763  TIP3      14591           0.0000000000
     66025     14783  TIP3      H2             33.2746438421       -8.3763396317      -59.0475383061  TIP3      14591           0.0000000000
     66026     14784  TIP3      OH2            23.8425063898       -8.0784451478      -46.5748684322  TIP3      14592           0.0000000000
     66027     14784  TIP3      H1             23.8954182891       -7.4096207862      -45.8665236908  TIP3      14592           0.0000000000
     66028     14784  TIP3      H2             22.8997733121       -7.9904119595      -46.7858035877  TIP3      14592           0.0000000000
     66029     14785  TIP3      OH2            30.5853134231       -2.1507145735      -54.8738367673  TIP3      14593           0.0000000000
     66030     14785  TIP3      H1             31.0190450970       -1.8507489595      -54.0639735388  TIP3      14593           0.0000000000
     66031     14785  TIP3      H2             30.0273876631       -1.3994030158      -55.1053433964  TIP3      14593           0.0000000000
     66032     14786  TIP3      OH2            25.1483919634       -2.2041466624      -44.9813894659  TIP3      14594           0.0000000000
     66033     14786  TIP3      H1             25.0855138974       -2.3011175463      -45.9471592358  TIP3      14594           0.0000000000
     66034     14786  TIP3      H2             24.2186959729       -2.3375918180      -44.7129512619  TIP3      14594           0.0000000000
     66035     14787  TIP3      OH2            24.5763521688       -8.3966142459      -56.4543451178  TIP3      14595           0.0000000000
     66036     14787  TIP3      H1             24.3001770316       -7.6120843677      -56.9742969005  TIP3      14595           0.0000000000
     66037     14787  TIP3      H2             23.9322742580       -9.0616353948      -56.7031529920  TIP3      14595           0.0000000000
     66038     14788  TIP3      OH2            20.6718948797       -5.9647961752      -47.5672123515  TIP3      14596           0.0000000000
     66039     14788  TIP3      H1             20.2323004344       -6.0449559140      -48.4342649539  TIP3      14596           0.0000000000
     66040     14788  TIP3      H2             20.7580600510       -6.9123917235      -47.3551168422  TIP3      14596           0.0000000000
     66041     14789  TIP3      OH2            20.4369561506       -3.2252747061      -50.7978851476  TIP3      14597           0.0000000000
     66042     14789  TIP3      H1             21.3951044922       -3.3415343492      -50.8148241803  TIP3      14597           0.0000000000
     66043     14789  TIP3      H2             20.3545036291       -2.4077139520      -50.2922402991  TIP3      14597           0.0000000000
     66044     14790  TIP3      OH2            29.6309316865       -2.9834413724      -46.2441400718  TIP3      14598           0.0000000000
     66045     14790  TIP3      H1             29.6925348709       -2.1413062130      -45.7357187853  TIP3      14598           0.0000000000
     66046     14790  TIP3      H2             28.7507042154       -3.3327631725      -46.0036903989  TIP3      14598           0.0000000000
     66047     14791  TIP3      OH2            30.1388081700        0.7541953785      -56.4589701485  TIP3      14599           0.0000000000
     66048     14791  TIP3      H1             29.9778279712        0.6890168471      -57.4139469929  TIP3      14599           0.0000000000
     66049     14791  TIP3      H2             30.0715509362        1.7126873248      -56.2969748755  TIP3      14599           0.0000000000
     66050     14792  TIP3      OH2            23.7163998736       -0.4434049055      -54.6769023885  TIP3      14600           0.0000000000
     66051     14792  TIP3      H1             23.8856567948       -0.7070105830      -53.7455550660  TIP3      14600           0.0000000000
     66052     14792  TIP3      H2             22.8298260614       -0.7776497619      -54.8330676159  TIP3      14600           0.0000000000
     66053     14793  TIP3      OH2            33.1488746820       -0.0177147826      -59.4845288014  TIP3      14601           0.0000000000
     66054     14793  TIP3      H1             33.5798372662       -0.7879408287      -59.9213586781  TIP3      14601           0.0000000000
     66055     14793  TIP3      H2             33.1660048264       -0.2890023549      -58.5445422512  TIP3      14601           0.0000000000
     66056     14794  TIP3      OH2            32.8079551857       -0.1106954085      -56.6832812564  TIP3      14602           0.0000000000
     66057     14794  TIP3      H1             31.8432950466       -0.0182406482      -56.5160168823  TIP3      14602           0.0000000000
     66058     14794  TIP3      H2             33.0389888077       -0.8529544902      -56.1062539066  TIP3      14602           0.0000000000
     66059     14795  TIP3      OH2            35.3255533111      -10.8817943029      -44.6043851461  TIP3      14603           0.0000000000
     66060     14795  TIP3      H1             35.2885351868      -10.5328301805      -45.4988192043  TIP3      14603           0.0000000000
     66061     14795  TIP3      H2             35.8633901638      -11.7081290287      -44.7576352835  TIP3      14603           0.0000000000
     66062     14796  TIP3      OH2            22.9651574740       -4.6525100389      -46.6307725114  TIP3      14604           0.0000000000
     66063     14796  TIP3      H1             23.1848574468       -5.0139782301      -45.7467883098  TIP3      14604           0.0000000000
     66064     14796  TIP3      H2             22.0934401106       -5.0462711797      -46.8427349644  TIP3      14604           0.0000000000
     66065     14797  TIP3      OH2            25.6441825755      -16.1725779529      -50.6824686474  TIP3      14605           0.0000000000
     66066     14797  TIP3      H1             24.7410525104      -16.2994619472      -51.0491638078  TIP3      14605           0.0000000000
     66067     14797  TIP3      H2             25.5098472232      -15.3423903012      -50.1963524757  TIP3      14605           0.0000000000
     66068     14798  TIP3      OH2            30.2888756016      -16.5101831302      -47.3219933818  TIP3      14606           0.0000000000
     66069     14798  TIP3      H1             30.6846559841      -16.9268810143      -46.5341210501  TIP3      14606           0.0000000000
     66070     14798  TIP3      H2             29.3160753646      -16.6235288881      -47.1752421128  TIP3      14606           0.0000000000
     66071     14799  TIP3      OH2            33.5025760659      -12.7005992106      -46.4824750052  TIP3      14607           0.0000000000
     66072     14799  TIP3      H1             33.0193563598      -12.8723582567      -45.6397889300  TIP3      14607           0.0000000000
     66073     14799  TIP3      H2             33.4267684743      -11.7448809968      -46.6154519970  TIP3      14607           0.0000000000
     66074     14800  TIP3      OH2            34.3869799795       -7.9302192931      -60.5173228157  TIP3      14608           0.0000000000
     66075     14800  TIP3      H1             34.3050848334       -8.0925772500      -61.4849850070  TIP3      14608           0.0000000000
     66076     14800  TIP3      H2             35.1636585054       -7.3670273077      -60.4975493035  TIP3      14608           0.0000000000
     66077     14801  TIP3      OH2            29.8958853236      -13.9140384871      -60.0471006347  TIP3      14609           0.0000000000
     66078     14801  TIP3      H1             29.6515450420      -13.9639502713      -59.1019647213  TIP3      14609           0.0000000000
     66079     14801  TIP3      H2             29.6231499302      -14.8087782678      -60.3072567863  TIP3      14609           0.0000000000
     66080     14802  TIP3      OH2            25.7521436498      -11.1936217749      -49.4186906118  TIP3      14610           0.0000000000
     66081     14802  TIP3      H1             25.0072199933      -11.2080974344      -48.7900934854  TIP3      14610           0.0000000000
     66082     14802  TIP3      H2             25.6982284051      -10.2897939027      -49.8010522161  TIP3      14610           0.0000000000
     66083     14803  TIP3      OH2            25.7057644301      -11.0881507701      -54.5656742481  TIP3      14611           0.0000000000
     66084     14803  TIP3      H1             24.7682117700      -11.3379187402      -54.6972373008  TIP3      14611           0.0000000000
     66085     14803  TIP3      H2             26.0902227341      -11.3777414411      -55.4199536665  TIP3      14611           0.0000000000
     66086     14804  TIP3      OH2            31.2521396075      -10.5362555376      -55.7509817700  TIP3      14612           0.0000000000
     66087     14804  TIP3      H1             30.8298304875       -9.7576409890      -56.1679964461  TIP3      14612           0.0000000000
     66088     14804  TIP3      H2             31.9041028065      -10.7750850582      -56.4356723749  TIP3      14612           0.0000000000
     66089     14805  TIP3      OH2            30.2916546697      -10.3679277747      -44.3512086716  TIP3      14613           0.0000000000
     66090     14805  TIP3      H1             29.7741963270      -11.1501415790      -44.0484354418  TIP3      14613           0.0000000000
     66091     14805  TIP3      H2             31.1349979592      -10.4918294415      -43.8812981925  TIP3      14613           0.0000000000
     66092     14806  TIP3      OH2            32.1776448755      -11.0073482058      -52.8850786804  TIP3      14614           0.0000000000
     66093     14806  TIP3      H1             31.9966899909      -10.5222696831      -53.7070303569  TIP3      14614           0.0000000000
     66094     14806  TIP3      H2             32.3840533888      -11.8735690578      -53.3395219115  TIP3      14614           0.0000000000
     66095     14807  TIP3      OH2            23.3670572949      -10.9496838966      -47.7507544367  TIP3      14615           0.0000000000
     66096     14807  TIP3      H1             23.4499574032      -10.5418643119      -46.8710110369  TIP3      14615           0.0000000000
     66097     14807  TIP3      H2             22.9272704139      -11.7886019615      -47.5405673152  TIP3      14615           0.0000000000
     66098     14808  TIP3      OH2            26.7253764876      -13.5623611910      -60.9138082512  TIP3      14616           0.0000000000
     66099     14808  TIP3      H1             26.2973889102      -13.9671945646      -60.1315958964  TIP3      14616           0.0000000000
     66100     14808  TIP3      H2             26.0122512284      -13.1212219930      -61.3880821862  TIP3      14616           0.0000000000
     66101     14809  TIP3      OH2            20.0256090937      -13.8404239111      -53.7597322022  TIP3      14617           0.0000000000
     66102     14809  TIP3      H1             20.7101552772      -13.8797674722      -53.0593695306  TIP3      14617           0.0000000000
     66103     14809  TIP3      H2             20.4733927621      -14.2141645972      -54.5406866583  TIP3      14617           0.0000000000
     66104     14810  TIP3      OH2            21.2888533723      -13.1217593840      -58.4147996356  TIP3      14618           0.0000000000
     66105     14810  TIP3      H1             21.8033733742      -12.5095551839      -58.9717106004  TIP3      14618           0.0000000000
     66106     14810  TIP3      H2             20.6026901035      -12.4982108591      -58.0938198600  TIP3      14618           0.0000000000
     66107     14811  TIP3      OH2            31.4424502456       -9.5150962957      -48.4001532582  TIP3      14619           0.0000000000
     66108     14811  TIP3      H1             31.8378192279      -10.2073301292      -48.9731032859  TIP3      14619           0.0000000000
     66109     14811  TIP3      H2             30.9783577474      -10.0376275272      -47.7226720659  TIP3      14619           0.0000000000
     66110     14812  TIP3      OH2            28.2436241105      -13.5212080765      -53.5495037132  TIP3      14620           0.0000000000
     66111     14812  TIP3      H1             27.3093089920      -13.5230147737      -53.2490785509  TIP3      14620           0.0000000000
     66112     14812  TIP3      H2             28.7604882861      -13.7003043023      -52.7469886387  TIP3      14620           0.0000000000
     66113     14813  TIP3      OH2            23.0711749966      -11.9823504323      -54.6910565573  TIP3      14621           0.0000000000
     66114     14813  TIP3      H1             22.1872936519      -11.8246240583      -55.0825005170  TIP3      14621           0.0000000000
     66115     14813  TIP3      H2             23.3654386695      -12.8121154574      -55.1065888181  TIP3      14621           0.0000000000
     66116     14814  TIP3      OH2            26.7111614177      -11.9340629512      -57.0655848598  TIP3      14622           0.0000000000
     66117     14814  TIP3      H1             27.6716616760      -11.8309359156      -56.8937968635  TIP3      14622           0.0000000000
     66118     14814  TIP3      H2             26.4948094350      -11.2519790738      -57.7239383897  TIP3      14622           0.0000000000
     66119     14815  TIP3      OH2            32.6009466650      -14.3281863931      -50.2721508003  TIP3      14623           0.0000000000
     66120     14815  TIP3      H1             31.9146922494      -14.2502661698      -49.5879999811  TIP3      14623           0.0000000000
     66121     14815  TIP3      H2             32.1279547140      -14.5343977929      -51.0980149879  TIP3      14623           0.0000000000
     66122     14816  TIP3      OH2            25.4185662898      -10.7536290399      -59.4769391520  TIP3      14624           0.0000000000
     66123     14816  TIP3      H1             24.8866936318      -11.1355008250      -60.1959118696  TIP3      14624           0.0000000000
     66124     14816  TIP3      H2             26.2385921049      -10.5461882711      -59.9506480843  TIP3      14624           0.0000000000
     66125     14817  TIP3      OH2            35.7678031886        1.3952525364      -43.9623387387  TIP3      14625           0.0000000000
     66126     14817  TIP3      H1             36.1098713915        1.7236008525      -44.8081421354  TIP3      14625           0.0000000000
     66127     14817  TIP3      H2             36.5175073493        1.6465167556      -43.3944845988  TIP3      14625           0.0000000000
     66128     14818  TIP3      OH2            23.5424879123       -6.1816000512      -44.4209283124  TIP3      14626           0.0000000000
     66129     14818  TIP3      H1             24.2630186174       -5.9367739413      -43.8171849233  TIP3      14626           0.0000000000
     66130     14818  TIP3      H2             22.7693132869       -6.1000562662      -43.8206221326  TIP3      14626           0.0000000000
     66131     14819  TIP3      OH2            29.5270730422      -10.7755946121      -51.6657961116  TIP3      14627           0.0000000000
     66132     14819  TIP3      H1             30.1441466439      -11.2954386222      -52.1973332667  TIP3      14627           0.0000000000
     66133     14819  TIP3      H2             29.3973119224      -11.3222613839      -50.8813194415  TIP3      14627           0.0000000000
     66134     14820  TIP3      OH2            24.5524520189      -14.6269876339      -55.2288053084  TIP3      14628           0.0000000000
     66135     14820  TIP3      H1             24.2429607322      -15.5507707514      -55.2374410264  TIP3      14628           0.0000000000
     66136     14820  TIP3      H2             25.3433439233      -14.6936898499      -55.7782784165  TIP3      14628           0.0000000000
     66137     14821  TIP3      OH2            28.1807575176      -12.4486403201      -49.2506631853  TIP3      14629           0.0000000000
     66138     14821  TIP3      H1             27.3576507544      -11.9271122036      -49.1642994781  TIP3      14629           0.0000000000
     66139     14821  TIP3      H2             28.7373012360      -12.0936782650      -48.5309787367  TIP3      14629           0.0000000000
     66140     14822  TIP3      OH2            28.7726511791       -6.2189313425      -57.5552072265  TIP3      14630           0.0000000000
     66141     14822  TIP3      H1             27.9738205429       -6.6917124006      -57.8871043343  TIP3      14630           0.0000000000
     66142     14822  TIP3      H2             28.5449825209       -6.0930388180      -56.6108070871  TIP3      14630           0.0000000000
     66143     14823  TIP3      OH2            35.6407433493       -6.9992922456      -48.7575270677  TIP3      14631           0.0000000000
     66144     14823  TIP3      H1             36.3659373338       -6.8714034321      -49.4088515817  TIP3      14631           0.0000000000
     66145     14823  TIP3      H2             34.8766467525       -6.9977418590      -49.3665496533  TIP3      14631           0.0000000000
     66146     14824  TIP3      OH2            32.6673751795      -13.3421609293      -59.5139790450  TIP3      14632           0.0000000000
     66147     14824  TIP3      H1             31.6896605782      -13.2816023165      -59.4920779022  TIP3      14632           0.0000000000
     66148     14824  TIP3      H2             32.9154108585      -12.5581295905      -58.9760583499  TIP3      14632           0.0000000000
     66149     14825  TIP3      OH2            30.2719927814       -5.9516532286      -46.3097765312  TIP3      14633           0.0000000000
     66150     14825  TIP3      H1             29.9099995563       -6.3787905071      -45.5279965012  TIP3      14633           0.0000000000
     66151     14825  TIP3      H2             30.0321448683       -5.0274096676      -46.2036650517  TIP3      14633           0.0000000000
     66152     14826  TIP3      OH2            33.3303678850      -11.4598645582      -57.7962376857  TIP3      14634           0.0000000000
     66153     14826  TIP3      H1             34.1758753428      -11.6281419624      -57.3311203596  TIP3      14634           0.0000000000
     66154     14826  TIP3      H2             33.4432222941      -10.6223619306      -58.2658350950  TIP3      14634           0.0000000000
     66155     14827  TIP3      OH2            23.8834050086       -6.8238688265      -51.7531766000  TIP3      14635           0.0000000000
     66156     14827  TIP3      H1             24.5594724936       -6.9095195292      -52.4541593552  TIP3      14635           0.0000000000
     66157     14827  TIP3      H2             23.9389036060       -7.6843324200      -51.2990538705  TIP3      14635           0.0000000000
     66158     14828  TIP3      OH2            30.8446736623       -4.7513454463      -58.5221020162  TIP3      14636           0.0000000000
     66159     14828  TIP3      H1             30.5152135211       -3.9019951330      -58.1586848783  TIP3      14636           0.0000000000
     66160     14828  TIP3      H2             30.1204077384       -5.3710114634      -58.2943231314  TIP3      14636           0.0000000000
     66161     14829  TIP3      OH2            20.8763229147       -8.4324722903      -46.4813532320  TIP3      14637           0.0000000000
     66162     14829  TIP3      H1             21.0368283930       -8.8747031570      -45.6281260454  TIP3      14637           0.0000000000
     66163     14829  TIP3      H2             20.2514236706       -9.0346989595      -46.9264380712  TIP3      14637           0.0000000000
     66164     14830  TIP3      OH2            27.8820378433       -8.8645981830      -44.3166968433  TIP3      14638           0.0000000000
     66165     14830  TIP3      H1             27.5628473713       -9.1717707204      -45.1772728301  TIP3      14638           0.0000000000
     66166     14830  TIP3      H2             28.8048180566       -9.1886200977      -44.3182702591  TIP3      14638           0.0000000000
     66167     14831  TIP3      OH2            32.5659948522       -3.5439669828      -46.3637026553  TIP3      14639           0.0000000000
     66168     14831  TIP3      H1             31.6469100668       -3.3606904743      -46.6028131863  TIP3      14639           0.0000000000
     66169     14831  TIP3      H2             32.5396235255       -3.2398849826      -45.4364919317  TIP3      14639           0.0000000000
     66170     14832  TIP3      OH2            33.6787224255       -7.7426249217      -50.4695967442  TIP3      14640           0.0000000000
     66171     14832  TIP3      H1             32.7383559103       -7.9496378182      -50.6149652096  TIP3      14640           0.0000000000
     66172     14832  TIP3      H2             34.1478930429       -8.4803951677      -50.9037405199  TIP3      14640           0.0000000000
     66173     14833  TIP3      OH2            26.2635198722       -3.3841552542      -54.3970818950  TIP3      14641           0.0000000000
     66174     14833  TIP3      H1             26.7425224253       -2.5528208019      -54.5573921134  TIP3      14641           0.0000000000
     66175     14833  TIP3      H2             25.3762919185       -3.1221839635      -54.6842322321  TIP3      14641           0.0000000000
     66176     14834  TIP3      OH2            22.0196334249       -8.5336917585      -59.7994922833  TIP3      14642           0.0000000000
     66177     14834  TIP3      H1             22.5983183745       -7.8683054309      -59.3897927996  TIP3      14642           0.0000000000
     66178     14834  TIP3      H2             21.1288334314       -8.2215870029      -59.5503318136  TIP3      14642           0.0000000000
     66179     14835  TIP3      OH2            27.6666050769       -5.7097896374      -54.8634394722  TIP3      14643           0.0000000000
     66180     14835  TIP3      H1             27.3515501644       -4.7890390322      -54.7621232554  TIP3      14643           0.0000000000
     66181     14835  TIP3      H2             26.9527225840       -6.2011009157      -54.4102957345  TIP3      14643           0.0000000000
     66182     14836  TIP3      OH2            28.1179142209       -1.5321425351      -48.4411000235  TIP3      14644           0.0000000000
     66183     14836  TIP3      H1             28.5598613568       -0.7185511612      -48.7371093404  TIP3      14644           0.0000000000
     66184     14836  TIP3      H2             28.7345951561       -1.8605902529      -47.7631122900  TIP3      14644           0.0000000000
     66185     14837  TIP3      OH2            26.3440967701       -0.7083769515      -55.3297672213  TIP3      14645           0.0000000000
     66186     14837  TIP3      H1             25.3853636690       -0.5581368210      -55.1609174613  TIP3      14645           0.0000000000
     66187     14837  TIP3      H2             26.6846111304        0.1243587578      -54.9443937526  TIP3      14645           0.0000000000
     66188     14838  TIP3      OH2            31.6599668629       -5.5265422691      -48.8201548624  TIP3      14646           0.0000000000
     66189     14838  TIP3      H1             31.3173912629       -5.7204924563      -47.9218833152  TIP3      14646           0.0000000000
     66190     14838  TIP3      H2             32.2864771325       -6.2466165562      -48.9908365842  TIP3      14646           0.0000000000
     66191     14839  TIP3      OH2            33.9587327821       -4.4726563462      -59.7412031413  TIP3      14647           0.0000000000
     66192     14839  TIP3      H1             34.2807367984       -4.9024925567      -58.9246401787  TIP3      14647           0.0000000000
     66193     14839  TIP3      H2             33.0089292302       -4.6424603317      -59.6514017154  TIP3      14647           0.0000000000
     66194     14840  TIP3      OH2            34.4609561566       -0.9694269550      -46.3481245970  TIP3      14648           0.0000000000
     66195     14840  TIP3      H1             33.7370142054       -1.4307244965      -46.8212162558  TIP3      14648           0.0000000000
     66196     14840  TIP3      H2             34.6689026141       -0.2486469049      -46.9852515797  TIP3      14648           0.0000000000
     66197     14841  TIP3      OH2            22.5231271808      -13.6869404931      -46.9370778399  TIP3      14649           0.0000000000
     66198     14841  TIP3      H1             21.6135295827      -13.3373018846      -46.9646431215  TIP3      14649           0.0000000000
     66199     14841  TIP3      H2             22.4070029361      -14.5345152136      -46.4813086649  TIP3      14649           0.0000000000
     66200     14842  TIP3      OH2            34.7602157218       -5.8646244349      -57.5183755200  TIP3      14650           0.0000000000
     66201     14842  TIP3      H1             34.5326678654       -6.6278071560      -56.9419273501  TIP3      14650           0.0000000000
     66202     14842  TIP3      H2             35.7065209664       -5.7482681574      -57.3005673700  TIP3      14650           0.0000000000
     66203     14843  TIP3      OH2            22.1320806925       -1.9065758616      -48.5156101648  TIP3      14651           0.0000000000
     66204     14843  TIP3      H1             22.4369506959       -2.8267496614      -48.5098925451  TIP3      14651           0.0000000000
     66205     14843  TIP3      H2             22.3946274702       -1.6144364883      -47.6353802847  TIP3      14651           0.0000000000
     66206     14844  TIP3      OH2            28.1078791358       -3.3767958618      -61.2384327697  TIP3      14652           0.0000000000
     66207     14844  TIP3      H1             28.2069492445       -4.1390458239      -61.8311763532  TIP3      14652           0.0000000000
     66208     14844  TIP3      H2             27.6668119628       -3.8085588002      -60.4741100368  TIP3      14652           0.0000000000
     66209     14845  TIP3      OH2            26.8808273049       -3.8512529025      -58.7867604548  TIP3      14653           0.0000000000
     66210     14845  TIP3      H1             27.1506230541       -4.3656375928      -58.0163013087  TIP3      14653           0.0000000000
     66211     14845  TIP3      H2             26.9704032255       -2.9259709946      -58.4626450555  TIP3      14653           0.0000000000
     66212     14846  TIP3      OH2            23.4243314432       -6.6054235053      -58.2992538764  TIP3      14654           0.0000000000
     66213     14846  TIP3      H1             22.7084033694       -6.2093919185      -57.7628243637  TIP3      14654           0.0000000000
     66214     14846  TIP3      H2             23.9279139541       -5.8249119765      -58.5947018823  TIP3      14654           0.0000000000
     66215     14847  TIP3      OH2            31.2163655657      -13.9218729926      -47.9641620799  TIP3      14655           0.0000000000
     66216     14847  TIP3      H1             31.9730320653      -13.8568099885      -47.3664591264  TIP3      14655           0.0000000000
     66217     14847  TIP3      H2             30.8574990413      -14.8063083379      -47.7674049683  TIP3      14655           0.0000000000
     66218     14848  TIP3      OH2            31.3197690064      -13.4581209188      -57.3453965496  TIP3      14656           0.0000000000
     66219     14848  TIP3      H1             32.0366868013      -13.8668134262      -57.8710640819  TIP3      14656           0.0000000000
     66220     14848  TIP3      H2             31.8409898393      -13.6493051280      -56.5306202054  TIP3      14656           0.0000000000
     66221     14849  TIP3      OH2            29.6868556177       -2.2070036570      -58.1142208452  TIP3      14657           0.0000000000
     66222     14849  TIP3      H1             28.8765497565       -1.6647329517      -58.0183687551  TIP3      14657           0.0000000000
     66223     14849  TIP3      H2             30.2286628706       -1.6385406043      -58.6798223559  TIP3      14657           0.0000000000
     66224     14850  TIP3      OH2            29.1175121425      -12.4861021569      -56.0455818462  TIP3      14658           0.0000000000
     66225     14850  TIP3      H1             30.0046092704      -12.0636373895      -56.0614504915  TIP3      14658           0.0000000000
     66226     14850  TIP3      H2             28.9796517559      -12.7285030454      -55.1172815817  TIP3      14658           0.0000000000
     66227     14851  TIP3      OH2            29.8079225278      -11.5651620447      -46.8859518434  TIP3      14659           0.0000000000
     66228     14851  TIP3      H1             29.8932951203      -11.0083034939      -46.0892264750  TIP3      14659           0.0000000000
     66229     14851  TIP3      H2             30.4579929754      -12.2758370169      -46.7945423152  TIP3      14659           0.0000000000
     66230     14852  TIP3      OH2            29.9981176123      -15.5330845780      -55.2163894207  TIP3      14660           0.0000000000
     66231     14852  TIP3      H1             29.7709077118      -14.8740928858      -54.5449094046  TIP3      14660           0.0000000000
     66232     14852  TIP3      H2             30.7662649493      -15.0473589159      -55.6168105528  TIP3      14660           0.0000000000
     66233     14853  TIP3      OH2            27.0771247531       -1.1521385057      -58.0505623746  TIP3      14661           0.0000000000
     66234     14853  TIP3      H1             27.1781082158       -0.3400256282      -58.6066495891  TIP3      14661           0.0000000000
     66235     14853  TIP3      H2             26.8073972921       -0.7773854132      -57.1761289372  TIP3      14661           0.0000000000
     66236     14854  TIP3      OH2            25.7114774197      -14.4304397433      -58.4859322868  TIP3      14662           0.0000000000
     66237     14854  TIP3      H1             25.6944213149      -13.5327643887      -58.0967338166  TIP3      14662           0.0000000000
     66238     14854  TIP3      H2             26.6214720835      -14.6817708619      -58.2264487301  TIP3      14662           0.0000000000
     66239     14855  TIP3      OH2            35.8345592370      -13.9312449393      -46.2333493676  TIP3      14663           0.0000000000
     66240     14855  TIP3      H1             35.0017634374      -13.4012930141      -46.1995618340  TIP3      14663           0.0000000000
     66241     14855  TIP3      H2             36.2310825787      -13.6465961761      -47.0574141121  TIP3      14663           0.0000000000
     66242     14856  TIP3      OH2            34.5659568606       -9.9161377851      -51.9925610801  TIP3      14664           0.0000000000
     66243     14856  TIP3      H1             33.7473571845      -10.3544033378      -52.3051065618  TIP3      14664           0.0000000000
     66244     14856  TIP3      H2             34.9958919373      -10.6261509798      -51.5064284732  TIP3      14664           0.0000000000
     66245     14857  TIP3      OH2            23.9647939671       -4.0008458296      -59.4544433637  TIP3      14665           0.0000000000
     66246     14857  TIP3      H1             24.6277595142       -3.3696199569      -59.1278651013  TIP3      14665           0.0000000000
     66247     14857  TIP3      H2             24.4922437631       -4.4602103115      -60.1352429549  TIP3      14665           0.0000000000
     66248     14858  TIP3      OH2            22.3099338719      -11.3172806619      -60.2974050683  TIP3      14666           0.0000000000
     66249     14858  TIP3      H1             22.3272931723      -10.3587196760      -60.0901882496  TIP3      14666           0.0000000000
     66250     14858  TIP3      H2             21.4176822346      -11.4919920646      -60.6038988697  TIP3      14666           0.0000000000
     66251     14859  TIP3      OH2            35.6992210113       -0.6236850582      -50.3728440312  TIP3      14667           0.0000000000
     66252     14859  TIP3      H1             35.5454747518        0.0434024169      -51.0666667864  TIP3      14667           0.0000000000
     66253     14859  TIP3      H2             36.6437294587       -0.5384951997      -50.2100732923  TIP3      14667           0.0000000000
     66254     14860  TIP3      OH2            23.1262293453      -16.5322914585      -51.5510762567  TIP3      14668           0.0000000000
     66255     14860  TIP3      H1             22.9328902965      -16.5147850092      -52.5146262358  TIP3      14668           0.0000000000
     66256     14860  TIP3      H2             22.7125710506      -17.3852928792      -51.3009683037  TIP3      14668           0.0000000000
     66257     14861  TIP3      OH2            22.0530696077       -2.6525557659      -55.4378128514  TIP3      14669           0.0000000000
     66258     14861  TIP3      H1             21.2215716323       -2.1638970997      -55.4575062463  TIP3      14669           0.0000000000
     66259     14861  TIP3      H2             22.5690965772       -2.1367824176      -56.0769353738  TIP3      14669           0.0000000000
     66260     14862  TIP3      OH2            21.2878937624        0.0407107551      -44.1284136271  TIP3      14670           0.0000000000
     66261     14862  TIP3      H1             21.8918499788       -0.1609776785      -43.3864790887  TIP3      14670           0.0000000000
     66262     14862  TIP3      H2             20.8864573573       -0.8284369958      -44.3067644951  TIP3      14670           0.0000000000
     66263     14863  TIP3      OH2            25.9690328357       -1.0399886452      -42.5162913888  TIP3      14671           0.0000000000
     66264     14863  TIP3      H1             26.7243172178       -1.5412666514      -42.1850323191  TIP3      14671           0.0000000000
     66265     14863  TIP3      H2             25.9406639135       -1.3194351874      -43.4530655756  TIP3      14671           0.0000000000
     66266     14864  TIP3      OH2            30.1089420057       -1.5280684022      -61.1180216543  TIP3      14672           0.0000000000
     66267     14864  TIP3      H1             29.4139219244       -2.1842637693      -60.8875537224  TIP3      14672           0.0000000000
     66268     14864  TIP3      H2             30.8284604213       -2.1305470205      -61.3594713199  TIP3      14672           0.0000000000
     66269     14865  TIP3      OH2            32.5275249884       -2.6704578231      -43.7699356774  TIP3      14673           0.0000000000
     66270     14865  TIP3      H1             32.1779674117       -3.5408764988      -43.4861272166  TIP3      14673           0.0000000000
     66271     14865  TIP3      H2             33.2809427423       -2.5634232202      -43.1598131240  TIP3      14673           0.0000000000
     66272     14866  TIP3      OH2            34.6337306987       -1.7658771953      -60.8797606085  TIP3      14674           0.0000000000
     66273     14866  TIP3      H1             34.9429800751       -2.5667573962      -60.4294452691  TIP3      14674           0.0000000000
     66274     14866  TIP3      H2             35.3825876027       -1.5839011977      -61.4781789098  TIP3      14674           0.0000000000
     66275     14867  TIP3      OH2            21.1960112859       -6.1871650870      -43.1283008258  TIP3      14675           0.0000000000
     66276     14867  TIP3      H1             21.3621575254       -7.0986361346      -43.4301687941  TIP3      14675           0.0000000000
     66277     14867  TIP3      H2             20.4569445811       -5.9281050938      -43.7031815084  TIP3      14675           0.0000000000
     66278     14868  TIP3      OH2            25.5442985036       -5.8435837952      -61.1136977017  TIP3      14676           0.0000000000
     66279     14868  TIP3      H1             25.6851406714       -6.6029886554      -60.5283350611  TIP3      14676           0.0000000000
     66280     14868  TIP3      H2             26.2953677522       -5.9609259025      -61.7279377102  TIP3      14676           0.0000000000
     66281     14869  TIP3      OH2            27.9137132456       -6.1978773255      -43.7433098509  TIP3      14677           0.0000000000
     66282     14869  TIP3      H1             27.5784062380       -5.8878881629      -44.6062913797  TIP3      14677           0.0000000000
     66283     14869  TIP3      H2             27.9886621280       -7.1760700571      -43.8515309306  TIP3      14677           0.0000000000
     66284     14870  TIP3      OH2            30.9711166381       -4.7343826102      -61.3319184270  TIP3      14678           0.0000000000
     66285     14870  TIP3      H1             30.7002575582       -4.6522621407      -60.4037365954  TIP3      14678           0.0000000000
     66286     14870  TIP3      H2             30.7792425776       -5.6915879356      -61.4760933151  TIP3      14678           0.0000000000
     66287     14871  TIP3      OH2            33.5789538105       -6.3784948386      -46.3520185669  TIP3      14679           0.0000000000
     66288     14871  TIP3      H1             34.3715531706       -5.7834595982      -46.4050796731  TIP3      14679           0.0000000000
     66289     14871  TIP3      H2             32.9081220488       -5.6873707461      -46.3068583181  TIP3      14679           0.0000000000
     66290     14872  TIP3      OH2            22.1166318620       -8.9603792056      -43.7481002024  TIP3      14680           0.0000000000
     66291     14872  TIP3      H1             22.5346981448       -9.8213644015      -43.8425396764  TIP3      14680           0.0000000000
     66292     14872  TIP3      H2             21.8843373604       -8.9545909480      -42.8055363492  TIP3      14680           0.0000000000
     66293     14873  TIP3      OH2            26.7643039264       -7.8301136899      -58.6711721545  TIP3      14681           0.0000000000
     66294     14873  TIP3      H1             26.2469136970       -8.3662975580      -58.0525162727  TIP3      14681           0.0000000000
     66295     14873  TIP3      H2             27.0500202433       -8.4995383790      -59.3347140165  TIP3      14681           0.0000000000
     66296     14874  TIP3      OH2            26.0170475370      -10.0178094867      -46.3960691129  TIP3      14682           0.0000000000
     66297     14874  TIP3      H1             25.4243204464       -9.2924017363      -46.1451523086  TIP3      14682           0.0000000000
     66298     14874  TIP3      H2             26.4153084380       -9.6511258356      -47.2032767851  TIP3      14682           0.0000000000
     66299     14875  TIP3      OH2            27.8244102114       -9.6019023584      -60.4813914639  TIP3      14683           0.0000000000
     66300     14875  TIP3      H1             27.6766613679       -9.6914198864      -61.4460766610  TIP3      14683           0.0000000000
     66301     14875  TIP3      H2             28.8028783578       -9.5626593173      -60.4084805534  TIP3      14683           0.0000000000
     66302     14876  TIP3      OH2            31.0878626272       -7.4390314592      -43.0543627194  TIP3      14684           0.0000000000
     66303     14876  TIP3      H1             32.0427096817       -7.4554281912      -43.1773784457  TIP3      14684           0.0000000000
     66304     14876  TIP3      H2             30.9356093427       -8.2186516092      -42.4959017429  TIP3      14684           0.0000000000
     66305     14877  TIP3      OH2            26.4198813440      -12.6419072111      -45.3391371820  TIP3      14685           0.0000000000
     66306     14877  TIP3      H1             26.5439147786      -13.3458935148      -46.0028206041  TIP3      14685           0.0000000000
     66307     14877  TIP3      H2             26.3784111424      -11.8284416483      -45.8843850181  TIP3      14685           0.0000000000
     66308     14878  TIP3      OH2            26.8265535241      -14.2570581332      -47.7823472265  TIP3      14686           0.0000000000
     66309     14878  TIP3      H1             27.3355400186      -13.7927990171      -48.4895289890  TIP3      14686           0.0000000000
     66310     14878  TIP3      H2             25.9334378871      -14.3351849334      -48.1889963187  TIP3      14686           0.0000000000
     66311     14879  TIP3      OH2            28.3673586010       -8.7646184976      -47.5419063843  TIP3      14687           0.0000000000
     66312     14879  TIP3      H1             29.1210236855       -8.9316158688      -48.1133597764  TIP3      14687           0.0000000000
     66313     14879  TIP3      H2             28.0053897639       -7.9303000529      -47.8768736372  TIP3      14687           0.0000000000
     66314     14880  TIP3      OH2            32.8160074692      -10.9866584752      -42.5672541166  TIP3      14688           0.0000000000
     66315     14880  TIP3      H1             33.0370009755      -11.9244381750      -42.6809736851  TIP3      14688           0.0000000000
     66316     14880  TIP3      H2             33.6888696886      -10.5688220604      -42.6088640924  TIP3      14688           0.0000000000
     66317     14881  TIP3      OH2            34.1237864338       -8.1771084390      -44.4078664120  TIP3      14689           0.0000000000
     66318     14881  TIP3      H1             33.8283959026       -7.4942314496      -45.0508677480  TIP3      14689           0.0000000000
     66319     14881  TIP3      H2             35.0528442494       -8.2914178725      -44.6212554693  TIP3      14689           0.0000000000
     66320     14882  TIP3      OH2            24.8876753669      -11.3869976947      -43.4166222042  TIP3      14690           0.0000000000
     66321     14882  TIP3      H1             24.1168594889      -11.9531225035      -43.6069595920  TIP3      14690           0.0000000000
     66322     14882  TIP3      H2             25.5412477484      -11.7548163250      -44.0385113630  TIP3      14690           0.0000000000
     66323     14883  TIP3      OH2            27.6161511879      -16.8178823390      -47.4006006571  TIP3      14691           0.0000000000
     66324     14883  TIP3      H1             27.4333040383      -15.8563325812      -47.4907567655  TIP3      14691           0.0000000000
     66325     14883  TIP3      H2             26.8665905305      -17.1867153104      -47.8981469256  TIP3      14691           0.0000000000
     66326     14884  TIP3      OH2            28.8858586993      -12.4913283304      -43.7681624502  TIP3      14692           0.0000000000
     66327     14884  TIP3      H1             28.5718567979      -12.7230596123      -42.8726289374  TIP3      14692           0.0000000000
     66328     14884  TIP3      H2             28.1042033315      -12.6938580049      -44.3096293363  TIP3      14692           0.0000000000
     66329     14885  TIP3      OH2            31.5649701046      -13.3250389572      -44.6694879627  TIP3      14693           0.0000000000
     66330     14885  TIP3      H1             30.6027288835      -13.3037456989      -44.5504388266  TIP3      14693           0.0000000000
     66331     14885  TIP3      H2             31.8832191812      -13.9744236569      -44.0162129493  TIP3      14693           0.0000000000
     66332     14886  TIP3      OH2            33.2823414347      -14.7541452624      -42.7402917922  TIP3      14694           0.0000000000
     66333     14886  TIP3      H1             33.1303911124      -15.7226182716      -42.7454207943  TIP3      14694           0.0000000000
     66334     14886  TIP3      H2             32.9239950676      -14.4421631487      -41.8854542892  TIP3      14694           0.0000000000
     66335     14887  TIP3      OH2            22.9632108638      -13.4528329585      -43.6515294361  TIP3      14695           0.0000000000
     66336     14887  TIP3      H1             23.2097449859      -14.1803111922      -44.2540273903  TIP3      14695           0.0000000000
     66337     14887  TIP3      H2             22.8708777235      -13.9110243774      -42.8054438948  TIP3      14695           0.0000000000
     66338     14888  TIP3      OH2            27.8296718378      -17.4284743703      -44.6954126658  TIP3      14696           0.0000000000
     66339     14888  TIP3      H1             28.5102292246      -18.1316220928      -44.7123041628  TIP3      14696           0.0000000000
     66340     14888  TIP3      H2             27.7160786691      -17.2846104452      -45.6551502077  TIP3      14696           0.0000000000
     66341     14889  TIP3      OH2            28.1942812969      -15.8135476521      -42.5789520074  TIP3      14697           0.0000000000
     66342     14889  TIP3      H1             28.0180768384      -16.3208136655      -43.4098907500  TIP3      14697           0.0000000000
     66343     14889  TIP3      H2             27.5913834521      -15.0511232163      -42.6777912473  TIP3      14697           0.0000000000
     66344     14890  TIP3      OH2            27.6609983062        1.1010563563      -59.4022235269  TIP3      14698           0.0000000000
     66345     14890  TIP3      H1             28.6279607925        1.1845013707      -59.3367501003  TIP3      14698           0.0000000000
     66346     14890  TIP3      H2             27.5114900734        1.7016088573      -60.1427361758  TIP3      14698           0.0000000000
     66347     14891  TIP3      OH2            21.2097913349       -4.3278334645      -59.9350796794  TIP3      14699           0.0000000000
     66348     14891  TIP3      H1             22.1769543848       -4.2332337068      -59.7546374988  TIP3      14699           0.0000000000
     66349     14891  TIP3      H2             21.2606958929       -4.9713070069      -60.6814968985  TIP3      14699           0.0000000000
     66350     14892  TIP3      OH2            19.9679690921        1.0552740552      -54.9762052880  TIP3      14700           0.0000000000
     66351     14892  TIP3      H1             19.2583440348        0.5519243657      -55.4317694463  TIP3      14700           0.0000000000
     66352     14892  TIP3      H2             20.2881999832        0.4186954288      -54.3060572077  TIP3      14700           0.0000000000
     66353     14893  TIP3      OH2            20.7796277043       -0.8038705131      -53.0960729615  TIP3      14701           0.0000000000
     66354     14893  TIP3      H1             20.4765710068       -1.6940358376      -52.8860336429  TIP3      14701           0.0000000000
     66355     14893  TIP3      H2             21.0681967748       -0.4705355576      -52.2250430892  TIP3      14701           0.0000000000
     66356     14894  TIP3      OH2            36.2811940180       -2.7497578801      -47.9152251317  TIP3      14702           0.0000000000
     66357     14894  TIP3      H1             35.6199787197       -2.3167780241      -47.3570184569  TIP3      14702           0.0000000000
     66358     14894  TIP3      H2             35.7539239974       -3.1154835863      -48.6491547927  TIP3      14702           0.0000000000
     66359     14895  TIP3      OH2            35.4064584133       -9.7391112679      -54.5660104044  TIP3      14703           0.0000000000
     66360     14895  TIP3      H1             35.5715701741      -10.6874350192      -54.5222437434  TIP3      14703           0.0000000000
     66361     14895  TIP3      H2             35.4782344133       -9.5009778975      -53.6213879125  TIP3      14703           0.0000000000
     66362     14896  TIP3      OH2            20.8746468746       -7.7271876698      -50.5990113693  TIP3      14704           0.0000000000
     66363     14896  TIP3      H1             21.0526119316       -7.8107504311      -51.5620147236  TIP3      14704           0.0000000000
     66364     14896  TIP3      H2             21.7677498258       -7.9060786446      -50.2457362133  TIP3      14704           0.0000000000
     66365     14897  TIP3      OH2            35.9444175625      -13.7912899043      -61.1467195732  TIP3      14705           0.0000000000
     66366     14897  TIP3      H1             36.5326037389      -14.2363461714      -60.5501114503  TIP3      14705           0.0000000000
     66367     14897  TIP3      H2             35.0833419123      -14.2091795300      -60.9755228244  TIP3      14705           0.0000000000
     66368     14898  TIP3      OH2            35.5105048369      -12.2842839800      -56.3791539149  TIP3      14706           0.0000000000
     66369     14898  TIP3      H1             35.7461599377      -13.1306599276      -55.9507575975  TIP3      14706           0.0000000000
     66370     14898  TIP3      H2             36.3586551033      -11.9289338776      -56.6535682020  TIP3      14706           0.0000000000
     66371     14899  TIP3      OH2           -37.0510952863      -12.5243030540      -50.7487063084  TIP3      14707           0.0000000000
     66372     14899  TIP3      H1            -36.1658878054      -12.1708396941      -50.8976165595  TIP3      14707           0.0000000000
     66373     14899  TIP3      H2            -37.2757206076      -11.8807578536      -50.0527159340  TIP3      14707           0.0000000000
     66374     14900  TIP3      OH2            36.2594485060      -10.9085149947      -47.7242043096  TIP3      14708           0.0000000000
     66375     14900  TIP3      H1             35.3235093305      -10.6433919656      -47.6353571431  TIP3      14708           0.0000000000
     66376     14900  TIP3      H2             36.6200761950      -10.2215035630      -48.3146755349  TIP3      14708           0.0000000000
     66377     14901  TIP3      OH2            20.4871840402      -12.4130761887      -44.4531147736  TIP3      14709           0.0000000000
     66378     14901  TIP3      H1             21.4236335581      -12.6268736943      -44.2755787748  TIP3      14709           0.0000000000
     66379     14901  TIP3      H2             20.0260059205      -13.2401604141      -44.1998714312  TIP3      14709           0.0000000000
     66380     14902  TIP3      OH2            35.7156350421      -15.4053519015      -55.2642783180  TIP3      14710           0.0000000000
     66381     14902  TIP3      H1             36.6464589084      -15.6260836671      -55.2998467347  TIP3      14710           0.0000000000
     66382     14902  TIP3      H2             35.4048739912      -15.6396688369      -56.1727382180  TIP3      14710           0.0000000000
     66383     14903  TIP3      OH2            21.6907149937      -14.1379767288      -51.5950328050  TIP3      14711           0.0000000000
     66384     14903  TIP3      H1             22.1520336431      -14.9645716560      -51.3403192195  TIP3      14711           0.0000000000
     66385     14903  TIP3      H2             22.2432855454      -13.4450281562      -51.2087218525  TIP3      14711           0.0000000000
     66386     14904  TIP3      OH2            19.9740143919      -11.1350589655      -50.5603156486  TIP3      14712           0.0000000000
     66387     14904  TIP3      H1             20.5378162553      -11.3868853580      -51.3200428620  TIP3      14712           0.0000000000
     66388     14904  TIP3      H2             20.4426762597      -10.3321905582      -50.2905346875  TIP3      14712           0.0000000000
     66389     14905  TIP3      OH2            20.3478177492      -14.8619451120      -56.4748949684  TIP3      14713           0.0000000000
     66390     14905  TIP3      H1             19.4055331029      -14.7063593937      -56.6389793016  TIP3      14713           0.0000000000
     66391     14905  TIP3      H2             20.7610394575      -14.3850217414      -57.2127602430  TIP3      14713           0.0000000000
     66392     14906  TIP3      OH2            34.8903372204       -0.1106544444      -54.4405973330  TIP3      14714           0.0000000000
     66393     14906  TIP3      H1             35.5649153918       -0.4356825154      -55.0539919444  TIP3      14714           0.0000000000
     66394     14906  TIP3      H2             35.4143382738        0.4729771596      -53.8663758496  TIP3      14714           0.0000000000
     66395     14907  TIP3      OH2            20.2876470399      -16.2260680743      -48.1926146030  TIP3      14715           0.0000000000
     66396     14907  TIP3      H1             19.6200838249      -16.4167107869      -47.5105835027  TIP3      14715           0.0000000000
     66397     14907  TIP3      H2             19.8303104317      -15.5499434480      -48.7323487018  TIP3      14715           0.0000000000
     66398     14908  TIP3      OH2            22.5311872065       -3.0326808839      -44.0303976725  TIP3      14716           0.0000000000
     66399     14908  TIP3      H1             21.6936562365       -2.8089241096      -44.4688040348  TIP3      14716           0.0000000000
     66400     14908  TIP3      H2             22.2613129527       -3.0986234256      -43.1117427733  TIP3      14716           0.0000000000
     66401     14909  TIP3      OH2            25.4232812389       -2.0165966438      -47.7529619251  TIP3      14717           0.0000000000
     66402     14909  TIP3      H1             25.1006316178       -1.1442821543      -48.0361356162  TIP3      14717           0.0000000000
     66403     14909  TIP3      H2             26.3516695224       -1.9291496650      -48.0543000302  TIP3      14717           0.0000000000
     66404     14910  TIP3      OH2            29.7519909263       -0.5955899661      -44.8451084867  TIP3      14718           0.0000000000
     66405     14910  TIP3      H1             29.8882837167       -0.9473469202      -43.9374117779  TIP3      14718           0.0000000000
     66406     14910  TIP3      H2             30.6520734864       -0.2883473639      -45.0915054589  TIP3      14718           0.0000000000
     66407     14911  TIP3      OH2            32.0596558765        0.6693450230      -45.5295247823  TIP3      14719           0.0000000000
     66408     14911  TIP3      H1             32.7998614881        0.0887172167      -45.7679065476  TIP3      14719           0.0000000000
     66409     14911  TIP3      H2             32.4385135792        1.1186157641      -44.7427462242  TIP3      14719           0.0000000000
     66410     14912  TIP3      OH2            22.8447901065        1.2151268135      -47.7382561249  TIP3      14720           0.0000000000
     66411     14912  TIP3      H1             22.1318566106        1.7201114777      -48.1607984338  TIP3      14720           0.0000000000
     66412     14912  TIP3      H2             22.5215786618        1.0346260248      -46.8472731203  TIP3      14720           0.0000000000
     66413     14913  TIP3      OH2            25.3152284701        0.7601169183      -48.6519369565  TIP3      14721           0.0000000000
     66414     14913  TIP3      H1             24.4195922021        0.9560314557      -48.3003680138  TIP3      14721           0.0000000000
     66415     14913  TIP3      H2             25.2957519941        1.3590022398      -49.4376257428  TIP3      14721           0.0000000000
     66416     14914  TIP3      OH2            30.0255019545        0.7039980655      -49.5180440594  TIP3      14722           0.0000000000
     66417     14914  TIP3      H1             29.5226898842        1.2403588652      -50.1552941460  TIP3      14722           0.0000000000
     66418     14914  TIP3      H2             30.1538493544        1.3225502016      -48.7693724567  TIP3      14722           0.0000000000
     66419     14915  TIP3      OH2            32.3105948804       -0.4899853793      -48.4869273599  TIP3      14723           0.0000000000
     66420     14915  TIP3      H1             31.4554942850       -0.2129251748      -48.8550047879  TIP3      14723           0.0000000000
     66421     14915  TIP3      H2             32.7717615905        0.3669017985      -48.5543377607  TIP3      14723           0.0000000000
     66422     14916  TIP3      OH2            34.7583627177        1.0842644072      -48.2725638412  TIP3      14724           0.0000000000
     66423     14916  TIP3      H1             34.7578201149        2.0355757667      -48.4904051475  TIP3      14724           0.0000000000
     66424     14916  TIP3      H2             35.1040188461        0.7134474891      -49.1076292234  TIP3      14724           0.0000000000
     66425     14917  TIP3      OH2            22.2863724721       -0.1677503843      -50.8182802526  TIP3      14725           0.0000000000
     66426     14917  TIP3      H1             22.2647947507       -0.6081608908      -49.9487070192  TIP3      14725           0.0000000000
     66427     14917  TIP3      H2             23.1249293487       -0.4914775320      -51.2140422132  TIP3      14725           0.0000000000
     66428     14918  TIP3      OH2            24.3518642405       -1.4673188419      -52.1499882538  TIP3      14726           0.0000000000
     66429     14918  TIP3      H1             24.2384323177       -2.3937331948      -51.9036748778  TIP3      14726           0.0000000000
     66430     14918  TIP3      H2             25.2183937924       -1.2340291360      -51.7420032509  TIP3      14726           0.0000000000
     66431     14919  TIP3      OH2            27.0052728858       -0.9542106899      -51.2744968293  TIP3      14727           0.0000000000
     66432     14919  TIP3      H1             27.1458517223       -1.8754093335      -51.5458754785  TIP3      14727           0.0000000000
     66433     14919  TIP3      H2             27.0294312095       -0.9970047702      -50.3135714117  TIP3      14727           0.0000000000
     66434     14920  TIP3      OH2            30.4379930965      -15.2877105687      -52.1336862441  TIP3      14728           0.0000000000
     66435     14920  TIP3      H1             29.7726193246      -15.9419588561      -51.8684145478  TIP3      14728           0.0000000000
     66436     14920  TIP3      H2             31.0017780583      -15.7916320527      -52.7376189490  TIP3      14728           0.0000000000
     66437     14921  TIP3      OH2            35.5983658277      -17.2398601438      -52.0492537957  TIP3      14729           0.0000000000
     66438     14921  TIP3      H1             36.1461463537      -16.6194883104      -52.5384533987  TIP3      14729           0.0000000000
     66439     14921  TIP3      H2             34.7016733069      -16.8988613363      -52.2840685398  TIP3      14729           0.0000000000
     66440     14922  TIP3      OH2            22.8179989861      -16.6620890917      -54.2965834253  TIP3      14730           0.0000000000
     66441     14922  TIP3      H1             22.0201353053      -16.8551791781      -54.8252760660  TIP3      14730           0.0000000000
     66442     14922  TIP3      H2             23.2754780911      -17.5232213892      -54.3570457591  TIP3      14730           0.0000000000
     66443     14923  TIP3      OH2            21.5822999894      -16.9087029227      -58.5757242538  TIP3      14731           0.0000000000
     66444     14923  TIP3      H1             22.0753211164      -16.2584013338      -59.1100770600  TIP3      14731           0.0000000000
     66445     14923  TIP3      H2             21.0153282725      -16.3330287343      -58.0369727135  TIP3      14731           0.0000000000
     66446     14924  TIP3      OH2            27.2982501286      -16.7367273163      -54.5149340584  TIP3      14732           0.0000000000
     66447     14924  TIP3      H1             28.1975088079      -16.3764422980      -54.5906725376  TIP3      14732           0.0000000000
     66448     14924  TIP3      H2             27.2543967411      -16.9525260444      -53.5840903430  TIP3      14732           0.0000000000
     66449     14925  TIP3      OH2            33.0275743954      -16.7752033386      -52.8698912471  TIP3      14733           0.0000000000
     66450     14925  TIP3      H1             32.9740545073      -16.5429928954      -53.8210884977  TIP3      14733           0.0000000000
     66451     14925  TIP3      H2             32.5848916278      -17.6509282139      -52.7882594096  TIP3      14733           0.0000000000
     66452     14926  TIP3      OH2            34.3665785723      -17.0649851157      -57.5742499661  TIP3      14734           0.0000000000
     66453     14926  TIP3      H1             33.8324727550      -16.2514127937      -57.4124426187  TIP3      14734           0.0000000000
     66454     14926  TIP3      H2             33.8208362283      -17.6409755198      -56.9972763701  TIP3      14734           0.0000000000
     66455     14927  TIP3      OH2            21.4990189902       -0.9563186024      -57.5425117252  TIP3      14735           0.0000000000
     66456     14927  TIP3      H1             20.8411151795       -0.9683301076      -58.2625527013  TIP3      14735           0.0000000000
     66457     14927  TIP3      H2             21.5072240855       -0.0024645586      -57.3612525618  TIP3      14735           0.0000000000
     66458     14928  TIP3      OH2            23.4106225904      -14.9648946053      -60.0638496046  TIP3      14736           0.0000000000
     66459     14928  TIP3      H1             23.9445826082      -15.5819789598      -60.5907168696  TIP3      14736           0.0000000000
     66460     14928  TIP3      H2             24.0767892457      -14.6418489553      -59.4284042546  TIP3      14736           0.0000000000
     66461     14929  TIP3      OH2            28.3826889962      -14.7198624948      -57.6343444887  TIP3      14737           0.0000000000
     66462     14929  TIP3      H1             28.7128676796      -15.2870876293      -56.9188474080  TIP3      14737           0.0000000000
     66463     14929  TIP3      H2             28.5412676055      -13.8481567400      -57.2072124489  TIP3      14737           0.0000000000
     66464     14930  TIP3      OH2            30.3609176094        0.3463344807      -59.2193801997  TIP3      14738           0.0000000000
     66465     14930  TIP3      H1             31.2812676352        0.5798075534      -59.4325739397  TIP3      14738           0.0000000000
     66466     14930  TIP3      H2             30.1510253416       -0.1742911055      -60.0223734879  TIP3      14738           0.0000000000
     66467     14931  TIP3      OH2            22.6912067725      -16.0949828825      -44.7977838992  TIP3      14739           0.0000000000
     66468     14931  TIP3      H1             22.3151564939      -16.9280108341      -44.4567355832  TIP3      14739           0.0000000000
     66469     14931  TIP3      H2             23.6183581811      -16.1660015714      -44.4752366982  TIP3      14739           0.0000000000
     66470     14932  TIP3      OH2            24.6970558688      -16.7226838782      -43.1563876612  TIP3      14740           0.0000000000
     66471     14932  TIP3      H1             25.5781884079      -17.0616546869      -43.4290085696  TIP3      14740           0.0000000000
     66472     14932  TIP3      H2             24.3312397218      -17.5625985718      -42.8154044659  TIP3      14740           0.0000000000
     66473     14933  TIP3      OH2            23.2907321517        0.0295923945      -60.6125642904  TIP3      14741           0.0000000000
     66474     14933  TIP3      H1             23.0340588490        0.2849536037      -59.7133499326  TIP3      14741           0.0000000000
     66475     14933  TIP3      H2             24.0726344988       -0.5352295233      -60.4534725438  TIP3      14741           0.0000000000
     66476     14934  TIP3      OH2            33.1041310807      -17.4303907595      -43.0752755806  TIP3      14742           0.0000000000
     66477     14934  TIP3      H1             33.1925101349      -17.8996954721      -42.2195372316  TIP3      14742           0.0000000000
     66478     14934  TIP3      H2             34.0271053510      -17.4484270184      -43.4152280297  TIP3      14742           0.0000000000
     66479     14935  TIP3      OH2            36.0972368304       -1.5182188290      -44.2817513570  TIP3      14743           0.0000000000
     66480     14935  TIP3      H1             35.4526739318       -1.5762051068      -45.0184223329  TIP3      14743           0.0000000000
     66481     14935  TIP3      H2             36.1226173391       -0.5359288308      -44.1982711515  TIP3      14743           0.0000000000
     66482     14936  TIP3      OH2           -24.6605831380       11.3355253565      -54.4513948784  TIP3      14744           0.0000000000
     66483     14936  TIP3      H1            -24.6826164394       12.3160504603      -54.4674666583  TIP3      14744           0.0000000000
     66484     14936  TIP3      H2            -25.3953502726       11.1014464212      -55.0425624354  TIP3      14744           0.0000000000
     66485     14937  TIP3      OH2           -25.8143904231       10.5859701231      -50.9387939914  TIP3      14745           0.0000000000
     66486     14937  TIP3      H1            -25.8231771098        9.9389542196      -50.2213687142  TIP3      14745           0.0000000000
     66487     14937  TIP3      H2            -26.1605340435       10.0786507763      -51.6917298640  TIP3      14745           0.0000000000
     66488     14938  TIP3      OH2           -33.4040459928       10.2520287648      -49.4238711933  TIP3      14746           0.0000000000
     66489     14938  TIP3      H1            -33.3479360163        9.5800845819      -48.7109214593  TIP3      14746           0.0000000000
     66490     14938  TIP3      H2            -32.7043799307       10.8593305439      -49.1455488640  TIP3      14746           0.0000000000
     66491     14939  TIP3      OH2           -22.1258159680       13.5387076775      -52.6551209719  TIP3      14747           0.0000000000
     66492     14939  TIP3      H1            -22.5382666116       12.8212220185      -52.1638876277  TIP3      14747           0.0000000000
     66493     14939  TIP3      H2            -22.1000840539       14.2460900487      -51.9841273959  TIP3      14747           0.0000000000
     66494     14940  TIP3      OH2           -32.5360375766       14.6961384612      -50.8698994608  TIP3      14748           0.0000000000
     66495     14940  TIP3      H1            -32.8500588100       13.8397275220      -51.2153217662  TIP3      14748           0.0000000000
     66496     14940  TIP3      H2            -31.5766500479       14.5296015702      -50.8465857320  TIP3      14748           0.0000000000
     66497     14941  TIP3      OH2           -35.6307252699        8.2629615366      -55.8028540700  TIP3      14749           0.0000000000
     66498     14941  TIP3      H1            -36.0705275708        9.0638956226      -55.4349359225  TIP3      14749           0.0000000000
     66499     14941  TIP3      H2            -36.4206103548        7.7307793611      -55.8137779124  TIP3      14749           0.0000000000
     66500     14942  TIP3      OH2           -35.2195979219       10.4236632066      -53.2978153628  TIP3      14750           0.0000000000
     66501     14942  TIP3      H1            -34.9167887157        9.6685322452      -52.7718281632  TIP3      14750           0.0000000000
     66502     14942  TIP3      H2            -34.4803771591       10.6012169947      -53.8963860424  TIP3      14750           0.0000000000
     66503     14943  TIP3      OH2           -25.0067514307       18.6966071001      -52.4170093816  TIP3      14751           0.0000000000
     66504     14943  TIP3      H1            -24.3572101191       18.0084539326      -52.7043751915  TIP3      14751           0.0000000000
     66505     14943  TIP3      H2            -25.2216010870       18.3597102714      -51.5474497158  TIP3      14751           0.0000000000
     66506     14944  TIP3      OH2           -27.4367479876       12.9884231350      -50.4650122344  TIP3      14752           0.0000000000
     66507     14944  TIP3      H1            -27.0979223076       12.3618379280      -51.1250779373  TIP3      14752           0.0000000000
     66508     14944  TIP3      H2            -26.6249349796       13.1464408521      -49.9514959907  TIP3      14752           0.0000000000
     66509     14945  TIP3      OH2           -18.8426960498        4.6537595771      -49.7434225489  TIP3      14753           0.0000000000
     66510     14945  TIP3      H1            -18.6651777854        5.2383735417      -48.9750240596  TIP3      14753           0.0000000000
     66511     14945  TIP3      H2            -18.2716619180        5.0726693329      -50.4032992653  TIP3      14753           0.0000000000
     66512     14946  TIP3      OH2           -24.2681879847        7.4580156453      -50.1527459991  TIP3      14754           0.0000000000
     66513     14946  TIP3      H1            -24.1004407514        6.4991940255      -50.1477969382  TIP3      14754           0.0000000000
     66514     14946  TIP3      H2            -24.3709462956        7.5980448485      -51.1139097355  TIP3      14754           0.0000000000
     66515     14947  TIP3      OH2           -31.1523384884        5.5486255993      -52.9304937227  TIP3      14755           0.0000000000
     66516     14947  TIP3      H1            -31.0372016023        6.3765364574      -53.4317547845  TIP3      14755           0.0000000000
     66517     14947  TIP3      H2            -31.5344903148        4.9713406873      -53.6259808602  TIP3      14755           0.0000000000
     66518     14948  TIP3      OH2           -23.4178611264        5.6229486469      -54.5666971371  TIP3      14756           0.0000000000
     66519     14948  TIP3      H1            -22.7668720143        5.3101178602      -53.8966338332  TIP3      14756           0.0000000000
     66520     14948  TIP3      H2            -22.8536908308        6.2039419554      -55.0977898966  TIP3      14756           0.0000000000
     66521     14949  TIP3      OH2           -34.5636420411        7.8719472544      -52.2618846108  TIP3      14757           0.0000000000
     66522     14949  TIP3      H1            -33.8356664617        7.4061259595      -51.7983528492  TIP3      14757           0.0000000000
     66523     14949  TIP3      H2            -34.3815453157        7.5963187229      -53.1697759311  TIP3      14757           0.0000000000
     66524     14950  TIP3      OH2           -29.3783681799        9.5114360046      -52.8840420372  TIP3      14758           0.0000000000
     66525     14950  TIP3      H1            -28.7016081314        8.9329230170      -52.4897122119  TIP3      14758           0.0000000000
     66526     14950  TIP3      H2            -29.8899515855        8.8519048762      -53.3917779075  TIP3      14758           0.0000000000
     66527     14951  TIP3      OH2           -18.3982982043        6.0533776706      -47.4651381981  TIP3      14759           0.0000000000
     66528     14951  TIP3      H1            -19.0040521107        6.8206771968      -47.5774880880  TIP3      14759           0.0000000000
     66529     14951  TIP3      H2            -18.3656914157        5.9756075470      -46.5052404682  TIP3      14759           0.0000000000
     66530     14952  TIP3      OH2           -32.2040872258        4.4480597100      -48.9034989194  TIP3      14760           0.0000000000
     66531     14952  TIP3      H1            -32.5140308842        5.0161179244      -49.6398121114  TIP3      14760           0.0000000000
     66532     14952  TIP3      H2            -32.8887247185        4.6690442552      -48.2228269946  TIP3      14760           0.0000000000
     66533     14953  TIP3      OH2           -24.9575748701       13.9238665764      -55.3517596594  TIP3      14761           0.0000000000
     66534     14953  TIP3      H1            -25.2194076539       13.6535837156      -56.2411618580  TIP3      14761           0.0000000000
     66535     14953  TIP3      H2            -25.2636468744       14.8587824210      -55.3008176945  TIP3      14761           0.0000000000
     66536     14954  TIP3      OH2           -29.7075783176       12.0899190749      -48.6593991385  TIP3      14762           0.0000000000
     66537     14954  TIP3      H1            -30.4262815999       12.7241081579      -48.4408145284  TIP3      14762           0.0000000000
     66538     14954  TIP3      H2            -29.0137039857       12.6959089754      -48.9543030155  TIP3      14762           0.0000000000
     66539     14955  TIP3      OH2           -21.6039958480        4.9745173667      -52.5754092678  TIP3      14763           0.0000000000
     66540     14955  TIP3      H1            -21.8258541447        4.2052880677      -52.0428956093  TIP3      14763           0.0000000000
     66541     14955  TIP3      H2            -20.9342207626        5.4095522505      -52.0206879443  TIP3      14763           0.0000000000
     66542     14956  TIP3      OH2           -32.6989694213        6.2840238131      -50.8646443515  TIP3      14764           0.0000000000
     66543     14956  TIP3      H1            -32.0819848032        6.9807399840      -50.5397469031  TIP3      14764           0.0000000000
     66544     14956  TIP3      H2            -32.1533411868        5.8965822094      -51.5976991654  TIP3      14764           0.0000000000
     66545     14957  TIP3      OH2           -31.2956262252       14.0774325041      -47.8542906856  TIP3      14765           0.0000000000
     66546     14957  TIP3      H1            -31.3375640895       15.0007067821      -48.1749585927  TIP3      14765           0.0000000000
     66547     14957  TIP3      H2            -32.1745293289       14.0014051835      -47.4096256707  TIP3      14765           0.0000000000
     66548     14958  TIP3      OH2           -35.2382170769       13.7389382132      -57.0944723307  TIP3      14766           0.0000000000
     66549     14958  TIP3      H1            -35.4403729409       14.0756882976      -57.9812053153  TIP3      14766           0.0000000000
     66550     14958  TIP3      H2            -35.1276387082       14.5475671494      -56.5579071129  TIP3      14766           0.0000000000
     66551     14959  TIP3      OH2           -21.5970566369       15.3767635918      -50.2865309369  TIP3      14767           0.0000000000
     66552     14959  TIP3      H1            -22.5652231150       15.4884064116      -50.1679704974  TIP3      14767           0.0000000000
     66553     14959  TIP3      H2            -21.3269426705       16.2919719790      -50.4904203566  TIP3      14767           0.0000000000
     66554     14960  TIP3      OH2           -21.2724099329        3.6582509559      -48.8992675470  TIP3      14768           0.0000000000
     66555     14960  TIP3      H1            -21.9968726812        4.2918400366      -48.9914471513  TIP3      14768           0.0000000000
     66556     14960  TIP3      H2            -20.5588919266        4.0771188573      -49.4213187279  TIP3      14768           0.0000000000
     66557     14961  TIP3      OH2           -28.3047161717        1.7861347376      -51.4390497012  TIP3      14769           0.0000000000
     66558     14961  TIP3      H1            -28.4374900164        0.8209625104      -51.5087698454  TIP3      14769           0.0000000000
     66559     14961  TIP3      H2            -29.1847729322        2.0848742916      -51.1269763336  TIP3      14769           0.0000000000
     66560     14962  TIP3      OH2           -23.3347871297       17.1611856890      -53.7008696241  TIP3      14770           0.0000000000
     66561     14962  TIP3      H1            -22.9081325523       16.4405336048      -54.2085601151  TIP3      14770           0.0000000000
     66562     14962  TIP3      H2            -22.9006477319       17.9492618556      -54.0911800639  TIP3      14770           0.0000000000
     66563     14963  TIP3      OH2           -22.1209762760       15.0864262275      -55.1795660668  TIP3      14771           0.0000000000
     66564     14963  TIP3      H1            -22.4242482214       14.3899698354      -55.7834968588  TIP3      14771           0.0000000000
     66565     14963  TIP3      H2            -22.0890028205       14.5957157590      -54.3387657104  TIP3      14771           0.0000000000
     66566     14964  TIP3      OH2           -20.5097063883       13.6844881514      -46.6876317294  TIP3      14772           0.0000000000
     66567     14964  TIP3      H1            -20.3616715446       13.0287554879      -47.4049756872  TIP3      14772           0.0000000000
     66568     14964  TIP3      H2            -20.3011024648       14.5253848516      -47.1331938470  TIP3      14772           0.0000000000
     66569     14965  TIP3      OH2           -26.0096732896       10.5672959203      -56.9265905596  TIP3      14773           0.0000000000
     66570     14965  TIP3      H1            -26.7041259763       11.1468319199      -57.2871143047  TIP3      14773           0.0000000000
     66571     14965  TIP3      H2            -25.2993552768       10.6652235552      -57.5870773933  TIP3      14773           0.0000000000
     66572     14966  TIP3      OH2           -25.9283802871        9.1399305174      -59.9157451371  TIP3      14774           0.0000000000
     66573     14966  TIP3      H1            -25.2238937592        9.1209122258      -59.2504302904  TIP3      14774           0.0000000000
     66574     14966  TIP3      H2            -25.6227840840        8.4215292664      -60.4843637656  TIP3      14774           0.0000000000
     66575     14967  TIP3      OH2           -18.6205212599        9.9951775448      -48.6439200492  TIP3      14775           0.0000000000
     66576     14967  TIP3      H1            -19.2778531823       10.7184164065      -48.6047226004  TIP3      14775           0.0000000000
     66577     14967  TIP3      H2            -18.1264079469       10.2289585667      -49.4504283503  TIP3      14775           0.0000000000
     66578     14968  TIP3      OH2           -22.5525189368       10.7778675098      -56.0059046859  TIP3      14776           0.0000000000
     66579     14968  TIP3      H1            -23.2981808927       11.0229627373      -55.4069828706  TIP3      14776           0.0000000000
     66580     14968  TIP3      H2            -22.0856705726       10.1039452661      -55.4811217311  TIP3      14776           0.0000000000
     66581     14969  TIP3      OH2           -22.6317507140        8.9467728910      -46.8767329014  TIP3      14777           0.0000000000
     66582     14969  TIP3      H1            -22.6243643889        9.7659679725      -46.3540858915  TIP3      14777           0.0000000000
     66583     14969  TIP3      H2            -23.2614282580        9.2388958469      -47.5685406645  TIP3      14777           0.0000000000
     66584     14970  TIP3      OH2           -30.9295847027       11.4501818323      -54.0830283010  TIP3      14778           0.0000000000
     66585     14970  TIP3      H1            -31.2829695633       11.0479148540      -54.9135576562  TIP3      14778           0.0000000000
     66586     14970  TIP3      H2            -30.3279109447       10.7479053526      -53.7516598545  TIP3      14778           0.0000000000
     66587     14971  TIP3      OH2           -29.6299406545       14.8218062924      -51.4094697714  TIP3      14779           0.0000000000
     66588     14971  TIP3      H1            -29.6330067591       14.2984433054      -52.2190026810  TIP3      14779           0.0000000000
     66589     14971  TIP3      H2            -28.8476105946       14.4688685691      -50.9487778006  TIP3      14779           0.0000000000
     66590     14972  TIP3      OH2           -30.5904894391       10.1812553802      -50.4243159160  TIP3      14780           0.0000000000
     66591     14972  TIP3      H1            -30.0572459473       10.2941432231      -51.2329429056  TIP3      14780           0.0000000000
     66592     14972  TIP3      H2            -30.2312713758       10.8634918836      -49.8135508299  TIP3      14780           0.0000000000
     66593     14973  TIP3      OH2           -24.2101527896       15.7614382190      -49.7198037658  TIP3      14781           0.0000000000
     66594     14973  TIP3      H1            -24.4922733560       16.3982049925      -49.0561786924  TIP3      14781           0.0000000000
     66595     14973  TIP3      H2            -24.4637886700       14.9076093916      -49.2952995355  TIP3      14781           0.0000000000
     66596     14974  TIP3      OH2           -29.6684341732       14.6151801786      -45.7280955340  TIP3      14782           0.0000000000
     66597     14974  TIP3      H1            -30.0826283385       15.3581957838      -45.2408714173  TIP3      14782           0.0000000000
     66598     14974  TIP3      H2            -30.3379002543       14.4204080965      -46.4272796020  TIP3      14782           0.0000000000
     66599     14975  TIP3      OH2           -23.6833736988        9.9863947414      -58.3386318828  TIP3      14783           0.0000000000
     66600     14975  TIP3      H1            -23.1273458396       10.1585442075      -57.5382079563  TIP3      14783           0.0000000000
     66601     14975  TIP3      H2            -23.2320535011       10.4798981234      -59.0598030033  TIP3      14783           0.0000000000
     66602     14976  TIP3      OH2           -32.7306731707       10.7894471775      -46.5483931194  TIP3      14784           0.0000000000
     66603     14976  TIP3      H1            -32.6842408050       11.4714821828      -45.8562000808  TIP3      14784           0.0000000000
     66604     14976  TIP3      H2            -33.6701801349       10.8764814098      -46.7820245890  TIP3      14784           0.0000000000
     66605     14977  TIP3      OH2           -25.9724250281       16.7063283581      -54.8652810808  TIP3      14785           0.0000000000
     66606     14977  TIP3      H1            -25.5406997397       17.0129696856      -54.0590702862  TIP3      14785           0.0000000000
     66607     14977  TIP3      H2            -26.5293915603       17.4553836680      -55.1037219372  TIP3      14785           0.0000000000
     66608     14978  TIP3      OH2           -31.4207690757       16.6374317796      -44.9841155129  TIP3      14786           0.0000000000
     66609     14978  TIP3      H1            -31.4974484207       16.5577535194      -45.9523989355  TIP3      14786           0.0000000000
     66610     14978  TIP3      H2            -32.3539409029       16.5161323465      -44.7186316742  TIP3      14786           0.0000000000
     66611     14979  TIP3      OH2           -19.9597274252        1.7144820087      -58.4332839082  TIP3      14787           0.0000000000
     66612     14979  TIP3      H1            -20.9067456202        1.8284540525      -58.1934874376  TIP3      14787           0.0000000000
     66613     14979  TIP3      H2            -19.7588781647        2.5551595423      -58.8777562874  TIP3      14787           0.0000000000
     66614     14980  TIP3      OH2           -31.9676602910       10.4549271760      -56.4566683099  TIP3      14788           0.0000000000
     66615     14980  TIP3      H1            -32.2535217950       11.2363859896      -56.9729010507  TIP3      14788           0.0000000000
     66616     14980  TIP3      H2            -32.6218324403        9.7938485337      -56.6940398855  TIP3      14788           0.0000000000
     66617     14981  TIP3      OH2           -18.8465755919       16.0676710089      -60.0861224735  TIP3      14789           0.0000000000
     66618     14981  TIP3      H1            -18.6809100453       17.0105212755      -59.9150550689  TIP3      14789           0.0000000000
     66619     14981  TIP3      H2            -17.9231938532       15.7544179213      -60.0875888874  TIP3      14789           0.0000000000
     66620     14982  TIP3      OH2           -35.2953181455       12.7628159047      -47.8283931734  TIP3      14790           0.0000000000
     66621     14982  TIP3      H1            -36.0673732277       12.8874993531      -48.4193873814  TIP3      14790           0.0000000000
     66622     14982  TIP3      H2            -35.6661574013       11.9771032321      -47.3646567365  TIP3      14790           0.0000000000
     66623     14983  TIP3      OH2           -35.8263254430       15.8695078311      -51.0770348251  TIP3      14791           0.0000000000
     66624     14983  TIP3      H1            -35.0066658210       15.4602734698      -50.7872172998  TIP3      14791           0.0000000000
     66625     14983  TIP3      H2            -36.1157002584       16.3288543989      -50.2764223632  TIP3      14791           0.0000000000
     66626     14984  TIP3      OH2           -17.8896734569       16.3345678588      -45.1031327456  TIP3      14792           0.0000000000
     66627     14984  TIP3      H1            -18.0089470559       15.3738672321      -45.1328882270  TIP3      14792           0.0000000000
     66628     14984  TIP3      H2            -18.7645471603       16.5812707284      -44.7191231089  TIP3      14792           0.0000000000
     66629     14985  TIP3      OH2           -26.9344374893       15.8744235560      -46.2413258766  TIP3      14793           0.0000000000
     66630     14985  TIP3      H1            -26.8796967211       16.7198056840      -45.7324839129  TIP3      14793           0.0000000000
     66631     14985  TIP3      H2            -27.8077032371       15.5137450726      -45.9930042848  TIP3      14793           0.0000000000
     66632     14986  TIP3      OH2           -26.4897499284       19.6138931869      -56.4547137703  TIP3      14794           0.0000000000
     66633     14986  TIP3      H1            -26.6018633454       19.5368922584      -57.4195597116  TIP3      14794           0.0000000000
     66634     14986  TIP3      H2            -26.4891246181       20.5762455730      -56.2981191733  TIP3      14794           0.0000000000
     66635     14987  TIP3      OH2           -32.8649447070       18.4971942896      -54.6419198524  TIP3      14795           0.0000000000
     66636     14987  TIP3      H1            -32.7189467421       18.0897559182      -53.7591004753  TIP3      14795           0.0000000000
     66637     14987  TIP3      H2            -33.6956583041       18.0622433682      -54.8799850645  TIP3      14795           0.0000000000
     66638     14988  TIP3      OH2           -23.4369222532       18.8280423211      -59.4702905747  TIP3      14796           0.0000000000
     66639     14988  TIP3      H1            -22.9822632833       18.0694465065      -59.9044175414  TIP3      14796           0.0000000000
     66640     14988  TIP3      H2            -23.3973183762       18.5665212925      -58.5268136916  TIP3      14796           0.0000000000
     66641     14989  TIP3      OH2           -23.7412048322       18.7628354897      -56.6958064582  TIP3      14797           0.0000000000
     66642     14989  TIP3      H1            -24.7035479097       18.8383959296      -56.5247368495  TIP3      14797           0.0000000000
     66643     14989  TIP3      H2            -23.5080472143       18.0205330609      -56.1176708591  TIP3      14797           0.0000000000
     66644     14990  TIP3      OH2           -20.7446721014        7.7996665235      -44.6368800391  TIP3      14798           0.0000000000
     66645     14990  TIP3      H1            -21.2203840222        8.2505282193      -45.3534674543  TIP3      14798           0.0000000000
     66646     14990  TIP3      H2            -20.7596467942        6.8802187109      -44.9416002903  TIP3      14798           0.0000000000
     66647     14991  TIP3      OH2           -33.5872929467       14.2940749297      -46.5640143144  TIP3      14799           0.0000000000
     66648     14991  TIP3      H1            -33.4060054537       13.8438561653      -45.7163255357  TIP3      14799           0.0000000000
     66649     14991  TIP3      H2            -34.4137297695       13.8458694652      -46.8531393705  TIP3      14799           0.0000000000
     66650     14992  TIP3      OH2           -30.9165898940        2.6934233671      -50.6825595318  TIP3      14800           0.0000000000
     66651     14992  TIP3      H1            -31.8179905913        2.5696547978      -51.0531110784  TIP3      14800           0.0000000000
     66652     14992  TIP3      H2            -31.0570773378        3.5189579980      -50.1909711220  TIP3      14800           0.0000000000
     66653     14993  TIP3      OH2           -26.2801200030        2.3482602691      -47.3219763108  TIP3      14801           0.0000000000
     66654     14993  TIP3      H1            -25.8873713022        1.9271694428      -46.5345319323  TIP3      14801           0.0000000000
     66655     14993  TIP3      H2            -27.2521417241        2.2332541329      -47.1746608605  TIP3      14801           0.0000000000
     66656     14994  TIP3      OH2           -22.9925651916        6.1971769390      -46.4186147410  TIP3      14802           0.0000000000
     66657     14994  TIP3      H1            -23.5580509670        5.9821385485      -45.6378296011  TIP3      14802           0.0000000000
     66658     14994  TIP3      H2            -23.1778179945        7.1241236336      -46.6478030347  TIP3      14802           0.0000000000
     66659     14995  TIP3      OH2           -22.2364865030       11.0175318955      -60.5244522812  TIP3      14803           0.0000000000
     66660     14995  TIP3      H1            -22.2567801502       10.8230220028      -61.4902370893  TIP3      14803           0.0000000000
     66661     14995  TIP3      H2            -21.3766321476       11.4584560373      -60.4712295127  TIP3      14803           0.0000000000
     66662     14996  TIP3      OH2           -26.6403575786        4.9373531431      -60.0128825012  TIP3      14804           0.0000000000
     66663     14996  TIP3      H1            -26.9588108474        4.8755592657      -59.0940741733  TIP3      14804           0.0000000000
     66664     14996  TIP3      H2            -26.9481811355        4.0597823871      -60.3184915030  TIP3      14804           0.0000000000
     66665     14997  TIP3      OH2           -30.8363075739        7.6573128448      -49.4335914980  TIP3      14805           0.0000000000
     66666     14997  TIP3      H1            -31.5568039289        7.6583017079      -48.7750961140  TIP3      14805           0.0000000000
     66667     14997  TIP3      H2            -30.8567136607        8.5692994992      -49.7984405447  TIP3      14805           0.0000000000
     66668     14998  TIP3      OH2           -30.8409502993        7.7803986923      -54.5654509714  TIP3      14806           0.0000000000
     66669     14998  TIP3      H1            -31.7805761590        7.5328561900      -54.7047714345  TIP3      14806           0.0000000000
     66670     14998  TIP3      H2            -30.4678868016        7.4806564775      -55.4160163514  TIP3      14806           0.0000000000
     66671     14999  TIP3      OH2           -25.3428989854        8.2780219482      -55.7854049154  TIP3      14807           0.0000000000
     66672     14999  TIP3      H1            -25.7366427430        9.1010855014      -56.1572407384  TIP3      14807           0.0000000000
     66673     14999  TIP3      H2            -24.6562135967        8.1076512369      -56.4520068858  TIP3      14807           0.0000000000
     66674     15000  TIP3      OH2           -26.2880968632        8.4860194865      -44.3578029348  TIP3      14808           0.0000000000
     66675     15000  TIP3      H1            -26.8133417917        7.7101290353      -44.0470674543  TIP3      14808           0.0000000000
     66676     15000  TIP3      H2            -25.4501073656        8.3648839815      -43.8810672848  TIP3      14808           0.0000000000
     66677     15001  TIP3      OH2           -24.3065757208        7.7693967968      -52.9495129793  TIP3      14809           0.0000000000
     66678     15001  TIP3      H1            -24.5922433435        8.3306710940      -53.6894406758  TIP3      14809           0.0000000000
     66679     15001  TIP3      H2            -24.2130041174        6.9181036894      -53.4175522038  TIP3      14809           0.0000000000
     66680     15002  TIP3      OH2           -33.1844550723        7.8914246073      -47.7463583928  TIP3      14810           0.0000000000
     66681     15002  TIP3      H1            -33.1668631418        8.3144928121      -46.8728338273  TIP3      14810           0.0000000000
     66682     15002  TIP3      H2            -33.6701423516        7.0771202172      -47.5502222746  TIP3      14810           0.0000000000
     66683     15003  TIP3      OH2           -29.8281116504        5.3053629686      -60.8974554734  TIP3      14811           0.0000000000
     66684     15003  TIP3      H1            -30.2769280351        4.8828264015      -60.1377923554  TIP3      14811           0.0000000000
     66685     15003  TIP3      H2            -30.5414311777        5.7334796922      -61.3864344858  TIP3      14811           0.0000000000
     66686     15004  TIP3      OH2           -36.1747360953        5.3319732347      -53.9467297818  TIP3      14812           0.0000000000
     66687     15004  TIP3      H1            -35.8305764484        4.9905478933      -53.0940602158  TIP3      14812           0.0000000000
     66688     15004  TIP3      H2            -36.0220753345        4.5816257041      -54.5218402315  TIP3      14812           0.0000000000
     66689     15005  TIP3      OH2           -35.2954065390        5.8847154475      -58.4319862045  TIP3      14813           0.0000000000
     66690     15005  TIP3      H1            -34.7356091113        6.4360621983      -59.0182426061  TIP3      14813           0.0000000000
     66691     15005  TIP3      H2            -36.0214094003        6.4472092684      -58.1937638424  TIP3      14813           0.0000000000
     66692     15006  TIP3      OH2           -25.1119594169        9.3494337753      -48.3959452342  TIP3      14814           0.0000000000
     66693     15006  TIP3      H1            -24.7301086715        8.6632437051      -48.9800000456  TIP3      14814           0.0000000000
     66694     15006  TIP3      H2            -25.5784125802        8.8221344851      -47.7229309006  TIP3      14814           0.0000000000
     66695     15007  TIP3      OH2           -28.3079537969        5.3322205606      -53.5590449751  TIP3      14815           0.0000000000
     66696     15007  TIP3      H1            -29.2415134136        5.3318681257      -53.2652000585  TIP3      14815           0.0000000000
     66697     15007  TIP3      H2            -27.8258617403        5.1571474435      -52.7364895102  TIP3      14815           0.0000000000
     66698     15008  TIP3      OH2           -33.4857127228        6.8701626495      -54.6953517099  TIP3      14816           0.0000000000
     66699     15008  TIP3      H1            -34.3562618850        7.0478946603      -55.0941123016  TIP3      14816           0.0000000000
     66700     15008  TIP3      H2            -33.2478753023        6.0227463817      -55.1113956728  TIP3      14816           0.0000000000
     66701     15009  TIP3      OH2           -29.8575584419        6.9232777784      -57.0634108825  TIP3      14817           0.0000000000
     66702     15009  TIP3      H1            -28.9010954025        7.0390735567      -56.9064396575  TIP3      14817           0.0000000000
     66703     15009  TIP3      H2            -30.1090303341        7.6098478525      -57.7106731959  TIP3      14817           0.0000000000
     66704     15010  TIP3      OH2           -23.9012268211        4.5617367115      -50.3226057389  TIP3      14818           0.0000000000
     66705     15010  TIP3      H1            -24.5842142952        4.6115513262      -49.6157050598  TIP3      14818           0.0000000000
     66706     15010  TIP3      H2            -24.4121968622        4.3068687293      -51.1032200404  TIP3      14818           0.0000000000
     66707     15011  TIP3      OH2           -31.1364707713        8.0935898881      -59.4871273518  TIP3      14819           0.0000000000
     66708     15011  TIP3      H1            -31.6763761558        7.7314682830      -60.2078347095  TIP3      14819           0.0000000000
     66709     15011  TIP3      H2            -30.3158564697        8.3125181615      -59.9544071114  TIP3      14819           0.0000000000
     66710     15012  TIP3      OH2           -20.7021228609       20.2012486829      -43.9948585539  TIP3      14820           0.0000000000
     66711     15012  TIP3      H1            -20.4357452518       20.5881346823      -44.8468380240  TIP3      14820           0.0000000000
     66712     15012  TIP3      H2            -19.9778566312       20.5244575060      -43.4327489603  TIP3      14820           0.0000000000
     66713     15013  TIP3      OH2           -33.0502331908       12.6645756906      -44.4094522712  TIP3      14821           0.0000000000
     66714     15013  TIP3      H1            -32.3065436911       12.9079730559      -43.8241727327  TIP3      14821           0.0000000000
     66715     15013  TIP3      H2            -33.7971433096       12.7752221691      -43.7979861443  TIP3      14821           0.0000000000
     66716     15014  TIP3      OH2           -27.0350090720        8.0808955999      -51.6669832248  TIP3      14822           0.0000000000
     66717     15014  TIP3      H1            -26.4267405265        7.5527617498      -52.1993396807  TIP3      14822           0.0000000000
     66718     15014  TIP3      H2            -27.1711666987        7.5339446263      -50.8825765116  TIP3      14822           0.0000000000
     66719     15015  TIP3      OH2           -32.0262859199        4.2400488432      -55.2353284882  TIP3      14823           0.0000000000
     66720     15015  TIP3      H1            -32.3375281358        3.3187132883      -55.2339669924  TIP3      14823           0.0000000000
     66721     15015  TIP3      H2            -31.2282088646        4.1570922755      -55.7720122693  TIP3      14823           0.0000000000
     66722     15016  TIP3      OH2           -28.3877216014        6.4109571813      -49.2524929552  TIP3      14824           0.0000000000
     66723     15016  TIP3      H1            -29.2125179574        6.9297367802      -49.1634663727  TIP3      14824           0.0000000000
     66724     15016  TIP3      H2            -27.8325086456        6.7634557227      -48.5299101781  TIP3      14824           0.0000000000
     66725     15017  TIP3      OH2           -27.7976175241       12.6349349310      -57.5553910535  TIP3      14825           0.0000000000
     66726     15017  TIP3      H1            -28.5974494656       12.1692927145      -57.8902738330  TIP3      14825           0.0000000000
     66727     15017  TIP3      H2            -28.0242389777       12.7578382920      -56.6108677938  TIP3      14825           0.0000000000
     66728     15018  TIP3      OH2           -20.6101765737       11.8373716701      -48.7515814556  TIP3      14826           0.0000000000
     66729     15018  TIP3      H1            -20.0483113488       12.3210153530      -49.3841947439  TIP3      14826           0.0000000000
     66730     15018  TIP3      H2            -21.4709586063       11.8818906780      -49.2148273241  TIP3      14826           0.0000000000
     66731     15019  TIP3      OH2           -23.9716792167        5.4473967542      -59.3775948533  TIP3      14827           0.0000000000
     66732     15019  TIP3      H1            -24.9218895578        5.6020999107      -59.5144890697  TIP3      14827           0.0000000000
     66733     15019  TIP3      H2            -23.6292559367        6.2987067594      -59.0290914929  TIP3      14827           0.0000000000
     66734     15020  TIP3      OH2           -26.3056279416       12.9040346717      -46.3102627561  TIP3      14828           0.0000000000
     66735     15020  TIP3      H1            -26.6534345146       12.4749835734      -45.5209635841  TIP3      14828           0.0000000000
     66736     15020  TIP3      H2            -26.5630217192       13.8265392670      -46.2020799412  TIP3      14828           0.0000000000
     66737     15021  TIP3      OH2           -23.2371547282        7.3724618527      -57.7570237620  TIP3      14829           0.0000000000
     66738     15021  TIP3      H1            -22.3553996198        7.2399215648      -57.3460150058  TIP3      14829           0.0000000000
     66739     15021  TIP3      H2            -23.1279538292        8.1915262855      -58.2664172958  TIP3      14829           0.0000000000
     66740     15022  TIP3      OH2           -32.6943155679       12.0306926650      -51.7668396193  TIP3      14830           0.0000000000
     66741     15022  TIP3      H1            -32.0169593692       11.9479796781      -52.4584774076  TIP3      14830           0.0000000000
     66742     15022  TIP3      H2            -32.5987538160       11.1902744903      -51.2865383815  TIP3      14830           0.0000000000
     66743     15023  TIP3      OH2           -25.7060768315       14.1017797228      -58.5246945887  TIP3      14831           0.0000000000
     66744     15023  TIP3      H1            -26.0485702850       14.9474493445      -58.1671243022  TIP3      14831           0.0000000000
     66745     15023  TIP3      H2            -26.4394117430       13.4863684098      -58.3056412495  TIP3      14831           0.0000000000
     66746     15024  TIP3      OH2           -35.7250952012       10.4156151143      -46.4860774000  TIP3      14832           0.0000000000
     66747     15024  TIP3      H1            -35.4680367121        9.9725952963      -45.6549381589  TIP3      14832           0.0000000000
     66748     15024  TIP3      H2            -36.3082974588        9.7739221112      -46.9101486397  TIP3      14832           0.0000000000
     66749     15025  TIP3      OH2           -28.6863928839        9.9960257518      -44.3188316168  TIP3      14833           0.0000000000
     66750     15025  TIP3      H1            -29.0056871089        9.6830752096      -45.1766155320  TIP3      14833           0.0000000000
     66751     15025  TIP3      H2            -27.7634841895        9.6677340660      -44.3185507831  TIP3      14833           0.0000000000
     66752     15026  TIP3      OH2           -23.9991875160       15.3278493326      -46.3608224549  TIP3      14834           0.0000000000
     66753     15026  TIP3      H1            -24.9244791518       15.5061040799      -46.5950545978  TIP3      14834           0.0000000000
     66754     15026  TIP3      H2            -24.0329146300       15.6211815443      -45.4302265527  TIP3      14834           0.0000000000
     66755     15027  TIP3      OH2           -18.3251466946        7.4976057829      -57.9808576041  TIP3      14835           0.0000000000
     66756     15027  TIP3      H1            -18.9006649991        7.2202539388      -58.7170897249  TIP3      14835           0.0000000000
     66757     15027  TIP3      H2            -18.2535871477        8.4501012064      -58.2265067527  TIP3      14835           0.0000000000
     66758     15028  TIP3      OH2           -18.3443851468       13.3689759727      -45.1700713334  TIP3      14836           0.0000000000
     66759     15028  TIP3      H1            -19.2371311899       13.5904586057      -45.5338483528  TIP3      14836           0.0000000000
     66760     15028  TIP3      H2            -17.7986809275       13.3180462118      -45.9819927089  TIP3      14836           0.0000000000
     66761     15029  TIP3      OH2           -20.0782895134       16.3361774653      -57.5820660415  TIP3      14837           0.0000000000
     66762     15029  TIP3      H1            -20.4084296998       15.4987603727      -57.2322782614  TIP3      14837           0.0000000000
     66763     15029  TIP3      H2            -19.7225981557       16.1167594875      -58.4588379643  TIP3      14837           0.0000000000
     66764     15030  TIP3      OH2           -22.8342290027       11.1521149285      -50.4705709913  TIP3      14838           0.0000000000
     66765     15030  TIP3      H1            -23.7745473266       10.9437881289      -50.5812230798  TIP3      14838           0.0000000000
     66766     15030  TIP3      H2            -22.4031343287       10.3932104300      -50.9067787128  TIP3      14838           0.0000000000
     66767     15031  TIP3      OH2           -30.3269190243       15.4895630478      -54.3556798801  TIP3      14839           0.0000000000
     66768     15031  TIP3      H1            -29.8203730503       16.2883337320      -54.5744802125  TIP3      14839           0.0000000000
     66769     15031  TIP3      H2            -31.2057814563       15.7175041000      -54.6906209157  TIP3      14839           0.0000000000
     66770     15032  TIP3      OH2           -34.6008932098       10.3239007238      -59.7612445401  TIP3      14840           0.0000000000
     66771     15032  TIP3      H1            -33.9581130622       10.9834595274      -59.4076926402  TIP3      14840           0.0000000000
     66772     15032  TIP3      H2            -35.4537556398       10.6823308273      -59.4986131322  TIP3      14840           0.0000000000
     66773     15033  TIP3      OH2           -28.9050684594       13.1518699999      -54.8642411187  TIP3      14841           0.0000000000
     66774     15033  TIP3      H1            -29.2171550164       14.0702610465      -54.7588332666  TIP3      14841           0.0000000000
     66775     15033  TIP3      H2            -29.6153397724       12.6546588616      -54.4103406402  TIP3      14841           0.0000000000
     66776     15034  TIP3      OH2           -28.4385628895       17.3278435747      -48.4464588163  TIP3      14842           0.0000000000
     66777     15034  TIP3      H1            -27.9924761439       18.1407106129      -48.7274233435  TIP3      14842           0.0000000000
     66778     15034  TIP3      H2            -27.8304395820       16.9929241863      -47.7636079901  TIP3      14842           0.0000000000
     66779     15035  TIP3      OH2           -30.2263592579       18.1389251135      -55.3281593506  TIP3      14843           0.0000000000
     66780     15035  TIP3      H1            -31.1894452833       18.2832499730      -55.1927646251  TIP3      14843           0.0000000000
     66781     15035  TIP3      H2            -29.8598682218       18.9753066931      -54.9840275568  TIP3      14843           0.0000000000
     66782     15036  TIP3      OH2           -24.9320666434       13.3264483840      -48.8250159756  TIP3      14844           0.0000000000
     66783     15036  TIP3      H1            -25.2510944260       13.1376292559      -47.9178789139  TIP3      14844           0.0000000000
     66784     15036  TIP3      H2            -24.2874041052       12.6199338977      -48.9906806233  TIP3      14844           0.0000000000
     66785     15037  TIP3      OH2           -22.5857808554       14.4091065471      -59.7342723641  TIP3      14845           0.0000000000
     66786     15037  TIP3      H1            -22.2919216025       13.9338421703      -58.9307775670  TIP3      14845           0.0000000000
     66787     15037  TIP3      H2            -23.5394362403       14.2235113158      -59.6537813687  TIP3      14845           0.0000000000
     66788     15038  TIP3      OH2           -22.1054637940       17.9117933933      -46.3360127832  TIP3      14846           0.0000000000
     66789     15038  TIP3      H1            -22.7997371628       17.4191993199      -46.8136554210  TIP3      14846           0.0000000000
     66790     15038  TIP3      H2            -21.9253488676       18.6129967061      -46.9971281919  TIP3      14846           0.0000000000
     66791     15039  TIP3      OH2           -18.1265459694       18.7600323977      -59.4774696826  TIP3      14847           0.0000000000
     66792     15039  TIP3      H1            -17.4378986796       19.4234402709      -59.6843701938  TIP3      14847           0.0000000000
     66793     15039  TIP3      H2            -18.8411195990       19.3722955318      -59.1894454729  TIP3      14847           0.0000000000
     66794     15040  TIP3      OH2           -34.0466525231        5.1708239494      -46.9791285672  TIP3      14848           0.0000000000
     66795     15040  TIP3      H1            -34.9345735419        5.5429964454      -46.8948041701  TIP3      14848           0.0000000000
     66796     15040  TIP3      H2            -34.1615435454        4.3330214838      -46.4993503215  TIP3      14848           0.0000000000
     66797     15041  TIP3      OH2           -21.8128454809       13.0411662561      -57.4918291341  TIP3      14849           0.0000000000
     66798     15041  TIP3      H1            -22.0503906586       12.2538109734      -56.9547765492  TIP3      14849           0.0000000000
     66799     15041  TIP3      H2            -20.8600989132       13.0839987502      -57.3141365488  TIP3      14849           0.0000000000
     66800     15042  TIP3      OH2           -34.2661583639       17.0025816878      -48.5637459606  TIP3      14850           0.0000000000
     66801     15042  TIP3      H1            -34.1488924704       16.0437143143      -48.5055272101  TIP3      14850           0.0000000000
     66802     15042  TIP3      H2            -34.1826783412       17.2347868728      -47.6330923226  TIP3      14850           0.0000000000
     66803     15043  TIP3      OH2           -28.4589088470       15.4779492490      -61.2378698991  TIP3      14851           0.0000000000
     66804     15043  TIP3      H1            -28.3605350538       14.7140351137      -61.8287735002  TIP3      14851           0.0000000000
     66805     15043  TIP3      H2            -28.9019040709       15.0475554052      -60.4740533130  TIP3      14851           0.0000000000
     66806     15044  TIP3      OH2           -29.6888263748       15.0048772244      -58.7857828117  TIP3      14852           0.0000000000
     66807     15044  TIP3      H1            -29.4171896281       14.4904886150      -58.0161696154  TIP3      14852           0.0000000000
     66808     15044  TIP3      H2            -29.5964354256       15.9311928085      -58.4632575595  TIP3      14852           0.0000000000
     66809     15045  TIP3      OH2           -33.1946887778       12.2484846382      -58.3105707362  TIP3      14853           0.0000000000
     66810     15045  TIP3      H1            -33.9041073389       12.6417188905      -57.7582888813  TIP3      14853           0.0000000000
     66811     15045  TIP3      H2            -32.6716614274       13.0285409355      -58.5814474072  TIP3      14853           0.0000000000
     66812     15046  TIP3      OH2           -25.3165451470        4.9395536145      -47.9799480959  TIP3      14854           0.0000000000
     66813     15046  TIP3      H1            -24.6030242490        5.0003847874      -47.3368350668  TIP3      14854           0.0000000000
     66814     15046  TIP3      H2            -25.6997058998        4.0631843283      -47.7762322509  TIP3      14854           0.0000000000
     66815     15047  TIP3      OH2           -24.5739445403        4.5061552875      -56.8956730989  TIP3      14855           0.0000000000
     66816     15047  TIP3      H1            -24.3417926559        4.9707790553      -57.7245298376  TIP3      14855           0.0000000000
     66817     15047  TIP3      H2            -23.9960868227        4.9501570041      -56.2621480142  TIP3      14855           0.0000000000
     66818     15048  TIP3      OH2           -26.8827140741       16.6677775963      -58.0908269359  TIP3      14856           0.0000000000
     66819     15048  TIP3      H1            -27.7006402028       17.2001627784      -58.0183287643  TIP3      14856           0.0000000000
     66820     15048  TIP3      H2            -26.3437944918       17.2183567219      -58.6771610477  TIP3      14856           0.0000000000
     66821     15049  TIP3      OH2           -27.3406483635        6.2594396766      -56.0755636377  TIP3      14857           0.0000000000
     66822     15049  TIP3      H1            -26.5601978914        6.8449296815      -56.0273773368  TIP3      14857           0.0000000000
     66823     15049  TIP3      H2            -27.6097590561        6.1337399807      -55.1456956642  TIP3      14857           0.0000000000
     66824     15050  TIP3      OH2           -26.7906468681        7.2849289423      -46.8828183986  TIP3      14858           0.0000000000
     66825     15050  TIP3      H1            -26.7141477402        7.8432657983      -46.0848565732  TIP3      14858           0.0000000000
     66826     15050  TIP3      H2            -26.1259845050        6.5911532377      -46.7881694483  TIP3      14858           0.0000000000
     66827     15051  TIP3      OH2           -26.4953705977        3.3162968409      -55.1964189291  TIP3      14859           0.0000000000
     66828     15051  TIP3      H1            -26.8164044433        3.9636956672      -54.5447343027  TIP3      14859           0.0000000000
     66829     15051  TIP3      H2            -25.7996660039        3.8629275071      -55.6359326504  TIP3      14859           0.0000000000
     66830     15052  TIP3      OH2           -29.4810628364       17.6962157361      -58.0622180298  TIP3      14860           0.0000000000
     66831     15052  TIP3      H1            -29.3845003540       18.5123028987      -58.6148441451  TIP3      14860           0.0000000000
     66832     15052  TIP3      H2            -29.7533782838       18.0667011387      -57.1921138891  TIP3      14860           0.0000000000
     66833     15053  TIP3      OH2           -30.8237659325        4.4231205858      -58.4861459806  TIP3      14861           0.0000000000
     66834     15053  TIP3      H1            -30.8836834522        5.3191228702      -58.0971603529  TIP3      14861           0.0000000000
     66835     15053  TIP3      H2            -29.9185518776        4.1801871111      -58.2190406265  TIP3      14861           0.0000000000
     66836     15054  TIP3      OH2           -20.6115004939        5.1544355673      -46.0392700996  TIP3      14862           0.0000000000
     66837     15054  TIP3      H1            -21.5386693784        5.4707797214      -46.1679479798  TIP3      14862           0.0000000000
     66838     15054  TIP3      H2            -20.3103768994        5.1409775517      -46.9631871511  TIP3      14862           0.0000000000
     66839     15055  TIP3      OH2           -21.9933586177        8.9422727693      -52.0357372871  TIP3      14863           0.0000000000
     66840     15055  TIP3      H1            -22.8197299425        8.4978695612      -52.3074088330  TIP3      14863           0.0000000000
     66841     15055  TIP3      H2            -21.5163691203        8.2557899873      -51.5163732185  TIP3      14863           0.0000000000
     66842     15056  TIP3      OH2           -32.6205778153       14.8769850567      -59.4443023225  TIP3      14864           0.0000000000
     66843     15056  TIP3      H1            -31.9505063009       15.5057891173      -59.1324385367  TIP3      14864           0.0000000000
     66844     15056  TIP3      H2            -32.0886072095       14.3969357816      -60.1127008410  TIP3      14864           0.0000000000
     66845     15057  TIP3      OH2           -34.3037274027        7.5258842404      -60.3080674714  TIP3      14865           0.0000000000
     66846     15057  TIP3      H1            -34.2328740383        8.4806243062      -60.1078157363  TIP3      14865           0.0000000000
     66847     15057  TIP3      H2            -35.1872145978        7.3565287868      -60.6511137305  TIP3      14865           0.0000000000
     66848     15058  TIP3      OH2           -20.9335265294       18.2045443971      -50.3597133358  TIP3      14866           0.0000000000
     66849     15058  TIP3      H1            -21.0218507361       18.8844350289      -51.0561846594  TIP3      14866           0.0000000000
     66850     15058  TIP3      H2            -19.9694069197       18.2554033762      -50.1862178024  TIP3      14866           0.0000000000
     66851     15059  TIP3      OH2           -33.4145891577        2.3091134934      -51.5748325410  TIP3      14867           0.0000000000
     66852     15059  TIP3      H1            -33.6336067092        2.3419517005      -52.5325237362  TIP3      14867           0.0000000000
     66853     15059  TIP3      H2            -33.8616573516        1.4792311962      -51.3075127864  TIP3      14867           0.0000000000
     66854     15060  TIP3      OH2           -34.4678886918       16.2519050196      -55.3872007394  TIP3      14868           0.0000000000
     66855     15060  TIP3      H1            -35.3272380406       16.6760007400      -55.4476732173  TIP3      14868           0.0000000000
     66856     15060  TIP3      H2            -33.9963935034       16.7092080210      -56.0993466133  TIP3      14868           0.0000000000
     66857     15061  TIP3      OH2           -34.9740859112       18.9206546035      -44.1365818359  TIP3      14869           0.0000000000
     66858     15061  TIP3      H1            -34.5638584351       18.6918700181      -43.2884127334  TIP3      14869           0.0000000000
     66859     15061  TIP3      H2            -35.5013628057       18.1113957037      -44.2930956897  TIP3      14869           0.0000000000
     66860     15062  TIP3      OH2           -30.5956431124       17.8052033990      -42.5254721918  TIP3      14870           0.0000000000
     66861     15062  TIP3      H1            -29.8366150525       17.3119169816      -42.1912529278  TIP3      14870           0.0000000000
     66862     15062  TIP3      H2            -30.6216055756       17.5324590177      -43.4639509035  TIP3      14870           0.0000000000
     66863     15063  TIP3      OH2           -26.4656823131       17.3288946183      -61.1147252437  TIP3      14871           0.0000000000
     66864     15063  TIP3      H1            -27.1582925876       16.6694832969      -60.8870493067  TIP3      14871           0.0000000000
     66865     15063  TIP3      H2            -25.7475014686       16.7302733764      -61.3626116290  TIP3      14871           0.0000000000
     66866     15064  TIP3      OH2           -24.0969947503       16.1990936419      -43.7674305949  TIP3      14872           0.0000000000
     66867     15064  TIP3      H1            -24.4125056184       15.3120704784      -43.4923779056  TIP3      14872           0.0000000000
     66868     15064  TIP3      H2            -23.3289324797       16.3180809149      -43.1742583812  TIP3      14872           0.0000000000
     66869     15065  TIP3      OH2           -21.9075737466       17.0717247590      -60.9289965898  TIP3      14873           0.0000000000
     66870     15065  TIP3      H1            -21.6112948428       16.2963838910      -60.4248392578  TIP3      14873           0.0000000000
     66871     15065  TIP3      H2            -21.1446167475       17.2977130514      -61.4803522709  TIP3      14873           0.0000000000
     66872     15066  TIP3      OH2           -35.4116272918       12.6698367406      -43.1318480726  TIP3      14874           0.0000000000
     66873     15066  TIP3      H1            -35.1909927135       11.7780360378      -43.4607692396  TIP3      14874           0.0000000000
     66874     15066  TIP3      H2            -36.1215057808       12.9478278078      -43.7202319150  TIP3      14874           0.0000000000
     66875     15067  TIP3      OH2           -31.0205933873       13.0159553633      -61.1120638409  TIP3      14875           0.0000000000
     66876     15067  TIP3      H1            -30.8843891019       12.2528510060      -60.5308304815  TIP3      14875           0.0000000000
     66877     15067  TIP3      H2            -30.2709303479       12.8966916560      -61.7275787736  TIP3      14875           0.0000000000
     66878     15068  TIP3      OH2           -28.6536275162       12.6570482629      -43.7432188956  TIP3      14876           0.0000000000
     66879     15068  TIP3      H1            -28.9879486744       12.9700429162      -44.6069557139  TIP3      14876           0.0000000000
     66880     15068  TIP3      H2            -28.5798078701       11.6795835260      -43.8519476029  TIP3      14876           0.0000000000
     66881     15069  TIP3      OH2           -25.5898610561       14.1225948172      -61.3321493574  TIP3      14877           0.0000000000
     66882     15069  TIP3      H1            -25.8602237865       14.2036475407      -60.4038700924  TIP3      14877           0.0000000000
     66883     15069  TIP3      H2            -25.7793370820       13.1650045109      -61.4766809627  TIP3      14877           0.0000000000
     66884     15070  TIP3      OH2           -22.9575709314       12.5163946153      -46.3510545215  TIP3      14878           0.0000000000
     66885     15070  TIP3      H1            -22.1697197249       13.0991465714      -46.4130959697  TIP3      14878           0.0000000000
     66886     15070  TIP3      H2            -23.6572482174       13.1843032782      -46.3153396423  TIP3      14878           0.0000000000
     66887     15071  TIP3      OH2           -34.5148515719        9.8825619963      -43.7572288192  TIP3      14879           0.0000000000
     66888     15071  TIP3      H1            -34.0295341173        9.0428631425      -43.8399803514  TIP3      14879           0.0000000000
     66889     15071  TIP3      H2            -34.6878666135        9.8929726753      -42.8051610472  TIP3      14879           0.0000000000
     66890     15072  TIP3      OH2           -29.8188270367       11.0315898243      -58.6800425624  TIP3      14880           0.0000000000
     66891     15072  TIP3      H1            -30.3212541848       10.4918515882      -58.0520273799  TIP3      14880           0.0000000000
     66892     15072  TIP3      H2            -29.5182930673       10.3585247195      -59.3340478504  TIP3      14880           0.0000000000
     66893     15073  TIP3      OH2           -30.5525984346        8.8368020186      -46.3930820210  TIP3      14881           0.0000000000
     66894     15073  TIP3      H1            -31.1580781647        9.5493751558      -46.1313284280  TIP3      14881           0.0000000000
     66895     15073  TIP3      H2            -30.1554012926        9.2073851210      -47.2003161392  TIP3      14881           0.0000000000
     66896     15074  TIP3      OH2           -28.7438444227        9.2551163575      -60.4808928216  TIP3      14882           0.0000000000
     66897     15074  TIP3      H1            -28.8949179084        9.1654588711      -61.4426069017  TIP3      14882           0.0000000000
     66898     15074  TIP3      H2            -27.7655148719        9.3064601030      -60.4160743669  TIP3      14882           0.0000000000
     66899     15075  TIP3      OH2           -25.4767386763       11.4081901814      -43.0570675047  TIP3      14883           0.0000000000
     66900     15075  TIP3      H1            -24.5199884072       11.3950059847      -43.1809095629  TIP3      14883           0.0000000000
     66901     15075  TIP3      H2            -25.6482977796       10.6409219827      -42.4879734367  TIP3      14883           0.0000000000
     66902     15076  TIP3      OH2           -19.4116482022       11.5744394819      -61.0699145203  TIP3      14884           0.0000000000
     66903     15076  TIP3      H1            -19.6064744490       11.1903159160      -61.9377520683  TIP3      14884           0.0000000000
     66904     15076  TIP3      H2            -19.3195986247       12.5364060156      -61.2605411015  TIP3      14884           0.0000000000
     66905     15077  TIP3      OH2           -30.1156145815        6.2207456555      -45.3373772786  TIP3      14885           0.0000000000
     66906     15077  TIP3      H1            -30.0275859776        5.5088758812      -45.9971427583  TIP3      14885           0.0000000000
     66907     15077  TIP3      H2            -30.2119361768        7.0273903890      -45.8845489440  TIP3      14885           0.0000000000
     66908     15078  TIP3      OH2           -29.7371637587        4.5987889872      -47.7804613700  TIP3      14886           0.0000000000
     66909     15078  TIP3      H1            -29.2276082401        5.0642630769      -48.4864304697  TIP3      14886           0.0000000000
     66910     15078  TIP3      H2            -30.6314427688        4.5200565464      -48.1884379776  TIP3      14886           0.0000000000
     66911     15079  TIP3      OH2           -28.2056938829       10.0868661152      -47.5377521518  TIP3      14887           0.0000000000
     66912     15079  TIP3      H1            -27.4501145163        9.9228077950      -48.1116155561  TIP3      14887           0.0000000000
     66913     15079  TIP3      H2            -28.5680049381       10.9218153096      -47.8776727689  TIP3      14887           0.0000000000
     66914     15080  TIP3      OH2           -23.8085864517        7.8392978718      -42.5813987236  TIP3      14888           0.0000000000
     66915     15080  TIP3      H1            -23.5719156278        6.9042825768      -42.6699999225  TIP3      14888           0.0000000000
     66916     15080  TIP3      H2            -22.9436252160        8.2827376721      -42.5453004743  TIP3      14888           0.0000000000
     66917     15081  TIP3      OH2           -22.4644044498       10.6334936038      -44.4126092205  TIP3      14889           0.0000000000
     66918     15081  TIP3      H1            -22.7176115013       11.3546846793      -45.0295700857  TIP3      14889           0.0000000000
     66919     15081  TIP3      H2            -21.5084660170       10.6021762128      -44.6012621953  TIP3      14889           0.0000000000
     66920     15082  TIP3      OH2           -31.7124119211        7.4808952222      -43.4290791579  TIP3      14890           0.0000000000
     66921     15082  TIP3      H1            -32.4725013741        6.8768508790      -43.5813228968  TIP3      14890           0.0000000000
     66922     15082  TIP3      H2            -31.0476151781        7.0985809441      -44.0300581164  TIP3      14890           0.0000000000
     66923     15083  TIP3      OH2           -28.9534081358        2.0362710283      -47.3952404048  TIP3      14891           0.0000000000
     66924     15083  TIP3      H1            -29.1363010736        2.9986329147      -47.4917980938  TIP3      14891           0.0000000000
     66925     15083  TIP3      H2            -29.7014596244        1.6677408163      -47.8970495063  TIP3      14891           0.0000000000
     66926     15084  TIP3      OH2           -27.6748670823        6.3639022031      -43.7658354060  TIP3      14892           0.0000000000
     66927     15084  TIP3      H1            -27.9965661053        6.1318433325      -42.8719166758  TIP3      14892           0.0000000000
     66928     15084  TIP3      H2            -28.4611874955        6.1628290780      -44.3069236114  TIP3      14892           0.0000000000
     66929     15085  TIP3      OH2           -24.9607129252        5.5092769684      -44.6755605412  TIP3      14893           0.0000000000
     66930     15085  TIP3      H1            -25.9260416487        5.5620354013      -44.5675017651  TIP3      14893           0.0000000000
     66931     15085  TIP3      H2            -24.6970466792        4.8677951951      -43.9880591529  TIP3      14893           0.0000000000
     66932     15086  TIP3      OH2           -23.3791648718        4.1270808816      -42.7776958944  TIP3      14894           0.0000000000
     66933     15086  TIP3      H1            -23.4273477032        3.1493483607      -42.7463404340  TIP3      14894           0.0000000000
     66934     15086  TIP3      H2            -23.6277670552        4.4199091187      -41.8782022996  TIP3      14894           0.0000000000
     66935     15087  TIP3      OH2           -33.4550127843        5.3779895814      -43.6271858895  TIP3      14895           0.0000000000
     66936     15087  TIP3      H1            -33.3527341353        4.6454063055      -44.2607370234  TIP3      14895           0.0000000000
     66937     15087  TIP3      H2            -33.6721721795        4.9213514274      -42.7939675638  TIP3      14895           0.0000000000
     66938     15088  TIP3      OH2           -28.7381013853        1.4287322861      -44.6943430081  TIP3      14896           0.0000000000
     66939     15088  TIP3      H1            -28.0586129668        0.7248323088      -44.7115592656  TIP3      14896           0.0000000000
     66940     15088  TIP3      H2            -28.8527495232        1.5712063408      -45.6545412874  TIP3      14896           0.0000000000
     66941     15089  TIP3      OH2           -28.3763486949        3.0412691432      -42.5773352769  TIP3      14897           0.0000000000
     66942     15089  TIP3      H1            -28.5497392539        2.5362443601      -43.4104373583  TIP3      14897           0.0000000000
     66943     15089  TIP3      H2            -28.9755680295        3.8061819813      -42.6784349265  TIP3      14897           0.0000000000
     66944     15090  TIP3      OH2           -28.9103757406       19.9559979240      -59.4031611992  TIP3      14898           0.0000000000
     66945     15090  TIP3      H1            -27.9435927215       20.0405387992      -59.3359176794  TIP3      14898           0.0000000000
     66946     15090  TIP3      H2            -29.0559964821       20.5568760235      -60.1426725560  TIP3      14898           0.0000000000
     66947     15091  TIP3      OH2           -35.3164076291       14.5295268232      -59.9210570514  TIP3      14899           0.0000000000
     66948     15091  TIP3      H1            -34.3550255639       14.6423889123      -59.7478488081  TIP3      14899           0.0000000000
     66949     15091  TIP3      H2            -35.2798052021       13.8870393823      -60.6554259508  TIP3      14899           0.0000000000
     66950     15092  TIP3      OH2            36.8614502762       20.0763895319      -55.1359348148  TIP3      14900           0.0000000000
     66951     15092  TIP3      H1             35.9521202132       19.8673078298      -55.4423037694  TIP3      14900           0.0000000000
     66952     15092  TIP3      H2             36.9510026791       19.4417665804      -54.3846514855  TIP3      14900           0.0000000000
     66953     15093  TIP3      OH2           -35.7242536245       18.0893557765      -53.1405751261  TIP3      14901           0.0000000000
     66954     15093  TIP3      H1            -36.0814969165       17.2015783166      -52.9094475360  TIP3      14901           0.0000000000
     66955     15093  TIP3      H2            -35.4785095496       18.3693748205      -52.2395095964  TIP3      14901           0.0000000000
     66956     15094  TIP3      OH2           -18.2132715867       18.8464340625      -50.1638827160  TIP3      14902           0.0000000000
     66957     15094  TIP3      H1            -18.1836743271       19.0077365124      -49.2048998049  TIP3      14902           0.0000000000
     66958     15094  TIP3      H2            -17.5093864155       19.4291827302      -50.4668895973  TIP3      14902           0.0000000000
     66959     15095  TIP3      OH2           -18.6410685541       18.4414348916      -47.2167025274  TIP3      14903           0.0000000000
     66960     15095  TIP3      H1            -19.1132095858       17.6727766589      -47.5976649908  TIP3      14903           0.0000000000
     66961     15095  TIP3      H2            -18.1534458386       17.9946509735      -46.5048871778  TIP3      14903           0.0000000000
     66962     15096  TIP3      OH2           -20.1946629829       14.1652515874      -42.5430020636  TIP3      14904           0.0000000000
     66963     15096  TIP3      H1            -21.1010296628       14.1402011994      -42.1788418165  TIP3      14904           0.0000000000
     66964     15096  TIP3      H2            -19.8214957846       14.9704344511      -42.1326614463  TIP3      14904           0.0000000000
     66965     15097  TIP3      OH2           -18.8812366495       12.4931333317      -57.1175655335  TIP3      14905           0.0000000000
     66966     15097  TIP3      H1            -18.0140662807       12.8829001677      -56.9305462973  TIP3      14905           0.0000000000
     66967     15097  TIP3      H2            -18.8966285340       11.7741388717      -56.4484483936  TIP3      14905           0.0000000000
     66968     15098  TIP3      OH2           -18.5179213397       10.5683679105      -55.2258292487  TIP3      14906           0.0000000000
     66969     15098  TIP3      H1            -19.2710440867       10.0705092861      -54.8354295315  TIP3      14906           0.0000000000
     66970     15098  TIP3      H2            -17.9218124177       10.6989027079      -54.4627348948  TIP3      14906           0.0000000000
     66971     15099  TIP3      OH2           -18.7628629689       13.2645895871      -50.2421512685  TIP3      14907           0.0000000000
     66972     15099  TIP3      H1            -17.9502299454       12.8858987349      -50.6240852331  TIP3      14907           0.0000000000
     66973     15099  TIP3      H2            -18.6172647382       14.2170570277      -50.4151295433  TIP3      14907           0.0000000000
     66974     15100  TIP3      OH2           -20.2035318937       16.1705168215      -47.9757842362  TIP3      14908           0.0000000000
     66975     15100  TIP3      H1            -20.8942904468       16.5108019528      -47.3870095452  TIP3      14908           0.0000000000
     66976     15100  TIP3      H2            -20.7520950380       15.7668496471      -48.6829631467  TIP3      14908           0.0000000000
     66977     15101  TIP3      OH2           -18.2200048201       10.3917191588      -58.8370186516  TIP3      14909           0.0000000000
     66978     15101  TIP3      H1            -18.7862468340       10.7333366859      -59.5609327412  TIP3      14909           0.0000000000
     66979     15101  TIP3      H2            -18.3192137147       11.1051933130      -58.1792433409  TIP3      14909           0.0000000000
     66980     15102  TIP3      OH2           -19.8427963798        7.6176659866      -60.3260528360  TIP3      14910           0.0000000000
     66981     15102  TIP3      H1            -19.7712381590        8.2855159666      -61.0186379358  TIP3      14910           0.0000000000
     66982     15102  TIP3      H2            -20.0313834296        6.7959926733      -60.8202889412  TIP3      14910           0.0000000000
     66983     15103  TIP3      OH2           -20.6979158551        9.0403994432      -54.6594654447  TIP3      14911           0.0000000000
     66984     15103  TIP3      H1            -20.8460528950        8.0860078446      -54.6986578972  TIP3      14911           0.0000000000
     66985     15103  TIP3      H2            -21.0303024581        9.2564892114      -53.7696012687  TIP3      14911           0.0000000000
     66986     15104  TIP3      OH2           -35.6770329559       11.1113293785      -50.6790700073  TIP3      14912           0.0000000000
     66987     15104  TIP3      H1            -35.4738370968       11.0716945674      -51.6372109462  TIP3      14912           0.0000000000
     66988     15104  TIP3      H2            -34.7971956216       11.0022278677      -50.2593695528  TIP3      14912           0.0000000000
     66989     15105  TIP3      OH2           -19.8387380680       11.0090473314      -44.9688462182  TIP3      14913           0.0000000000
     66990     15105  TIP3      H1            -19.2286137359       10.2521732490      -44.8365946351  TIP3      14913           0.0000000000
     66991     15105  TIP3      H2            -19.2343999680       11.7819973976      -44.9664994322  TIP3      14913           0.0000000000
     66992     15106  TIP3      OH2           -18.3370433847        8.8879005037      -44.3183004001  TIP3      14914           0.0000000000
     66993     15106  TIP3      H1            -19.2200162768        8.4892150997      -44.4732241007  TIP3      14914           0.0000000000
     66994     15106  TIP3      H2            -17.7667754833        8.1050253034      -44.3949445575  TIP3      14914           0.0000000000
     66995     15107  TIP3      OH2           -20.5957416229        5.0955753028      -61.1886724238  TIP3      14915           0.0000000000
     66996     15107  TIP3      H1            -20.0091908957        4.6547318819      -60.5454543902  TIP3      14915           0.0000000000
     66997     15107  TIP3      H2            -21.4616510697        4.6780128775      -61.0364365457  TIP3      14915           0.0000000000
     66998     15108  TIP3      OH2           -21.0543208895        6.6205888220      -56.2459497394  TIP3      14916           0.0000000000
     66999     15108  TIP3      H1            -20.7370038212        5.7007463830      -56.0828670935  TIP3      14916           0.0000000000
     67000     15108  TIP3      H2            -20.2307787745        7.0298120431      -56.5464914663  TIP3      14916           0.0000000000
     67001     15109  TIP3      OH2           -20.3921412808        7.1680625807      -50.7561043527  TIP3      14917           0.0000000000
     67002     15109  TIP3      H1            -19.4324675310        7.3984412855      -50.7707494642  TIP3      14917           0.0000000000
     67003     15109  TIP3      H2            -20.5804129573        7.3083130811      -49.8170517646  TIP3      14917           0.0000000000
     67004     15110  TIP3      OH2           -20.3243902306        7.8877698465      -47.9687812808  TIP3      14918           0.0000000000
     67005     15110  TIP3      H1            -21.2098674696        8.1773191334      -47.6600714034  TIP3      14918           0.0000000000
     67006     15110  TIP3      H2            -19.8926344131        8.7475267301      -48.1979231741  TIP3      14918           0.0000000000
     67007     15111  TIP3      OH2           -35.8029364136        6.2965136405      -44.4674376389  TIP3      14919           0.0000000000
     67008     15111  TIP3      H1            -34.9172040645        6.1114518795      -44.1283664695  TIP3      14919           0.0000000000
     67009     15111  TIP3      H2            -36.3817790960        5.6146548948      -44.0455152866  TIP3      14919           0.0000000000
     67010     15112  TIP3      OH2           -18.0544391516        1.9543424391      -42.6373251013  TIP3      14920           0.0000000000
     67011     15112  TIP3      H1            -17.7020772331        1.2930727558      -43.2578471934  TIP3      14920           0.0000000000
     67012     15112  TIP3      H2            -17.9525252499        2.7687801465      -43.1694341416  TIP3      14920           0.0000000000
     67013     15113  TIP3      OH2           -20.3553452539        3.9115086292      -56.1552537808  TIP3      14921           0.0000000000
     67014     15113  TIP3      H1            -20.1458406367        3.4758630791      -55.3014354718  TIP3      14921           0.0000000000
     67015     15113  TIP3      H2            -20.9581581621        3.2732247214      -56.5918561226  TIP3      14921           0.0000000000
     67016     15114  TIP3      OH2           -34.8357336035        4.6774002391      -51.6378514866  TIP3      14922           0.0000000000
     67017     15114  TIP3      H1            -34.3762214291        3.8800483789      -51.3117229519  TIP3      14922           0.0000000000
     67018     15114  TIP3      H2            -34.3328134845        5.3811130090      -51.1930940131  TIP3      14922           0.0000000000
     67019     15115  TIP3      OH2           -36.0169502441        8.4715377044      -50.2009376615  TIP3      14923           0.0000000000
     67020     15115  TIP3      H1            -35.9804966198        8.0427938626      -51.0816376338  TIP3      14923           0.0000000000
     67021     15115  TIP3      H2            -35.9345619030        9.3868825776      -50.4791983842  TIP3      14923           0.0000000000
     67022     15116  TIP3      OH2           -18.5340942701        4.0524598925      -44.2822256202  TIP3      14924           0.0000000000
     67023     15116  TIP3      H1            -19.4725744697        4.3241058697      -44.3339429029  TIP3      14924           0.0000000000
     67024     15116  TIP3      H2            -18.5005773221        3.5011239483      -45.0788497684  TIP3      14924           0.0000000000
     67025     15117  TIP3      OH2           -18.5430824813        3.9446406393      -59.5995739067  TIP3      14925           0.0000000000
     67026     15117  TIP3      H1            -18.1332157652        3.2327963591      -60.1399916213  TIP3      14925           0.0000000000
     67027     15117  TIP3      H2            -17.8399564217        4.6070765062      -59.5582687530  TIP3      14925           0.0000000000
     67028     15118  TIP3      OH2           -35.7591816840        3.9326406272      -56.9204593585  TIP3      14926           0.0000000000
     67029     15118  TIP3      H1            -36.7037461880        4.1176700222      -56.7938845011  TIP3      14926           0.0000000000
     67030     15118  TIP3      H2            -35.5358905072        4.6922560866      -57.4949556213  TIP3      14926           0.0000000000
     67031     15119  TIP3      OH2           -21.4919109435       18.9314275198      -54.5335410215  TIP3      14927           0.0000000000
     67032     15119  TIP3      H1            -20.8076081230       18.6275282654      -55.1571207984  TIP3      14927           0.0000000000
     67033     15119  TIP3      H2            -20.9752164526       19.4282196105      -53.8824209284  TIP3      14927           0.0000000000
     67034     15120  TIP3      OH2            37.0220191375        2.6037964864      -47.9827860001  TIP3      14928           0.0000000000
     67035     15120  TIP3      H1             36.2387669912        2.3898453036      -47.4522372770  TIP3      14928           0.0000000000
     67036     15120  TIP3      H2             36.5428675267        3.1179289401      -48.6529061343  TIP3      14928           0.0000000000
     67037     15121  TIP3      OH2           -34.0745179783       15.8596112335      -44.0178009609  TIP3      14929           0.0000000000
     67038     15121  TIP3      H1            -34.9205395650       16.0353930011      -44.4466868435  TIP3      14929           0.0000000000
     67039     15121  TIP3      H2            -34.3298114094       15.7582391580      -43.1002943029  TIP3      14929           0.0000000000
     67040     15122  TIP3      OH2           -31.1079379102       16.8593513690      -47.7223428081  TIP3      14930           0.0000000000
     67041     15122  TIP3      H1            -31.5049269294       17.6957203416      -48.0196538890  TIP3      14930           0.0000000000
     67042     15122  TIP3      H2            -30.1992916690       16.9479509896      -48.0649307267  TIP3      14930           0.0000000000
     67043     15123  TIP3      OH2           -26.8154602678       18.2593880145      -44.8510015140  TIP3      14931           0.0000000000
     67044     15123  TIP3      H1            -26.6860620152       17.9071266535      -43.9398912700  TIP3      14931           0.0000000000
     67045     15123  TIP3      H2            -25.9135029280       18.5640707162      -45.0877009595  TIP3      14931           0.0000000000
     67046     15124  TIP3      OH2           -24.5327121492       19.5323327025      -45.5349999938  TIP3      14932           0.0000000000
     67047     15124  TIP3      H1            -23.8010267288       18.9441669643      -45.7726584187  TIP3      14932           0.0000000000
     67048     15124  TIP3      H2            -24.1566505168       19.9688077192      -44.7403247589  TIP3      14932           0.0000000000
     67049     15125  TIP3      OH2           -19.5127763007        2.1424343940      -46.4286628724  TIP3      14933           0.0000000000
     67050     15125  TIP3      H1            -20.3416510578        2.4411926858      -46.8407194696  TIP3      14933           0.0000000000
     67051     15125  TIP3      H2            -19.3453810909        1.3194153242      -46.9461806192  TIP3      14933           0.0000000000
     67052     15126  TIP3      OH2           -33.6853664854       20.0795852181      -47.7349621784  TIP3      14934           0.0000000000
     67053     15126  TIP3      H1            -34.4349377854       20.5690284878      -48.1282737721  TIP3      14934           0.0000000000
     67054     15126  TIP3      H2            -34.0317613320       19.8871836964      -46.8493054298  TIP3      14934           0.0000000000
     67055     15127  TIP3      OH2           -31.2293691147       19.6676628870      -48.6846214890  TIP3      14935           0.0000000000
     67056     15127  TIP3      H1            -32.1329089236       19.7876676215      -48.3018766873  TIP3      14935           0.0000000000
     67057     15127  TIP3      H2            -31.2886964632       20.2530767931      -49.4598891474  TIP3      14935           0.0000000000
     67058     15128  TIP3      OH2           -26.5388309929       19.5681151590      -49.5158559969  TIP3      14936           0.0000000000
     67059     15128  TIP3      H1            -27.0039762476       20.1224770292      -50.1599094997  TIP3      14936           0.0000000000
     67060     15128  TIP3      H2            -26.4079425474       20.1987004543      -48.7742516991  TIP3      14936           0.0000000000
     67061     15129  TIP3      OH2           -24.2545578897       18.3717709065      -48.4809012924  TIP3      14937           0.0000000000
     67062     15129  TIP3      H1            -25.1070207547       18.6499288799      -48.8537783586  TIP3      14937           0.0000000000
     67063     15129  TIP3      H2            -23.7673639604       19.2086461386      -48.5754926696  TIP3      14937           0.0000000000
     67064     15130  TIP3      OH2           -21.6719228233       19.9422283391      -48.2634572478  TIP3      14938           0.0000000000
     67065     15130  TIP3      H1            -21.7253047219       20.9035647506      -48.4894713275  TIP3      14938           0.0000000000
     67066     15130  TIP3      H2            -21.4539421056       19.5704731480      -49.1408956943  TIP3      14938           0.0000000000
     67067     15131  TIP3      OH2           -34.3101210847       18.7264075281      -50.8222625287  TIP3      14939           0.0000000000
     67068     15131  TIP3      H1            -34.3142937474       18.2772311277      -49.9516708575  TIP3      14939           0.0000000000
     67069     15131  TIP3      H2            -33.4934591993       18.3508925963      -51.2102767301  TIP3      14939           0.0000000000
     67070     15132  TIP3      OH2           -32.2103209054       17.4406968229      -52.1517482079  TIP3      14940           0.0000000000
     67071     15132  TIP3      H1            -32.3648444500       16.5030034377      -51.9195532004  TIP3      14940           0.0000000000
     67072     15132  TIP3      H2            -31.3429376355       17.5917549516      -51.7149907393  TIP3      14940           0.0000000000
     67073     15133  TIP3      OH2           -29.5940957142       17.9130007193      -51.2774680680  TIP3      14941           0.0000000000
     67074     15133  TIP3      H1            -29.4213231621       16.9915013313      -51.5421441376  TIP3      14941           0.0000000000
     67075     15133  TIP3      H2            -29.5266863836       17.8633052583      -50.3129926428  TIP3      14941           0.0000000000
     67076     15134  TIP3      OH2           -26.1236107091        3.5680540676      -52.1430795536  TIP3      14942           0.0000000000
     67077     15134  TIP3      H1            -26.8003945053        2.9280159685      -51.8636095598  TIP3      14942           0.0000000000
     67078     15134  TIP3      H2            -25.5716768589        3.0352589204      -52.7278916297  TIP3      14942           0.0000000000
     67079     15135  TIP3      OH2           -20.9869830866        1.6162676775      -52.0828961169  TIP3      14943           0.0000000000
     67080     15135  TIP3      H1            -20.3754003892        2.2099826314      -52.5885344882  TIP3      14943           0.0000000000
     67081     15135  TIP3      H2            -21.8694482218        1.9780670677      -52.3111873995  TIP3      14943           0.0000000000
     67082     15136  TIP3      OH2           -19.3150609889        2.8677792339      -53.8034735413  TIP3      14944           0.0000000000
     67083     15136  TIP3      H1            -18.6298800793        2.2915595963      -54.2200812661  TIP3      14944           0.0000000000
     67084     15136  TIP3      H2            -18.8099308281        3.7045447206      -53.6973251647  TIP3      14944           0.0000000000
     67085     15137  TIP3      OH2           -33.7443817042        2.1883201141      -54.2694028267  TIP3      14945           0.0000000000
     67086     15137  TIP3      H1            -34.5222208920        1.9865988581      -54.8326461793  TIP3      14945           0.0000000000
     67087     15137  TIP3      H2            -33.2535214709        1.3471643824      -54.3692497745  TIP3      14945           0.0000000000
     67088     15138  TIP3      OH2           -34.9681121260        1.9256204112      -58.6208419173  TIP3      14946           0.0000000000
     67089     15138  TIP3      H1            -34.4551309409        2.5968051937      -59.1030226840  TIP3      14946           0.0000000000
     67090     15138  TIP3      H2            -35.5281911510        2.4950096870      -58.0575760726  TIP3      14946           0.0000000000
     67091     15139  TIP3      OH2           -29.2829382971        2.1210052164      -54.5108949736  TIP3      14947           0.0000000000
     67092     15139  TIP3      H1            -28.3809396415        2.4759677435      -54.5897921779  TIP3      14947           0.0000000000
     67093     15139  TIP3      H2            -29.3154557644        1.9016375806      -53.5803833477  TIP3      14947           0.0000000000
     67094     15140  TIP3      OH2           -23.5664038682        2.1386069239      -52.8870004487  TIP3      14948           0.0000000000
     67095     15140  TIP3      H1            -23.6188388982        2.2524078760      -53.8447776766  TIP3      14948           0.0000000000
     67096     15140  TIP3      H2            -23.9467518707        1.2351639737      -52.7583722612  TIP3      14948           0.0000000000
     67097     15141  TIP3      OH2           -22.3006068885        2.1683253303      -57.2018250629  TIP3      14949           0.0000000000
     67098     15141  TIP3      H1            -23.0495257895        2.7622949062      -57.3605253157  TIP3      14949           0.0000000000
     67099     15141  TIP3      H2            -22.7406182846        1.3162817489      -56.9683591452  TIP3      14949           0.0000000000
     67100     15142  TIP3      OH2           -35.0657445802       17.9335860322      -57.5201956844  TIP3      14950           0.0000000000
     67101     15142  TIP3      H1            -35.6726369180       17.9048266215      -58.2744660309  TIP3      14950           0.0000000000
     67102     15142  TIP3      H2            -35.0458125409       18.8893643639      -57.3803457615  TIP3      14950           0.0000000000
     67103     15143  TIP3      OH2           -33.1657010475        3.8958941788      -60.0317824685  TIP3      14951           0.0000000000
     67104     15143  TIP3      H1            -32.6408120530        3.2933679203      -60.5899746937  TIP3      14951           0.0000000000
     67105     15143  TIP3      H2            -32.4632115725        4.2050454562      -59.4305085554  TIP3      14951           0.0000000000
     67106     15144  TIP3      OH2           -28.1297888462        4.1340634390      -57.6609269210  TIP3      14952           0.0000000000
     67107     15144  TIP3      H1            -27.8770909020        3.5544363222      -56.9230671214  TIP3      14952           0.0000000000
     67108     15144  TIP3      H2            -28.0594997122        5.0004221954      -57.2022987372  TIP3      14952           0.0000000000
     67109     15145  TIP3      OH2           -26.1964077428       19.2086159245      -59.2127389114  TIP3      14953           0.0000000000
     67110     15145  TIP3      H1            -25.2786322884       19.4343066819      -59.4346691617  TIP3      14953           0.0000000000
     67111     15145  TIP3      H2            -26.4170230852       18.6881118832      -60.0136324729  TIP3      14953           0.0000000000
     67112     15146  TIP3      OH2           -19.5041224583       18.7084400277      -56.4920288534  TIP3      14954           0.0000000000
     67113     15146  TIP3      H1            -19.6926723567       17.9259775636      -57.0642473540  TIP3      14954           0.0000000000
     67114     15146  TIP3      H2            -19.5692163777       19.4432610890      -57.1359572020  TIP3      14954           0.0000000000
     67115     15147  TIP3      OH2           -33.9240366065        2.7563922713      -44.8078993415  TIP3      14955           0.0000000000
     67116     15147  TIP3      H1            -34.2588092058        1.9065215291      -44.4621005221  TIP3      14955           0.0000000000
     67117     15147  TIP3      H2            -32.9957501449        2.6945728041      -44.4737939018  TIP3      14955           0.0000000000
     67118     15148  TIP3      OH2           -31.8649930477        2.1109387637      -43.2114727550  TIP3      14956           0.0000000000
     67119     15148  TIP3      H1            -30.9723011237        1.7716749982      -43.4187026755  TIP3      14956           0.0000000000
     67120     15148  TIP3      H2            -32.2544388837        1.3100236442      -42.8121166168  TIP3      14956           0.0000000000
     67121     15149  TIP3      OH2           -33.2759575999       18.8530682873      -60.6204877164  TIP3      14957           0.0000000000
     67122     15149  TIP3      H1            -33.5246974646       19.1291566122      -59.7295398568  TIP3      14957           0.0000000000
     67123     15149  TIP3      H2            -32.4676794964       18.3319861040      -60.4521188009  TIP3      14957           0.0000000000
     67124     15150  TIP3      OH2           -23.4660523896        1.4065914075      -43.0513282357  TIP3      14958           0.0000000000
     67125     15150  TIP3      H1            -23.3710800686        0.9334046601      -42.2031377906  TIP3      14958           0.0000000000
     67126     15150  TIP3      H2            -22.5479322214        1.3726577110      -43.3958410054  TIP3      14958           0.0000000000
     67127     15151  TIP3      OH2           -20.2502766650       17.4581134604      -44.4099710307  TIP3      14959           0.0000000000
     67128     15151  TIP3      H1            -21.0518036269       17.3201139865      -44.9616434640  TIP3      14959           0.0000000000
     67129     15151  TIP3      H2            -20.3691513583       18.4064407802      -44.2009956919  TIP3      14959           0.0000000000
     67130     15152  TIP3      OH2            -5.8881353339       11.3465734144      -54.3932695807  TIP3      14960           0.0000000000
     67131     15152  TIP3      H1             -5.7876926877       12.3142311306      -54.5125450320  TIP3      14960           0.0000000000
     67132     15152  TIP3      H2             -6.4964357592       11.0855252562      -55.1013061756  TIP3      14960           0.0000000000
     67133     15153  TIP3      OH2            -7.0046274192       10.6133235180      -50.9573650616  TIP3      14961           0.0000000000
     67134     15153  TIP3      H1             -6.9502689326        9.9705873961      -50.2277500257  TIP3      14961           0.0000000000
     67135     15153  TIP3      H2             -7.2885344293       10.0402203611      -51.6896163794  TIP3      14961           0.0000000000
     67136     15154  TIP3      OH2           -14.5950269273       10.2639177967      -49.3994311082  TIP3      14962           0.0000000000
     67137     15154  TIP3      H1            -14.5219722634        9.5820438872      -48.6965742875  TIP3      14962           0.0000000000
     67138     15154  TIP3      H2            -13.8512322218       10.8379530041      -49.1655366007  TIP3      14962           0.0000000000
     67139     15155  TIP3      OH2            -3.3058378595       13.5414704438      -52.6634382891  TIP3      14963           0.0000000000
     67140     15155  TIP3      H1             -3.6514710348       12.8098518617      -52.1448711077  TIP3      14963           0.0000000000
     67141     15155  TIP3      H2             -3.2480962145       14.2440050934      -51.9877092633  TIP3      14963           0.0000000000
     67142     15156  TIP3      OH2           -13.6675989918       14.7227033347      -50.9156140432  TIP3      14964           0.0000000000
     67143     15156  TIP3      H1            -13.9951378578       13.8456940549      -51.1932531834  TIP3      14964           0.0000000000
     67144     15156  TIP3      H2            -12.7239115385       14.5274584066      -50.8203026548  TIP3      14964           0.0000000000
     67145     15157  TIP3      OH2           -17.0302465804        8.2679152552      -55.3900720995  TIP3      14965           0.0000000000
     67146     15157  TIP3      H1            -17.4698333122        9.1375783841      -55.4598061067  TIP3      14965           0.0000000000
     67147     15157  TIP3      H2            -17.5935678705        7.7288212518      -55.9619528942  TIP3      14965           0.0000000000
     67148     15158  TIP3      OH2           -16.3122895233       10.5024714734      -53.2455550913  TIP3      14966           0.0000000000
     67149     15158  TIP3      H1            -16.0489757319        9.6747686809      -52.8004015333  TIP3      14966           0.0000000000
     67150     15158  TIP3      H2            -15.6232530129       10.6046779503      -53.9174961544  TIP3      14966           0.0000000000
     67151     15159  TIP3      OH2            -6.1476059427       18.6982240055      -52.4161422848  TIP3      14967           0.0000000000
     67152     15159  TIP3      H1             -5.5014782117       18.0072975791      -52.7033670704  TIP3      14967           0.0000000000
     67153     15159  TIP3      H2             -6.3670926128       18.3590038437      -51.5484311789  TIP3      14967           0.0000000000
     67154     15160  TIP3      OH2            -8.5648153439       13.0287316806      -50.5588938078  TIP3      14968           0.0000000000
     67155     15160  TIP3      H1             -8.1927302209       12.2897962490      -51.0447269968  TIP3      14968           0.0000000000
     67156     15160  TIP3      H2             -7.8150207986       13.1660484229      -49.9362364193  TIP3      14968           0.0000000000
     67157     15161  TIP3      OH2             0.0138010143        4.6535632163      -49.7444089205  TIP3      14969           0.0000000000
     67158     15161  TIP3      H1              0.1944850970        5.2373658458      -48.9762879259  TIP3      14969           0.0000000000
     67159     15161  TIP3      H2              0.5848496273        5.0719326377      -50.4044752870  TIP3      14969           0.0000000000
     67160     15162  TIP3      OH2            -5.4118261340        7.4588124143      -50.1528731164  TIP3      14970           0.0000000000
     67161     15162  TIP3      H1             -5.2443281787        6.4996875971      -50.1472852685  TIP3      14970           0.0000000000
     67162     15162  TIP3      H2             -5.5148996443        7.5974668813      -51.1143395391  TIP3      14970           0.0000000000
     67163     15163  TIP3      OH2           -12.2712627049        5.5376350416      -52.9641305696  TIP3      14971           0.0000000000
     67164     15163  TIP3      H1            -12.2074889182        6.4017841798      -53.4136592551  TIP3      14971           0.0000000000
     67165     15163  TIP3      H2            -12.7470989458        4.9864025768      -53.6083498511  TIP3      14971           0.0000000000
     67166     15164  TIP3      OH2            -4.5548289837        5.6185417050      -54.5716477713  TIP3      14972           0.0000000000
     67167     15164  TIP3      H1             -3.9074873158        5.3105322057      -53.8963402328  TIP3      14972           0.0000000000
     67168     15164  TIP3      H2             -3.9942014274        6.2055334434      -55.0983141500  TIP3      14972           0.0000000000
     67169     15165  TIP3      OH2           -15.6726568817        7.9585679797      -52.2057571344  TIP3      14973           0.0000000000
     67170     15165  TIP3      H1            -15.0052442007        7.4137533747      -51.7485676212  TIP3      14973           0.0000000000
     67171     15165  TIP3      H2            -15.5697591660        7.6430168347      -53.1158839433  TIP3      14973           0.0000000000
     67172     15166  TIP3      OH2           -10.4796410611        9.5395222458      -52.8852188354  TIP3      14974           0.0000000000
     67173     15166  TIP3      H1             -9.8519176957        8.9131720966      -52.4764212594  TIP3      14974           0.0000000000
     67174     15166  TIP3      H2            -11.0269931599        8.8825032223      -53.3698903041  TIP3      14974           0.0000000000
     67175     15167  TIP3      OH2             0.4571410782        6.0543659392      -47.4651076256  TIP3      14975           0.0000000000
     67176     15167  TIP3      H1             -0.1476910992        6.8202698651      -47.5780339148  TIP3      14975           0.0000000000
     67177     15167  TIP3      H2              0.4905980025        5.9753598326      -46.5052554837  TIP3      14975           0.0000000000
     67178     15168  TIP3      OH2           -13.3883600852        4.4470896416      -48.8988182379  TIP3      14976           0.0000000000
     67179     15168  TIP3      H1            -13.6710412186        5.0187549191      -49.6433671438  TIP3      14976           0.0000000000
     67180     15168  TIP3      H2            -14.0659477401        4.6743501232      -48.2161310701  TIP3      14976           0.0000000000
     67181     15169  TIP3      OH2            -6.2210347304       13.8977629583      -55.3180752564  TIP3      14977           0.0000000000
     67182     15169  TIP3      H1             -6.3102356520       13.6726310513      -56.2598408127  TIP3      14977           0.0000000000
     67183     15169  TIP3      H2             -6.3759328960       14.8750574508      -55.3171188272  TIP3      14977           0.0000000000
     67184     15170  TIP3      OH2           -10.8837480897       12.0940269006      -48.7014235730  TIP3      14978           0.0000000000
     67185     15170  TIP3      H1            -11.5846551615       12.7232311472      -48.4254089625  TIP3      14978           0.0000000000
     67186     15170  TIP3      H2            -10.1657834714       12.7055986457      -48.8976807852  TIP3      14978           0.0000000000
     67187     15171  TIP3      OH2            -2.7483757110        4.9743854251      -52.5752233571  TIP3      14979           0.0000000000
     67188     15171  TIP3      H1             -2.9696173556        4.2052064490      -52.0426353246  TIP3      14979           0.0000000000
     67189     15171  TIP3      H2             -2.0783688796        5.4094200871      -52.0208804148  TIP3      14979           0.0000000000
     67190     15172  TIP3      OH2           -13.8217249341        6.3079866227      -50.8614370606  TIP3      14980           0.0000000000
     67191     15172  TIP3      H1            -13.1921875354        6.9941367306      -50.5437826379  TIP3      14980           0.0000000000
     67192     15172  TIP3      H2            -13.3018150406        5.8927411195      -51.5874083496  TIP3      14980           0.0000000000
     67193     15173  TIP3      OH2           -12.4270111070       14.0927322196      -47.8390096117  TIP3      14981           0.0000000000
     67194     15173  TIP3      H1            -12.4759170541       15.0073898436      -48.1765411992  TIP3      14981           0.0000000000
     67195     15173  TIP3      H2            -13.3098704254       14.0141024181      -47.3962204773  TIP3      14981           0.0000000000
     67196     15174  TIP3      OH2           -16.3423536189       13.7029365022      -57.0464236875  TIP3      14982           0.0000000000
     67197     15174  TIP3      H1            -16.5988273033       14.0413202272      -57.9230919781  TIP3      14982           0.0000000000
     67198     15174  TIP3      H2            -16.2733133738       14.5322194452      -56.5327488012  TIP3      14982           0.0000000000
     67199     15175  TIP3      OH2            -2.7398598621       15.3763933261      -50.2873674098  TIP3      14983           0.0000000000
     67200     15175  TIP3      H1             -3.7085452869       15.4889419035      -50.1684867267  TIP3      14983           0.0000000000
     67201     15175  TIP3      H2             -2.4706859080       16.2919894860      -50.4905208286  TIP3      14983           0.0000000000
     67202     15176  TIP3      OH2            -2.4172331820        3.6580845736      -48.8989102085  TIP3      14984           0.0000000000
     67203     15176  TIP3      H1             -3.1407917961        4.2917913716      -48.9914274582  TIP3      14984           0.0000000000
     67204     15176  TIP3      H2             -1.7027389598        4.0772592330      -49.4213470810  TIP3      14984           0.0000000000
     67205     15177  TIP3      OH2            -9.4511114141        1.7790413200      -51.4321251795  TIP3      14985           0.0000000000
     67206     15177  TIP3      H1             -9.5939173129        0.8152339455      -51.5045486069  TIP3      14985           0.0000000000
     67207     15177  TIP3      H2            -10.3292932624        2.0870028039      -51.1274733371  TIP3      14985           0.0000000000
     67208     15178  TIP3      OH2            -4.4829178339       17.1619414244      -53.7062363094  TIP3      14986           0.0000000000
     67209     15178  TIP3      H1             -4.0507691291       16.4404061517      -54.2071542395  TIP3      14986           0.0000000000
     67210     15178  TIP3      H2             -4.0435713143       17.9500594549      -54.0905753632  TIP3      14986           0.0000000000
     67211     15179  TIP3      OH2            -3.2738498118       15.0851893990      -55.1801358041  TIP3      14987           0.0000000000
     67212     15179  TIP3      H1             -3.5632599923       14.3864529702      -55.7860309434  TIP3      14987           0.0000000000
     67213     15179  TIP3      H2             -3.2355197751       14.5954443736      -54.3382520181  TIP3      14987           0.0000000000
     67214     15180  TIP3      OH2            -1.6546747096       13.6844544195      -46.6876948051  TIP3      14988           0.0000000000
     67215     15180  TIP3      H1             -1.5048726870       13.0290876268      -47.4049557486  TIP3      14988           0.0000000000
     67216     15180  TIP3      H2             -1.4449239311       14.5253516065      -47.1329050479  TIP3      14988           0.0000000000
     67217     15181  TIP3      OH2            -7.1476810214       10.6104971293      -56.8961818319  TIP3      14989           0.0000000000
     67218     15181  TIP3      H1             -7.8483015641       11.1377500736      -57.3244038687  TIP3      14989           0.0000000000
     67219     15181  TIP3      H2             -6.4476823290       10.6488605057      -57.5799825108  TIP3      14989           0.0000000000
     67220     15182  TIP3      OH2            -7.0764265763        9.1350360158      -59.9115424401  TIP3      14990           0.0000000000
     67221     15182  TIP3      H1             -6.3621059090        9.1312991060      -59.2564855280  TIP3      14990           0.0000000000
     67222     15182  TIP3      H2             -6.7668981089        8.4216784520      -60.4849215052  TIP3      14990           0.0000000000
     67223     15183  TIP3      OH2             0.2333737337        9.9946487273      -48.6467680952  TIP3      14991           0.0000000000
     67224     15183  TIP3      H1             -0.4224701851       10.7193169733      -48.6058436086  TIP3      14991           0.0000000000
     67225     15183  TIP3      H2              0.7308542534       10.2289804137      -49.4513728184  TIP3      14991           0.0000000000
     67226     15184  TIP3      OH2            -3.6921156917       10.7762434289      -56.0039240046  TIP3      14992           0.0000000000
     67227     15184  TIP3      H1             -4.4237514788       11.0159183588      -55.4008194166  TIP3      14992           0.0000000000
     67228     15184  TIP3      H2             -3.2222850691       10.0995284100      -55.4845619388  TIP3      14992           0.0000000000
     67229     15185  TIP3      OH2            -3.7749439723        8.9466013488      -46.8758719465  TIP3      14993           0.0000000000
     67230     15185  TIP3      H1             -3.7690877785        9.7668626421      -46.3550895214  TIP3      14993           0.0000000000
     67231     15185  TIP3      H2             -4.4041648493        9.2365532034      -47.5673697046  TIP3      14993           0.0000000000
     67232     15186  TIP3      OH2           -12.0290237092       11.4551907266      -54.0912761982  TIP3      14994           0.0000000000
     67233     15186  TIP3      H1            -12.4395715436       11.0599339126      -54.9056651154  TIP3      14994           0.0000000000
     67234     15186  TIP3      H2            -11.5129150257       10.6919279172      -53.7491070291  TIP3      14994           0.0000000000
     67235     15187  TIP3      OH2           -10.7470877403       14.8520203160      -51.4145559319  TIP3      14995           0.0000000000
     67236     15187  TIP3      H1            -10.8403489248       14.3079926681      -52.1922383209  TIP3      14995           0.0000000000
     67237     15187  TIP3      H2             -9.9985097420       14.4729357759      -50.9226260484  TIP3      14995           0.0000000000
     67238     15188  TIP3      OH2           -11.7672356635       10.1874793716      -50.4230270743  TIP3      14996           0.0000000000
     67239     15188  TIP3      H1            -11.2155930411       10.2704147785      -51.2176798251  TIP3      14996           0.0000000000
     67240     15188  TIP3      H2            -11.3814068840       10.8474889594      -49.8028500958  TIP3      14996           0.0000000000
     67241     15189  TIP3      OH2            -5.3364185796       15.7608918553      -49.7080533449  TIP3      14997           0.0000000000
     67242     15189  TIP3      H1             -5.6362697329       16.4005626537      -49.0588846463  TIP3      14997           0.0000000000
     67243     15189  TIP3      H2             -5.5915375741       14.9110301975      -49.2837410099  TIP3      14997           0.0000000000
     67244     15190  TIP3      OH2           -10.8115989922       14.6178690067      -45.7285933610  TIP3      14998           0.0000000000
     67245     15190  TIP3      H1            -11.2258990396       15.3570529102      -45.2378714285  TIP3      14998           0.0000000000
     67246     15190  TIP3      H2            -11.4848630741       14.4198318724      -46.4251642024  TIP3      14998           0.0000000000
     67247     15191  TIP3      OH2            -4.8314509697        9.9881865690      -58.3368874605  TIP3      14999           0.0000000000
     67248     15191  TIP3      H1             -4.2715867056       10.1574865695      -57.5387537457  TIP3      14999           0.0000000000
     67249     15191  TIP3      H2             -4.3776639603       10.4787237032      -59.0591881741  TIP3      14999           0.0000000000
     67250     15192  TIP3      OH2           -13.8691429785       10.7787790073      -46.5758334454  TIP3      15000           0.0000000000
     67251     15192  TIP3      H1            -13.8174690261       11.4406693996      -45.8595521120  TIP3      15000           0.0000000000
     67252     15192  TIP3      H2            -14.8120144677       10.8662351023      -46.7866082133  TIP3      15000           0.0000000000
     67253     15193  TIP3      OH2            -7.1626594197       16.6740462898      -54.8274893119  TIP3      15001           0.0000000000
     67254     15193  TIP3      H1             -6.6731401654       17.0167320453      -54.0705531784  TIP3      15001           0.0000000000
     67255     15193  TIP3      H2             -7.6602276444       17.4561119332      -55.1079430494  TIP3      15001           0.0000000000
     67256     15194  TIP3      OH2           -12.5652556817       16.6524127681      -44.9804840918  TIP3      15002           0.0000000000
     67257     15194  TIP3      H1            -12.6288415984       16.5554256965      -45.9451380186  TIP3      15002           0.0000000000
     67258     15194  TIP3      H2            -13.4949231858       16.5191577923      -44.7119474179  TIP3      15002           0.0000000000
     67259     15195  TIP3      OH2            -1.1041857455        1.7143681317      -58.4328122620  TIP3      15003           0.0000000000
     67260     15195  TIP3      H1             -2.0510290357        1.8288831382      -58.1936126101  TIP3      15003           0.0000000000
     67261     15195  TIP3      H2             -0.9021843631        2.5547049873      -58.8776993175  TIP3      15003           0.0000000000
     67262     15196  TIP3      OH2           -13.1282412103       10.4837088411      -56.4311650644  TIP3      15004           0.0000000000
     67263     15196  TIP3      H1            -13.4131634901       11.2461860798      -56.9805336574  TIP3      15004           0.0000000000
     67264     15196  TIP3      H2            -13.7616311661        9.8078307425      -56.6870401243  TIP3      15004           0.0000000000
     67265     15197  TIP3      OH2             0.0093398110       16.0719032040      -60.0859619065  TIP3      15005           0.0000000000
     67266     15197  TIP3      H1              0.1767705613       17.0133514325      -59.9150075138  TIP3      15005           0.0000000000
     67267     15197  TIP3      H2              0.9318660380       15.7552342608      -60.0883163078  TIP3      15005           0.0000000000
     67268     15198  TIP3      OH2           -17.0392927289       12.8930021010      -47.5681888647  TIP3      15006           0.0000000000
     67269     15198  TIP3      H1            -17.4791324551       12.8120055887      -48.4349122098  TIP3      15006           0.0000000000
     67270     15198  TIP3      H2            -16.9544453822       11.9439528286      -47.3550499434  TIP3      15006           0.0000000000
     67271     15199  TIP3      OH2           -17.2753115091       15.6291878667      -50.7965221843  TIP3      15007           0.0000000000
     67272     15199  TIP3      H1            -16.3169894000       15.5137446365      -50.8160996623  TIP3      15007           0.0000000000
     67273     15199  TIP3      H2            -17.3571609706       16.4470434084      -50.2910097688  TIP3      15007           0.0000000000
     67274     15200  TIP3      OH2             0.9658440228       16.3329160024      -45.1032880768  TIP3      15008           0.0000000000
     67275     15200  TIP3      H1              0.8470645796       15.3740803941      -45.1332745662  TIP3      15008           0.0000000000
     67276     15200  TIP3      H2              0.0916703527       16.5813227666      -44.7199068418  TIP3      15008           0.0000000000
     67277     15201  TIP3      OH2            -8.0789022669       15.8705249595      -46.2470934511  TIP3      15009           0.0000000000
     67278     15201  TIP3      H1             -8.0180807491       16.7129143609      -45.7337811331  TIP3      15009           0.0000000000
     67279     15201  TIP3      H2             -8.9511197400       15.5127895212      -45.9923964005  TIP3      15009           0.0000000000
     67280     15202  TIP3      OH2            -7.6253878737       19.6166121547      -56.4558881065  TIP3      15010           0.0000000000
     67281     15202  TIP3      H1             -7.7469322935       19.5412066594      -57.4191806225  TIP3      15010           0.0000000000
     67282     15202  TIP3      H2             -7.6328431677       20.5776378923      -56.2977464090  TIP3      15010           0.0000000000
     67283     15203  TIP3      OH2           -13.9995999676       18.4930255687      -54.6300792629  TIP3      15011           0.0000000000
     67284     15203  TIP3      H1            -13.8535768884       18.0786102109      -53.7526102584  TIP3      15011           0.0000000000
     67285     15203  TIP3      H2            -14.8518312673       18.0904449765      -54.8679798263  TIP3      15011           0.0000000000
     67286     15204  TIP3      OH2            -4.5801994187       18.8264281175      -59.4725035006  TIP3      15012           0.0000000000
     67287     15204  TIP3      H1             -4.1215042150       18.0728082750      -59.9093032648  TIP3      15012           0.0000000000
     67288     15204  TIP3      H2             -4.5398649883       18.5659427551      -58.5285370711  TIP3      15012           0.0000000000
     67289     15205  TIP3      OH2            -4.8818063664       18.7652955107      -56.6946049302  TIP3      15013           0.0000000000
     67290     15205  TIP3      H1             -5.8442061022       18.8383747875      -56.5240317270  TIP3      15013           0.0000000000
     67291     15205  TIP3      H2             -4.6497315870       18.0219903694      -56.1178560849  TIP3      15013           0.0000000000
     67292     15206  TIP3      OH2            -1.8886827666        7.7996367912      -44.6367875121  TIP3      15014           0.0000000000
     67293     15206  TIP3      H1             -2.3643600799        8.2505513399      -45.3534029244  TIP3      15014           0.0000000000
     67294     15206  TIP3      H2             -1.9036424705        6.8802231374      -44.9416008350  TIP3      15014           0.0000000000
     67295     15207  TIP3      OH2           -14.7472013079       14.2079675436      -46.6315094884  TIP3      15015           0.0000000000
     67296     15207  TIP3      H1            -14.5269498478       13.8442363414      -45.7489325111  TIP3      15015           0.0000000000
     67297     15207  TIP3      H2            -15.6177637152       13.8124581610      -46.8428362109  TIP3      15015           0.0000000000
     67298     15208  TIP3      OH2           -12.0681602257        2.6829322838      -50.6815777324  TIP3      15016           0.0000000000
     67299     15208  TIP3      H1            -12.9702450967        2.5565358356      -51.0489001363  TIP3      15016           0.0000000000
     67300     15208  TIP3      H2            -12.2011097302        3.5132319399      -50.1953370257  TIP3      15016           0.0000000000
     67301     15209  TIP3      OH2            -7.4242740578        2.3483033700      -47.3219781055  TIP3      15017           0.0000000000
     67302     15209  TIP3      H1             -7.0322236130        1.9262221592      -46.5348256550  TIP3      15017           0.0000000000
     67303     15209  TIP3      H2             -8.3963778592        2.2332624722      -47.1749442809  TIP3      15017           0.0000000000
     67304     15210  TIP3      OH2            -4.1366433066        6.1971471270      -46.4186883776  TIP3      15018           0.0000000000
     67305     15210  TIP3      H1             -4.7020150612        5.9820856431      -45.6378385880  TIP3      15018           0.0000000000
     67306     15210  TIP3      H2             -4.3218128991        7.1241104528      -46.6477744596  TIP3      15018           0.0000000000
     67307     15211  TIP3      OH2            -3.3805788438       11.0166885428      -60.5252054909  TIP3      15019           0.0000000000
     67308     15211  TIP3      H1             -3.3987053180       10.8236115800      -61.4916194728  TIP3      15019           0.0000000000
     67309     15211  TIP3      H2             -2.5211091811       11.4583515626      -60.4708146246  TIP3      15019           0.0000000000
     67310     15212  TIP3      OH2            -7.8092269332        4.9415387738      -60.0112965853  TIP3      15020           0.0000000000
     67311     15212  TIP3      H1             -8.0809558170        4.8724553830      -59.0892990337  TIP3      15020           0.0000000000
     67312     15212  TIP3      H2             -8.0807345166        4.0570574010      -60.3284611627  TIP3      15020           0.0000000000
     67313     15213  TIP3      OH2           -11.9709373523        7.6590915012      -49.4258276872  TIP3      15021           0.0000000000
     67314     15213  TIP3      H1            -12.7067567512        7.6490994711      -48.7880227496  TIP3      15021           0.0000000000
     67315     15213  TIP3      H2            -12.0151860087        8.5678972481      -49.7999027573  TIP3      15021           0.0000000000
     67316     15214  TIP3      OH2           -11.9879428759        7.7696224423      -54.5557482470  TIP3      15022           0.0000000000
     67317     15214  TIP3      H1            -12.9375868778        7.5524237930      -54.6868926220  TIP3      15022           0.0000000000
     67318     15214  TIP3      H2            -11.6230060976        7.5191504553      -55.4204615058  TIP3      15022           0.0000000000
     67319     15215  TIP3      OH2            -6.4929190322        8.2988252571      -55.7722063845  TIP3      15023           0.0000000000
     67320     15215  TIP3      H1             -6.8871082092        9.1018190720      -56.1725040740  TIP3      15023           0.0000000000
     67321     15215  TIP3      H2             -5.8086040285        8.1059800427      -56.4369549369  TIP3      15023           0.0000000000
     67322     15216  TIP3      OH2            -7.4320951938        8.4852220406      -44.3577928396  TIP3      15024           0.0000000000
     67323     15216  TIP3      H1             -7.9574182832        7.7099476876      -44.0465032547  TIP3      15024           0.0000000000
     67324     15216  TIP3      H2             -6.5940078888        8.3648637152      -43.8808630458  TIP3      15024           0.0000000000
     67325     15217  TIP3      OH2            -5.4427817325        7.7592095495      -52.9439352660  TIP3      15025           0.0000000000
     67326     15217  TIP3      H1             -5.7223361380        8.3146872438      -53.6907275444  TIP3      15025           0.0000000000
     67327     15217  TIP3      H2             -5.3564546429        6.9104497892      -53.4135932651  TIP3      15025           0.0000000000
     67328     15218  TIP3      OH2           -14.3455303929        7.9066140599      -47.7499891275  TIP3      15026           0.0000000000
     67329     15218  TIP3      H1            -14.2618761802        8.3141230622      -46.8704594564  TIP3      15026           0.0000000000
     67330     15218  TIP3      H2            -14.7854196622        7.0677152431      -47.5396328682  TIP3      15026           0.0000000000
     67331     15219  TIP3      OH2           -10.9401000156        5.3441633475      -60.9558971815  TIP3      15027           0.0000000000
     67332     15219  TIP3      H1            -11.4117966954        4.9092553792      -60.2226380412  TIP3      15027           0.0000000000
     67333     15219  TIP3      H2            -11.6655629582        5.7610587480      -61.4382266266  TIP3      15027           0.0000000000
     67334     15220  TIP3      OH2           -17.6860910809        5.0150738262      -53.7598908544  TIP3      15028           0.0000000000
     67335     15220  TIP3      H1            -17.0019015680        4.9763475266      -53.0595594323  TIP3      15028           0.0000000000
     67336     15220  TIP3      H2            -17.2375812040        4.6425514703      -54.5416007673  TIP3      15028           0.0000000000
     67337     15221  TIP3      OH2           -16.3871152940        5.7354130063      -58.3943830553  TIP3      15029           0.0000000000
     67338     15221  TIP3      H1            -15.9248037099        6.3549829657      -58.9864039132  TIP3      15029           0.0000000000
     67339     15221  TIP3      H2            -17.1000375039        6.3348990937      -58.0820128422  TIP3      15029           0.0000000000
     67340     15222  TIP3      OH2            -6.2566566456        9.3503415945      -48.3999974709  TIP3      15030           0.0000000000
     67341     15222  TIP3      H1             -5.8754836520        8.6605734135      -48.9811986086  TIP3      15030           0.0000000000
     67342     15222  TIP3      H2             -6.7216700106        8.8240823328      -47.7242885233  TIP3      15030           0.0000000000
     67343     15223  TIP3      OH2            -9.4827724440        5.2997576481      -53.5765372753  TIP3      15031           0.0000000000
     67344     15223  TIP3      H1            -10.3974714309        5.3470339623      -53.2294841113  TIP3      15031           0.0000000000
     67345     15223  TIP3      H2             -8.9656863339        5.1665112293      -52.7617280159  TIP3      15031           0.0000000000
     67346     15224  TIP3      OH2           -14.6207876747        6.8744663631      -54.7134293569  TIP3      15032           0.0000000000
     67347     15224  TIP3      H1            -15.5238601387        7.0414349599      -55.0696776844  TIP3      15032           0.0000000000
     67348     15224  TIP3      H2            -14.3845394722        6.0179323597      -55.1101480729  TIP3      15032           0.0000000000
     67349     15225  TIP3      OH2           -10.9991231197        6.8538001948      -57.0835208008  TIP3      15033           0.0000000000
     67350     15225  TIP3      H1            -10.0587967469        7.0591767992      -56.8891776791  TIP3      15033           0.0000000000
     67351     15225  TIP3      H2            -11.2517121678        7.5879579308      -57.6906497108  TIP3      15033           0.0000000000
     67352     15226  TIP3      OH2            -5.0455569626        4.5645331650      -50.3201421891  TIP3      15034           0.0000000000
     67353     15226  TIP3      H1             -5.7279485076        4.6125158921      -49.6121806822  TIP3      15034           0.0000000000
     67354     15226  TIP3      H2             -5.5579031192        4.3069588832      -51.1010868258  TIP3      15034           0.0000000000
     67355     15227  TIP3      OH2           -12.2715243683        8.0408055797      -59.4622065159  TIP3      15035           0.0000000000
     67356     15227  TIP3      H1            -12.8283264745        7.7387374376      -60.2024831866  TIP3      15035           0.0000000000
     67357     15227  TIP3      H2            -11.4805120689        8.3177090167      -59.9539940146  TIP3      15035           0.0000000000
     67358     15228  TIP3      OH2            -1.8465924324       20.2037771198      -43.9932986254  TIP3      15036           0.0000000000
     67359     15228  TIP3      H1             -1.5801502874       20.5878356851      -44.8475707863  TIP3      15036           0.0000000000
     67360     15228  TIP3      H2             -1.1226581987       20.5241246700      -43.4344584578  TIP3      15036           0.0000000000
     67361     15229  TIP3      OH2           -14.1695589235       12.6728069413      -44.4210607233  TIP3      15037           0.0000000000
     67362     15229  TIP3      H1            -13.4494190149       12.9189309763      -43.8177621958  TIP3      15037           0.0000000000
     67363     15229  TIP3      H2            -14.9423388519       12.7540756979      -43.8201183939  TIP3      15037           0.0000000000
     67364     15230  TIP3      OH2            -8.1619711000        8.0906998773      -51.6656361963  TIP3      15038           0.0000000000
     67365     15230  TIP3      H1             -7.5636184148        7.5404727612      -52.1868843877  TIP3      15038           0.0000000000
     67366     15230  TIP3      H2             -8.3144025837        7.5366637685      -50.8843282650  TIP3      15038           0.0000000000
     67367     15231  TIP3      OH2           -13.2588099557        4.2285577423      -55.2552827391  TIP3      15039           0.0000000000
     67368     15231  TIP3      H1            -13.5769211598        3.3019643689      -55.1599112200  TIP3      15039           0.0000000000
     67369     15231  TIP3      H2            -12.3930014426        4.1076685288      -55.5516016899  TIP3      15039           0.0000000000
     67370     15232  TIP3      OH2            -9.5310260490        6.4110063972      -49.2532741813  TIP3      15040           0.0000000000
     67371     15232  TIP3      H1            -10.3556068454        6.9302685190      -49.1631044545  TIP3      15040           0.0000000000
     67372     15232  TIP3      H2             -8.9759744746        6.7630996471      -48.5302030675  TIP3      15040           0.0000000000
     67373     15233  TIP3      OH2            -8.9333537599       12.6094857296      -57.5564681493  TIP3      15041           0.0000000000
     67374     15233  TIP3      H1             -9.7361966050       12.1702568338      -57.9246677559  TIP3      15041           0.0000000000
     67375     15233  TIP3      H2             -9.2188885854       12.7845467978      -56.6480878530  TIP3      15041           0.0000000000
     67376     15234  TIP3      OH2            -1.7545277914       11.8381600840      -48.7512474827  TIP3      15042           0.0000000000
     67377     15234  TIP3      H1             -1.1921100061       12.3208215620      -49.3840533048  TIP3      15042           0.0000000000
     67378     15234  TIP3      H2             -2.6148544266       11.8817816125      -49.2152547144  TIP3      15042           0.0000000000
     67379     15235  TIP3      OH2            -5.1223452686        5.4439004298      -59.3716964664  TIP3      15043           0.0000000000
     67380     15235  TIP3      H1             -6.0713255725        5.5993246814      -59.5143073812  TIP3      15043           0.0000000000
     67381     15235  TIP3      H2             -4.7748378761        6.2975159153      -59.0303074003  TIP3      15043           0.0000000000
     67382     15236  TIP3      OH2            -7.4512431972       12.9057660389      -46.3102863549  TIP3      15044           0.0000000000
     67383     15236  TIP3      H1             -7.7963467910       12.4752545348      -45.5208802897  TIP3      15044           0.0000000000
     67384     15236  TIP3      H2             -7.7065288864       13.8270284637      -46.2012925129  TIP3      15044           0.0000000000
     67385     15237  TIP3      OH2            -4.3798327652        7.3688331894      -57.7544685678  TIP3      15045           0.0000000000
     67386     15237  TIP3      H1             -3.4964682752        7.2354337954      -57.3467795077  TIP3      15045           0.0000000000
     67387     15237  TIP3      H2             -4.2711393276        8.1889367327      -58.2656775899  TIP3      15045           0.0000000000
     67388     15238  TIP3      OH2           -13.8097671459       12.0353742582      -51.7497911136  TIP3      15046           0.0000000000
     67389     15238  TIP3      H1            -13.1645604264       11.9293603004      -52.4652477195  TIP3      15046           0.0000000000
     67390     15238  TIP3      H2            -13.7940494028       11.1729961843      -51.2950435407  TIP3      15046           0.0000000000
     67391     15239  TIP3      OH2            -6.8366630350       14.0976489334      -58.4881089712  TIP3      15047           0.0000000000
     67392     15239  TIP3      H1             -7.1954685728       14.9574713296      -58.1842192782  TIP3      15047           0.0000000000
     67393     15239  TIP3      H2             -7.5828082684       13.4853628705      -58.3204656150  TIP3      15047           0.0000000000
     67394     15240  TIP3      OH2           -16.8422788209       10.4306307022      -46.4936329086  TIP3      15048           0.0000000000
     67395     15240  TIP3      H1            -16.6728970677        9.9868779805      -45.6397998054  TIP3      15048           0.0000000000
     67396     15240  TIP3      H2            -17.4634274893        9.8219145432      -46.9319231889  TIP3      15048           0.0000000000
     67397     15241  TIP3      OH2            -9.8298148668        9.9917431185      -44.3168413500  TIP3      15049           0.0000000000
     67398     15241  TIP3      H1            -10.1496428078        9.6825742416      -45.1764958949  TIP3      15049           0.0000000000
     67399     15241  TIP3      H2             -8.9069730612        9.6670039451      -44.3185073699  TIP3      15049           0.0000000000
     67400     15242  TIP3      OH2            -5.1443225867       15.3259365600      -46.3613564479  TIP3      15050           0.0000000000
     67401     15242  TIP3      H1             -6.0690398637       15.5074917277      -46.5945964413  TIP3      15050           0.0000000000
     67402     15242  TIP3      H2             -5.1765695824       15.6204696317      -45.4308230588  TIP3      15050           0.0000000000
     67403     15243  TIP3      OH2             0.5294866216        7.4976741585      -57.9795128422  TIP3      15051           0.0000000000
     67404     15243  TIP3      H1             -0.0440932598        7.2191230347      -58.7169900880  TIP3      15051           0.0000000000
     67405     15243  TIP3      H2              0.6028968029        8.4496423250      -58.2272172761  TIP3      15051           0.0000000000
     67406     15244  TIP3      OH2             0.5108542070       13.3711632051      -45.1692013170  TIP3      15052           0.0000000000
     67407     15244  TIP3      H1             -0.3819485747       13.5907280154      -45.5340057619  TIP3      15052           0.0000000000
     67408     15244  TIP3      H2              1.0566839256       13.3181548427      -45.9809029421  TIP3      15052           0.0000000000
     67409     15245  TIP3      OH2            -1.2268216763       16.3357797299      -57.5833865227  TIP3      15053           0.0000000000
     67410     15245  TIP3      H1             -1.5513896557       15.4976332447      -57.2329679003  TIP3      15053           0.0000000000
     67411     15245  TIP3      H2             -0.8669054008       16.1162889411      -58.4583879472  TIP3      15053           0.0000000000
     67412     15246  TIP3      OH2            -3.9712724979       11.1514462872      -50.4694782724  TIP3      15054           0.0000000000
     67413     15246  TIP3      H1             -4.9086581382       10.9313774201      -50.5610748830  TIP3      15054           0.0000000000
     67414     15246  TIP3      H2             -3.5431389251       10.3929257338      -50.9077273933  TIP3      15054           0.0000000000
     67415     15247  TIP3      OH2           -11.4373744720       15.4916349949      -54.3425791808  TIP3      15055           0.0000000000
     67416     15247  TIP3      H1            -10.9739300982       16.3177907844      -54.5753452660  TIP3      15055           0.0000000000
     67417     15247  TIP3      H2            -12.3236918665       15.7069983249      -54.6857921443  TIP3      15055           0.0000000000
     67418     15248  TIP3      OH2           -15.6918758787       10.3220945304      -59.7983727887  TIP3      15056           0.0000000000
     67419     15248  TIP3      H1            -15.1136093836       10.9883470421      -59.3884110721  TIP3      15056           0.0000000000
     67420     15248  TIP3      H2            -16.5832059564       10.6345000807      -59.5507173347  TIP3      15056           0.0000000000
     67421     15249  TIP3      OH2           -10.3037736136       13.2161052748      -55.1514190326  TIP3      15057           0.0000000000
     67422     15249  TIP3      H1            -10.5039164667       14.1511010222      -54.9058764681  TIP3      15057           0.0000000000
     67423     15249  TIP3      H2            -10.9927468753       12.7246403833      -54.6328930740  TIP3      15057           0.0000000000
     67424     15250  TIP3      OH2            -9.5904566959       17.3334357484      -48.4378406454  TIP3      15058           0.0000000000
     67425     15250  TIP3      H1             -9.1325659937       18.1377257182      -48.7274737035  TIP3      15058           0.0000000000
     67426     15250  TIP3      H2             -8.9755029676       16.9911661472      -47.7656100222  TIP3      15058           0.0000000000
     67427     15251  TIP3      OH2           -11.3669021725       18.1307016550      -55.3247532340  TIP3      15059           0.0000000000
     67428     15251  TIP3      H1            -12.3298528093       18.2775959785      -55.1930087700  TIP3      15059           0.0000000000
     67429     15251  TIP3      H2            -11.0006642940       18.9687761962      -54.9840078077  TIP3      15059           0.0000000000
     67430     15252  TIP3      OH2            -6.1120084643       13.3034186493      -48.8648648899  TIP3      15060           0.0000000000
     67431     15252  TIP3      H1             -6.3963680495       13.1497296124      -47.9363237275  TIP3      15060           0.0000000000
     67432     15252  TIP3      H2             -5.4189406775       12.6317470425      -48.9826131087  TIP3      15060           0.0000000000
     67433     15253  TIP3      OH2            -3.7321305506       14.4084230574      -59.7285439638  TIP3      15061           0.0000000000
     67434     15253  TIP3      H1             -3.4356748452       13.9320634578      -58.9281162447  TIP3      15061           0.0000000000
     67435     15253  TIP3      H2             -4.6851385450       14.2219174738      -59.6521024947  TIP3      15061           0.0000000000
     67436     15254  TIP3      OH2            -3.2510570716       17.9122468415      -46.3363020578  TIP3      15062           0.0000000000
     67437     15254  TIP3      H1             -3.9441890393       17.4192111132      -46.8145828626  TIP3      15062           0.0000000000
     67438     15254  TIP3      H2             -3.0693573936       18.6129047313      -46.9974791669  TIP3      15062           0.0000000000
     67439     15255  TIP3      OH2             0.7326589219       18.7463107458      -59.4832835734  TIP3      15063           0.0000000000
     67440     15255  TIP3      H1              1.4286542109       19.4020822484      -59.6835776533  TIP3      15063           0.0000000000
     67441     15255  TIP3      H2              0.0196766845       19.3494567214      -59.1863575861  TIP3      15063           0.0000000000
     67442     15256  TIP3      OH2           -15.1927772054        5.1665604995      -46.9467963565  TIP3      15064           0.0000000000
     67443     15256  TIP3      H1            -16.0992289344        5.5185504998      -46.9647511377  TIP3      15064           0.0000000000
     67444     15256  TIP3      H2            -15.3040044129        4.3217938283      -46.4825470741  TIP3      15064           0.0000000000
     67445     15257  TIP3      OH2            -2.9531279437       13.0427172091      -57.4898428522  TIP3      15065           0.0000000000
     67446     15257  TIP3      H1             -3.1948513349       12.2545796462      -56.9564636931  TIP3      15065           0.0000000000
     67447     15257  TIP3      H2             -1.9994129801       13.0825094879      -57.3131735857  TIP3      15065           0.0000000000
     67448     15258  TIP3      OH2           -15.5705477809       16.9470926296      -48.5249142438  TIP3      15066           0.0000000000
     67449     15258  TIP3      H1            -15.2728368167       16.0244603128      -48.5099114893  TIP3      15066           0.0000000000
     67450     15258  TIP3      H2            -15.3177457741       17.2396757625      -47.6414772295  TIP3      15066           0.0000000000
     67451     15259  TIP3      OH2            -9.6030727657       15.4782281384      -61.2356233555  TIP3      15067           0.0000000000
     67452     15259  TIP3      H1             -9.5034603777       14.7161424324      -61.8282847581  TIP3      15067           0.0000000000
     67453     15259  TIP3      H2            -10.0469123768       15.0467710177      -60.4726223384  TIP3      15067           0.0000000000
     67454     15260  TIP3      OH2           -10.8266071418       15.0049134933      -58.7859824933  TIP3      15068           0.0000000000
     67455     15260  TIP3      H1            -10.5708862622       14.4870499254      -58.0153672345  TIP3      15068           0.0000000000
     67456     15260  TIP3      H2            -10.7381609913       15.9285562431      -58.4569388642  TIP3      15068           0.0000000000
     67457     15261  TIP3      OH2           -14.2906635171       12.2506118078      -58.2982452132  TIP3      15069           0.0000000000
     67458     15261  TIP3      H1            -15.0043014120       12.6506844515      -57.7608895599  TIP3      15069           0.0000000000
     67459     15261  TIP3      H2            -13.7821881782       13.0284025863      -58.5915169289  TIP3      15069           0.0000000000
     67460     15262  TIP3      OH2            -6.4604039545        4.9395196695      -47.9795869359  TIP3      15070           0.0000000000
     67461     15262  TIP3      H1             -5.7449126299        4.9998966110      -47.3375727387  TIP3      15070           0.0000000000
     67462     15262  TIP3      H2             -6.8436922855        4.0631226977      -47.7762021979  TIP3      15070           0.0000000000
     67463     15263  TIP3      OH2            -5.7523231794        4.5196336472      -56.8947296612  TIP3      15071           0.0000000000
     67464     15263  TIP3      H1             -5.4927654765        4.9674248988      -57.7242173807  TIP3      15071           0.0000000000
     67465     15263  TIP3      H2             -5.1500549595        4.9388384203      -56.2657240188  TIP3      15071           0.0000000000
     67466     15264  TIP3      OH2            -8.0240901629       16.6667033325      -58.0866036749  TIP3      15072           0.0000000000
     67467     15264  TIP3      H1             -8.8451077737       17.1954653069      -58.0167194397  TIP3      15072           0.0000000000
     67468     15264  TIP3      H2             -7.4881390431       17.2170577451      -58.6751002933  TIP3      15072           0.0000000000
     67469     15265  TIP3      OH2            -8.4958532952        6.2434637404      -56.0747328135  TIP3      15073           0.0000000000
     67470     15265  TIP3      H1             -7.7164897163        6.8431928021      -56.0430035638  TIP3      15073           0.0000000000
     67471     15265  TIP3      H2             -8.7260452878        6.1496799779      -55.1310000678  TIP3      15073           0.0000000000
     67472     15266  TIP3      OH2            -7.9321884114        7.2867162947      -46.8849133394  TIP3      15074           0.0000000000
     67473     15266  TIP3      H1             -7.8583655467        7.8426864574      -46.0861401353  TIP3      15074           0.0000000000
     67474     15266  TIP3      H2             -7.2701664040        6.5903076096      -46.7874516314  TIP3      15074           0.0000000000
     67475     15267  TIP3      OH2            -7.6687830261        3.3332059836      -55.2353581878  TIP3      15075           0.0000000000
     67476     15267  TIP3      H1             -7.9283445219        3.9505765838      -54.5293416569  TIP3      15075           0.0000000000
     67477     15267  TIP3      H2             -6.9179525079        3.8527142098      -55.6239721582  TIP3      15075           0.0000000000
     67478     15268  TIP3      OH2           -10.6206817921       17.7109024549      -58.0637496459  TIP3      15076           0.0000000000
     67479     15268  TIP3      H1            -10.5236984839       18.5291616195      -58.6126132476  TIP3      15076           0.0000000000
     67480     15268  TIP3      H2            -10.8981896597       18.0743328470      -57.1947849099  TIP3      15076           0.0000000000
     67481     15269  TIP3      OH2           -12.0431352482        4.4982050140      -58.7488819866  TIP3      15077           0.0000000000
     67482     15269  TIP3      H1            -12.0784651752        5.4085908094      -58.3732171839  TIP3      15077           0.0000000000
     67483     15269  TIP3      H2            -11.1080465993        4.2169998309      -58.6540877260  TIP3      15077           0.0000000000
     67484     15270  TIP3      OH2            -1.7554791496        5.1545035426      -46.0392747852  TIP3      15078           0.0000000000
     67485     15270  TIP3      H1             -2.6826576599        5.4707844467      -46.1679697758  TIP3      15078           0.0000000000
     67486     15270  TIP3      H2             -1.4543586343        5.1410169896      -46.9631963499  TIP3      15078           0.0000000000
     67487     15271  TIP3      OH2            -3.1369829851        8.9424722335      -52.0360577786  TIP3      15079           0.0000000000
     67488     15271  TIP3      H1             -3.9635359198        8.4973679456      -52.3070997925  TIP3      15079           0.0000000000
     67489     15271  TIP3      H2             -2.6595577361        8.2558364437      -51.5172170826  TIP3      15079           0.0000000000
     67490     15272  TIP3      OH2           -13.7560047896       14.8706699231      -59.4544401438  TIP3      15080           0.0000000000
     67491     15272  TIP3      H1            -13.0858081955       15.4902337955      -59.1254511471  TIP3      15080           0.0000000000
     67492     15272  TIP3      H2            -13.2209850129       14.3935566110      -60.1197914381  TIP3      15080           0.0000000000
     67493     15273  TIP3      OH2           -15.4016907145        7.5416602228      -60.3048211658  TIP3      15081           0.0000000000
     67494     15273  TIP3      H1            -15.3872216464        8.4948386463      -60.0803379284  TIP3      15081           0.0000000000
     67495     15273  TIP3      H2            -16.2958332913        7.3656613406      -60.6060140971  TIP3      15081           0.0000000000
     67496     15274  TIP3      OH2            -2.0774407719       18.2041642690      -50.3603634601  TIP3      15082           0.0000000000
     67497     15274  TIP3      H1             -2.1657068859       18.8840347768      -51.0558116763  TIP3      15082           0.0000000000
     67498     15274  TIP3      H2             -1.1129368674       18.2553700766      -50.1865799592  TIP3      15082           0.0000000000
     67499     15275  TIP3      OH2           -14.5876498939        2.3209665527      -51.5499259600  TIP3      15083           0.0000000000
     67500     15275  TIP3      H1            -14.7913769073        2.3345607363      -52.5083436538  TIP3      15083           0.0000000000
     67501     15275  TIP3      H2            -14.9992116481        1.4684942541      -51.2951422905  TIP3      15083           0.0000000000
     67502     15276  TIP3      OH2           -15.6217673395       16.2378384673      -55.4044679459  TIP3      15084           0.0000000000
     67503     15276  TIP3      H1            -16.4748480896       16.6874270710      -55.4538008315  TIP3      15084           0.0000000000
     67504     15276  TIP3      H2            -15.1485949888       16.7066637998      -56.1045160740  TIP3      15084           0.0000000000
     67505     15277  TIP3      OH2           -16.4196682375       18.8943274873      -44.1162751610  TIP3      15085           0.0000000000
     67506     15277  TIP3      H1            -15.8222178910       18.6986316519      -43.3660604910  TIP3      15085           0.0000000000
     67507     15277  TIP3      H2            -16.8237551093       18.0277051694      -44.2999602944  TIP3      15085           0.0000000000
     67508     15278  TIP3      OH2           -11.7364580626       17.8106576158      -42.5266895322  TIP3      15086           0.0000000000
     67509     15278  TIP3      H1            -10.9812625397       17.3104576751      -42.1902900878  TIP3      15086           0.0000000000
     67510     15278  TIP3      H2            -11.7645069363       17.5301436448      -43.4622029917  TIP3      15086           0.0000000000
     67511     15279  TIP3      OH2            -7.6095493956       17.3290660017      -61.1141780746  TIP3      15087           0.0000000000
     67512     15279  TIP3      H1             -8.3027135212       16.6698737301      -60.8873954701  TIP3      15087           0.0000000000
     67513     15279  TIP3      H2             -6.8916161636       16.7318216076      -61.3657767713  TIP3      15087           0.0000000000
     67514     15280  TIP3      OH2            -5.2414375228       16.1990025710      -43.7676545226  TIP3      15088           0.0000000000
     67515     15280  TIP3      H1             -5.5564709204       15.3119022088      -43.4923341172  TIP3      15088           0.0000000000
     67516     15280  TIP3      H2             -4.4725242147       16.3180209709      -43.1754242154  TIP3      15088           0.0000000000
     67517     15281  TIP3      OH2            -3.0516023120       17.0730166997      -60.9278184973  TIP3      15089           0.0000000000
     67518     15281  TIP3      H1             -2.7556335728       16.2966708832      -60.4248997710  TIP3      15089           0.0000000000
     67519     15281  TIP3      H2             -2.2893927050       17.2976622143      -61.4810241736  TIP3      15089           0.0000000000
     67520     15282  TIP3      OH2           -16.5155186518       12.6687690835      -43.1283000183  TIP3      15090           0.0000000000
     67521     15282  TIP3      H1            -16.3495622970       11.7571752902      -43.4298087392  TIP3      15090           0.0000000000
     67522     15282  TIP3      H2            -17.2550694382       12.9271163021      -43.7028657308  TIP3      15090           0.0000000000
     67523     15283  TIP3      OH2           -12.1602787148       13.0126526222      -61.1017243252  TIP3      15091           0.0000000000
     67524     15283  TIP3      H1            -12.0155913366       12.2572765161      -60.5089425855  TIP3      15091           0.0000000000
     67525     15283  TIP3      H2            -11.4162980208       12.8926787970      -61.7249383193  TIP3      15091           0.0000000000
     67526     15284  TIP3      OH2            -9.7977997703       12.6569468176      -43.7437590885  TIP3      15092           0.0000000000
     67527     15284  TIP3      H1            -10.1330287283       12.9697837313      -44.6069685843  TIP3      15092           0.0000000000
     67528     15284  TIP3      H2             -9.7237219274       11.6795250364      -43.8517871431  TIP3      15092           0.0000000000
     67529     15285  TIP3      OH2            -6.7335913064       14.1222980024      -61.3296469653  TIP3      15093           0.0000000000
     67530     15285  TIP3      H1             -7.0059533031       14.2033860426      -60.4036120595  TIP3      15093           0.0000000000
     67531     15285  TIP3      H2             -6.9230471693       13.1649128317      -61.4766193541  TIP3      15093           0.0000000000
     67532     15286  TIP3      OH2            -4.1020297992       12.5167620069      -46.3538759525  TIP3      15094           0.0000000000
     67533     15286  TIP3      H1             -3.3133457246       13.0988971780      -46.4127662454  TIP3      15094           0.0000000000
     67534     15286  TIP3      H2             -4.8010318095       13.1847619205      -46.3129099516  TIP3      15094           0.0000000000
     67535     15287  TIP3      OH2           -15.5925546445        9.8935564283      -43.7491874121  TIP3      15095           0.0000000000
     67536     15287  TIP3      H1            -15.1757014771        9.0304160899      -43.8390495382  TIP3      15095           0.0000000000
     67537     15287  TIP3      H2            -15.8264028636        9.8989101921      -42.8076655832  TIP3      15095           0.0000000000
     67538     15288  TIP3      OH2           -10.9521055959       11.0317937358      -58.6744074472  TIP3      15096           0.0000000000
     67539     15288  TIP3      H1            -11.4764187306       10.4894053040      -58.0680774322  TIP3      15096           0.0000000000
     67540     15288  TIP3      H2            -10.6618332112       10.3575611951      -59.3336094925  TIP3      15096           0.0000000000
     67541     15289  TIP3      OH2           -11.6953075069        8.8381026590      -46.3950734481  TIP3      15097           0.0000000000
     67542     15289  TIP3      H1            -12.2920422721        9.5590805717      -46.1381569104  TIP3      15097           0.0000000000
     67543     15289  TIP3      H2            -11.2980141947        9.2054035736      -47.2028268543  TIP3      15097           0.0000000000
     67544     15290  TIP3      OH2            -9.8924755723        9.2559785869      -60.4847452098  TIP3      15098           0.0000000000
     67545     15290  TIP3      H1            -10.0341197199        9.1659789366      -61.4501696664  TIP3      15098           0.0000000000
     67546     15290  TIP3      H2             -8.9168812370        9.2882025305      -60.4082670590  TIP3      15098           0.0000000000
     67547     15291  TIP3      OH2            -6.6184568996       11.4069700300      -43.0566836336  TIP3      15099           0.0000000000
     67548     15291  TIP3      H1             -5.6593473395       11.3926711950      -43.1574552883  TIP3      15099           0.0000000000
     67549     15291  TIP3      H2             -6.7967170534       10.6407970879      -42.4903411511  TIP3      15099           0.0000000000
     67550     15292  TIP3      OH2            -0.5564532477       11.5729190864      -61.0717959121  TIP3      15100           0.0000000000
     67551     15292  TIP3      H1             -0.7474436240       11.1932185211      -61.9425759767  TIP3      15100           0.0000000000
     67552     15292  TIP3      H2             -0.4678520051       12.5359737806      -61.2577186807  TIP3      15100           0.0000000000
     67553     15293  TIP3      OH2           -11.2893006309        6.2159085983      -45.3376087954  TIP3      15101           0.0000000000
     67554     15293  TIP3      H1            -11.1722467308        5.5072153572      -45.9963951773  TIP3      15101           0.0000000000
     67555     15293  TIP3      H2            -11.3335872834        7.0270107667      -45.8863820645  TIP3      15101           0.0000000000
     67556     15294  TIP3      OH2           -10.8834288986        4.5987793379      -47.7880998885  TIP3      15102           0.0000000000
     67557     15294  TIP3      H1            -10.3765220256        5.0598745658      -48.4964883189  TIP3      15102           0.0000000000
     67558     15294  TIP3      H2            -11.7787786704        4.5203517267      -48.1891292615  TIP3      15102           0.0000000000
     67559     15295  TIP3      OH2            -9.3468361817       10.0897493532      -47.5400904861  TIP3      15103           0.0000000000
     67560     15295  TIP3      H1             -8.5935812300        9.9228808727      -48.1135292319  TIP3      15103           0.0000000000
     67561     15295  TIP3      H2             -9.7134292168       10.9212142359      -47.8708549191  TIP3      15103           0.0000000000
     67562     15296  TIP3      OH2            -4.9515596907        7.8387059536      -42.5789546233  TIP3      15104           0.0000000000
     67563     15296  TIP3      H1             -4.7158269782        6.9042430712      -42.6704088994  TIP3      15104           0.0000000000
     67564     15296  TIP3      H2             -4.0872755446        8.2826974378      -42.5463382746  TIP3      15104           0.0000000000
     67565     15297  TIP3      OH2            -3.6096579386       10.6325271085      -44.4132867857  TIP3      15105           0.0000000000
     67566     15297  TIP3      H1             -3.8619041796       11.3544923860      -45.0293708717  TIP3      15105           0.0000000000
     67567     15297  TIP3      H2             -2.6523772518       10.6022236671      -44.6014513730  TIP3      15105           0.0000000000
     67568     15298  TIP3      OH2           -12.8268267108        7.4671475270      -43.4170570428  TIP3      15106           0.0000000000
     67569     15298  TIP3      H1            -13.5965056504        6.8897324901      -43.5849064781  TIP3      15106           0.0000000000
     67570     15298  TIP3      H2            -12.1730912094        7.0977433013      -44.0385847836  TIP3      15106           0.0000000000
     67571     15299  TIP3      OH2           -10.0960237161        2.0341165860      -47.3950846889  TIP3      15107           0.0000000000
     67572     15299  TIP3      H1            -10.2799002114        2.9976739948      -47.4914520838  TIP3      15107           0.0000000000
     67573     15299  TIP3      H2            -10.8454806876        1.6682845835      -47.8965525069  TIP3      15107           0.0000000000
     67574     15300  TIP3      OH2            -8.8266625333        6.3646100418      -43.7658753099  TIP3      15108           0.0000000000
     67575     15300  TIP3      H1             -9.1413471087        6.1314413959      -42.8707463985  TIP3      15108           0.0000000000
     67576     15300  TIP3      H2             -9.6077899981        6.1615213768      -44.3076622760  TIP3      15108           0.0000000000
     67577     15301  TIP3      OH2            -6.1043387945        5.5085367501      -44.6756597799  TIP3      15109           0.0000000000
     67578     15301  TIP3      H1             -7.0693625263        5.5618128805      -44.5675622092  TIP3      15109           0.0000000000
     67579     15301  TIP3      H2             -5.8408116083        4.8673252492      -43.9877780756  TIP3      15109           0.0000000000
     67580     15302  TIP3      OH2            -4.5232724286        4.1274905771      -42.7772490828  TIP3      15110           0.0000000000
     67581     15302  TIP3      H1             -4.5714082688        3.1496971066      -42.7463309233  TIP3      15110           0.0000000000
     67582     15302  TIP3      H2             -4.7718438319        4.4198200629      -41.8779032171  TIP3      15110           0.0000000000
     67583     15303  TIP3      OH2           -14.7505177225        5.4038307287      -43.6617139804  TIP3      15111           0.0000000000
     67584     15303  TIP3      H1            -14.5008371063        4.6681180187      -44.2479750244  TIP3      15111           0.0000000000
     67585     15303  TIP3      H2            -14.8384482715        4.9558483293      -42.7975501448  TIP3      15111           0.0000000000
     67586     15304  TIP3      OH2            -9.8822607767        1.4288421419      -44.6943709483  TIP3      15112           0.0000000000
     67587     15304  TIP3      H1             -9.2027881749        0.7253386514      -44.7111979034  TIP3      15112           0.0000000000
     67588     15304  TIP3      H2             -9.9968906165        1.5712173516      -45.6545208274  TIP3      15112           0.0000000000
     67589     15305  TIP3      OH2            -9.5201330244        3.0413984075      -42.5776129040  TIP3      15113           0.0000000000
     67590     15305  TIP3      H1             -9.6936165478        2.5358527333      -43.4103891431  TIP3      15113           0.0000000000
     67591     15305  TIP3      H2            -10.1195400300        3.8060009147      -42.6782768484  TIP3      15113           0.0000000000
     67592     15306  TIP3      OH2           -10.0542684490       19.9559535241      -59.4031964230  TIP3      15114           0.0000000000
     67593     15306  TIP3      H1             -9.0873263128       20.0420010453      -59.3361895655  TIP3      15114           0.0000000000
     67594     15306  TIP3      H2            -10.2029641438       20.5575822375      -60.1445327782  TIP3      15114           0.0000000000
     67595     15307  TIP3      OH2           -16.5034527513       14.5278912905      -59.9342937580  TIP3      15115           0.0000000000
     67596     15307  TIP3      H1            -15.5365171385       14.6235674609      -59.7494747747  TIP3      15115           0.0000000000
     67597     15307  TIP3      H2            -16.4503600356       13.8847218527      -60.6810192449  TIP3      15115           0.0000000000
     67598     15308  TIP3      OH2           -17.7189258090       19.9125640709      -54.9702774501  TIP3      15116           0.0000000000
     67599     15308  TIP3      H1            -18.4395845212       19.4276607755      -55.4291314345  TIP3      15116           0.0000000000
     67600     15308  TIP3      H2            -17.4390488070       19.2594076489      -54.3035488956  TIP3      15116           0.0000000000
     67601     15309  TIP3      OH2           -16.8975085656       18.0504662086      -53.0938164374  TIP3      15117           0.0000000000
     67602     15309  TIP3      H1            -17.2486818109       17.1713824613      -52.8941587076  TIP3      15117           0.0000000000
     67603     15309  TIP3      H2            -16.6705064814       18.3800323403      -52.2082233016  TIP3      15117           0.0000000000
     67604     15310  TIP3      OH2             0.6427221654       18.8465017008      -50.1640207118  TIP3      15118           0.0000000000
     67605     15310  TIP3      H1              0.6733883092       19.0068553365      -49.2049313013  TIP3      15118           0.0000000000
     67606     15310  TIP3      H2              1.3465512057       19.4290499014      -50.4673155245  TIP3      15118           0.0000000000
     67607     15311  TIP3      OH2             0.2148547879       18.4429679176      -47.2163619993  TIP3      15119           0.0000000000
     67608     15311  TIP3      H1             -0.2549026317       17.6714645965      -47.6000574007  TIP3      15119           0.0000000000
     67609     15311  TIP3      H2              0.7026583955       17.9946970929      -46.5055095331  TIP3      15119           0.0000000000
     67610     15312  TIP3      OH2            -1.3385748405       14.1608594491      -42.5446687583  TIP3      15120           0.0000000000
     67611     15312  TIP3      H1             -2.2453457419       14.1356384782      -42.1811502951  TIP3      15120           0.0000000000
     67612     15312  TIP3      H2             -0.9673665619       14.9675849376      -42.1349359132  TIP3      15120           0.0000000000
     67613     15313  TIP3      OH2            -0.0250461556       12.4933411131      -57.1175597014  TIP3      15121           0.0000000000
     67614     15313  TIP3      H1              0.8422777967       12.8826728279      -56.9308119907  TIP3      15121           0.0000000000
     67615     15313  TIP3      H2             -0.0406840303       11.7741352659      -56.4486065056  TIP3      15121           0.0000000000
     67616     15314  TIP3      OH2             0.3365827338       10.5690382402      -55.2265863949  TIP3      15122           0.0000000000
     67617     15314  TIP3      H1             -0.4149424073       10.0696486601      -54.8352989159  TIP3      15122           0.0000000000
     67618     15314  TIP3      H2              0.9341297164       10.6994306959      -54.4640513336  TIP3      15122           0.0000000000
     67619     15315  TIP3      OH2             0.0925386727       13.2622947283      -50.2440077475  TIP3      15123           0.0000000000
     67620     15315  TIP3      H1              0.9056854287       12.8860136740      -50.6235871657  TIP3      15123           0.0000000000
     67621     15315  TIP3      H2              0.2390227744       14.2172377386      -50.4149418221  TIP3      15123           0.0000000000
     67622     15316  TIP3      OH2            -1.3472012984       16.1703857441      -47.9755286323  TIP3      15124           0.0000000000
     67623     15316  TIP3      H1             -2.0380804338       16.5110142285      -47.3869116869  TIP3      15124           0.0000000000
     67624     15316  TIP3      H2             -1.8945409978       15.7685431206      -48.6843231191  TIP3      15124           0.0000000000
     67625     15317  TIP3      OH2             0.6361261658       10.3919112518      -58.8370294115  TIP3      15125           0.0000000000
     67626     15317  TIP3      H1              0.0696628415       10.7332731139      -59.5609532906  TIP3      15125           0.0000000000
     67627     15317  TIP3      H2              0.5367589272       11.1050528138      -58.1789478921  TIP3      15125           0.0000000000
     67628     15318  TIP3      OH2            -0.9857342973        7.6166710735      -60.3271774682  TIP3      15126           0.0000000000
     67629     15318  TIP3      H1             -0.9146312885        8.2837174431      -61.0197846599  TIP3      15126           0.0000000000
     67630     15318  TIP3      H2             -1.1752754464        6.7953267228      -60.8215729190  TIP3      15126           0.0000000000
     67631     15319  TIP3      OH2            -1.8433896377        9.0397400215      -54.6621199761  TIP3      15127           0.0000000000
     67632     15319  TIP3      H1             -1.9933451021        8.0856120582      -54.6997287783  TIP3      15127           0.0000000000
     67633     15319  TIP3      H2             -2.1716430893        9.2563817466      -53.7717377390  TIP3      15127           0.0000000000
     67634     15320  TIP3      OH2           -16.8372088120       11.1294767395      -50.5977825427  TIP3      15128           0.0000000000
     67635     15320  TIP3      H1            -16.6618383420       11.0471469744      -51.5606984948  TIP3      15128           0.0000000000
     67636     15320  TIP3      H2            -15.9440985790       10.9493120217      -50.2457863693  TIP3      15128           0.0000000000
     67637     15321  TIP3      OH2            -0.9827021009       11.0090997138      -44.9688531847  TIP3      15129           0.0000000000
     67638     15321  TIP3      H1             -0.3726896948       10.2521216544      -44.8366720097  TIP3      15129           0.0000000000
     67639     15321  TIP3      H2             -0.3784969038       11.7819190099      -44.9662436277  TIP3      15129           0.0000000000
     67640     15322  TIP3      OH2             0.5189839011        8.8878723977      -44.3182607606  TIP3      15130           0.0000000000
     67641     15322  TIP3      H1             -0.3640362397        8.4892343960      -44.4732341870  TIP3      15130           0.0000000000
     67642     15322  TIP3      H2              1.0892189567        8.1049916996      -44.3949880080  TIP3      15130           0.0000000000
     67643     15323  TIP3      OH2            -1.7397209823        5.0956109032      -61.1887068400  TIP3      15131           0.0000000000
     67644     15323  TIP3      H1             -1.1522578619        4.6550604876      -60.5457086984  TIP3      15131           0.0000000000
     67645     15323  TIP3      H2             -2.6048924227        4.6771280805      -61.0363677419  TIP3      15131           0.0000000000
     67646     15324  TIP3      OH2            -2.1973267392        6.6201286830      -56.2445390054  TIP3      15132           0.0000000000
     67647     15324  TIP3      H1             -1.8809429480        5.7007486813      -56.0828064087  TIP3      15132           0.0000000000
     67648     15324  TIP3      H2             -1.3746016010        7.0297459938      -56.5464504279  TIP3      15132           0.0000000000
     67649     15325  TIP3      OH2            -1.5366771312        7.1683992353      -50.7565846377  TIP3      15133           0.0000000000
     67650     15325  TIP3      H1             -0.5758045897        7.3983278342      -50.7703831960  TIP3      15133           0.0000000000
     67651     15325  TIP3      H2             -1.7243301489        7.3082475104      -49.8169109842  TIP3      15133           0.0000000000
     67652     15326  TIP3      OH2            -1.4685597700        7.8878835309      -47.9685714665  TIP3      15134           0.0000000000
     67653     15326  TIP3      H1             -2.3539914041        8.1777711361      -47.6599942720  TIP3      15134           0.0000000000
     67654     15326  TIP3      H2             -1.0366412669        8.7475298446      -48.1981474139  TIP3      15134           0.0000000000
     67655     15327  TIP3      OH2           -17.2179896015        6.4305027974      -44.4385676073  TIP3      15135           0.0000000000
     67656     15327  TIP3      H1            -16.2812980777        6.2144796572      -44.2529374937  TIP3      15135           0.0000000000
     67657     15327  TIP3      H2            -17.6763667655        5.6041476666      -44.1717656753  TIP3      15135           0.0000000000
     67658     15328  TIP3      OH2             0.8010336137        1.9540720260      -42.6373985737  TIP3      15136           0.0000000000
     67659     15328  TIP3      H1              1.1541653600        1.2933183146      -43.2579021005  TIP3      15136           0.0000000000
     67660     15328  TIP3      H2              0.9033761548        2.7687670041      -43.1690952832  TIP3      15136           0.0000000000
     67661     15329  TIP3      OH2            -1.5014675771        3.9123776182      -56.1545332676  TIP3      15137           0.0000000000
     67662     15329  TIP3      H1             -1.2895732389        3.4757903297      -55.3013102042  TIP3      15137           0.0000000000
     67663     15329  TIP3      H2             -2.1018961588        3.2727685943      -56.5917550083  TIP3      15137           0.0000000000
     67664     15330  TIP3      OH2           -16.0195556817        4.7174561406      -51.5965772882  TIP3      15138           0.0000000000
     67665     15330  TIP3      H1            -15.5601098138        3.8915251930      -51.3380508763  TIP3      15138           0.0000000000
     67666     15330  TIP3      H2            -15.4696107175        5.4094790305      -51.2056640360  TIP3      15138           0.0000000000
     67667     15331  TIP3      OH2           -17.7379567323        7.7209561707      -50.5604622726  TIP3      15139           0.0000000000
     67668     15331  TIP3      H1            -17.1743486145        7.4691550722      -51.3200914096  TIP3      15139           0.0000000000
     67669     15331  TIP3      H2            -17.2693615510        8.5237787831      -50.2904077546  TIP3      15139           0.0000000000
     67670     15332  TIP3      OH2             0.3218877169        4.0523736176      -44.2821694950  TIP3      15140           0.0000000000
     67671     15332  TIP3      H1             -0.6157824792        4.3239824874      -44.3345802477  TIP3      15140           0.0000000000
     67672     15332  TIP3      H2              0.3553953597        3.5012710104      -45.0789020012  TIP3      15140           0.0000000000
     67673     15333  TIP3      OH2             0.3119009910        3.9468027543      -59.6011670325  TIP3      15141           0.0000000000
     67674     15333  TIP3      H1              0.7241150751        3.2337053142      -60.1386032557  TIP3      15141           0.0000000000
     67675     15333  TIP3      H2              1.0178928048        4.6080179294      -59.5503327587  TIP3      15141           0.0000000000
     67676     15334  TIP3      OH2           -17.3478720471        3.9961730205      -56.4754523862  TIP3      15142           0.0000000000
     67677     15334  TIP3      H1            -18.2958497921        4.1421314520      -56.6289979443  TIP3      15142           0.0000000000
     67678     15334  TIP3      H2            -16.9584478029        4.4750921984      -57.2229933785  TIP3      15142           0.0000000000
     67679     15335  TIP3      OH2            -2.6357675641       18.9326765005      -54.5343913403  TIP3      15143           0.0000000000
     67680     15335  TIP3      H1             -1.9507485835       18.6273125337      -55.1567954556  TIP3      15143           0.0000000000
     67681     15335  TIP3      H2             -2.1187257360       19.4280020357      -53.8822306130  TIP3      15143           0.0000000000
     67682     15336  TIP3      OH2           -17.4264815891        2.6300610823      -48.1925520672  TIP3      15144           0.0000000000
     67683     15336  TIP3      H1            -18.0931264604        2.4399846869      -47.5075626288  TIP3      15144           0.0000000000
     67684     15336  TIP3      H2            -17.8812753058        3.3055895251      -48.7317542821  TIP3      15144           0.0000000000
     67685     15337  TIP3      OH2           -15.1839953874       15.8247372421      -44.0252398037  TIP3      15145           0.0000000000
     67686     15337  TIP3      H1            -16.0252767175       16.0605812932      -44.4500105261  TIP3      15145           0.0000000000
     67687     15337  TIP3      H2            -15.4497342239       15.7530980821      -43.1056238255  TIP3      15145           0.0000000000
     67688     15338  TIP3      OH2           -12.2771700357       16.8247506936      -47.7619119720  TIP3      15146           0.0000000000
     67689     15338  TIP3      H1            -12.6101754808       17.6982919191      -48.0212572452  TIP3      15146           0.0000000000
     67690     15338  TIP3      H2            -11.3497817716       16.9228644223      -48.0596123265  TIP3      15146           0.0000000000
     67691     15339  TIP3      OH2            -7.9642455663       18.2611919959      -44.8476541985  TIP3      15147           0.0000000000
     67692     15339  TIP3      H1             -7.8254554772       17.9085408852      -43.9381133108  TIP3      15147           0.0000000000
     67693     15339  TIP3      H2             -7.0615656613       18.5646004040      -45.0891398065  TIP3      15147           0.0000000000
     67694     15340  TIP3      OH2            -5.6774928188       19.5287510582      -45.5352410107  TIP3      15148           0.0000000000
     67695     15340  TIP3      H1             -4.9446897863       18.9451020774      -45.7736730578  TIP3      15148           0.0000000000
     67696     15340  TIP3      H2             -5.3015247027       19.9677279480      -44.7417434528  TIP3      15148           0.0000000000
     67697     15341  TIP3      OH2            -0.6573123785        2.1421942460      -46.4282512148  TIP3      15149           0.0000000000
     67698     15341  TIP3      H1             -1.4856025133        2.4415402543      -46.8408408389  TIP3      15149           0.0000000000
     67699     15341  TIP3      H2             -0.4893943792        1.3198350524      -46.9464618516  TIP3      15149           0.0000000000
     67700     15342  TIP3      OH2           -14.8613569275       20.0738058645      -47.7581147212  TIP3      15150           0.0000000000
     67701     15342  TIP3      H1            -15.5913610396       20.5744350437      -48.1528187047  TIP3      15150           0.0000000000
     67702     15342  TIP3      H2            -15.1701993872       19.8838165849      -46.8607000428  TIP3      15150           0.0000000000
     67703     15343  TIP3      OH2           -12.3921214280       19.6499444939      -48.6848540923  TIP3      15151           0.0000000000
     67704     15343  TIP3      H1            -13.2841122586       19.8028013878      -48.2900986780  TIP3      15151           0.0000000000
     67705     15343  TIP3      H2            -12.4462030814       20.2414581923      -49.4572166052  TIP3      15151           0.0000000000
     67706     15344  TIP3      OH2            -7.6833989540       19.5644660475      -49.5160944324  TIP3      15152           0.0000000000
     67707     15344  TIP3      H1             -8.1538484757       20.1117481586      -50.1625095632  TIP3      15152           0.0000000000
     67708     15344  TIP3      H2             -7.5543741450       20.1969314030      -48.7776970602  TIP3      15152           0.0000000000
     67709     15345  TIP3      OH2            -5.3987652097       18.3716666179      -48.4809206000  TIP3      15153           0.0000000000
     67710     15345  TIP3      H1             -6.2509345231       18.6506113877      -48.8539010875  TIP3      15153           0.0000000000
     67711     15345  TIP3      H2             -4.9112543692       19.2084295140      -48.5754191870  TIP3      15153           0.0000000000
     67712     15346  TIP3      OH2            -2.8155848915       19.9417333175      -48.2642471486  TIP3      15154           0.0000000000
     67713     15346  TIP3      H1             -2.8674454735       20.9028859234      -48.4914191179  TIP3      15154           0.0000000000
     67714     15346  TIP3      H2             -2.5976690289       19.5690079607      -49.1411477335  TIP3      15154           0.0000000000
     67715     15347  TIP3      OH2           -15.3997301671       18.7238256397      -50.8126607995  TIP3      15155           0.0000000000
     67716     15347  TIP3      H1            -15.4816479782       18.2624924118      -49.9511210174  TIP3      15155           0.0000000000
     67717     15347  TIP3      H2            -14.5854361716       18.3438042782      -51.2014161509  TIP3      15155           0.0000000000
     67718     15348  TIP3      OH2           -13.3302447820       17.4413177073      -52.1556510648  TIP3      15156           0.0000000000
     67719     15348  TIP3      H1            -13.4942524531       16.5058654180      -51.9258583076  TIP3      15156           0.0000000000
     67720     15348  TIP3      H2            -12.4694869900       17.5892466384      -51.7095694769  TIP3      15156           0.0000000000
     67721     15349  TIP3      OH2           -10.7109163903       17.8950941860      -51.3011993557  TIP3      15157           0.0000000000
     67722     15349  TIP3      H1            -10.5646378304       16.9708038647      -51.5461643782  TIP3      15157           0.0000000000
     67723     15349  TIP3      H2            -10.6753648557       17.8537590445      -50.3322846275  TIP3      15157           0.0000000000
     67724     15350  TIP3      OH2            -7.2666371981        3.5696677270      -52.1475940856  TIP3      15158           0.0000000000
     67725     15350  TIP3      H1             -7.9379816241        2.9280865361      -51.8582556360  TIP3      15158           0.0000000000
     67726     15350  TIP3      H2             -6.7132710501        3.0328805683      -52.7256838801  TIP3      15158           0.0000000000
     67727     15351  TIP3      OH2            -2.1310471270        1.6158476404      -52.0825822498  TIP3      15159           0.0000000000
     67728     15351  TIP3      H1             -1.5194318813        2.2096340855      -52.5885143530  TIP3      15159           0.0000000000
     67729     15351  TIP3      H2             -3.0131768389        1.9780352721      -52.3109798335  TIP3      15159           0.0000000000
     67730     15352  TIP3      OH2            -0.4644545734        2.8671768904      -53.8041959673  TIP3      15160           0.0000000000
     67731     15352  TIP3      H1              0.2235705052        2.2915238371      -54.2188992508  TIP3      15160           0.0000000000
     67732     15352  TIP3      H2              0.0438851742        3.7031897110      -53.6969569937  TIP3      15160           0.0000000000
     67733     15353  TIP3      OH2           -14.8709819675        2.2058632899      -54.3274270750  TIP3      15161           0.0000000000
     67734     15353  TIP3      H1            -15.7036084408        1.9994285436      -54.8034147054  TIP3      15161           0.0000000000
     67735     15353  TIP3      H2            -14.4549047670        1.3213328881      -54.3423234035  TIP3      15161           0.0000000000
     67736     15354  TIP3      OH2           -16.0952800299        1.9579869239      -58.5414554909  TIP3      15162           0.0000000000
     67737     15354  TIP3      H1            -15.6594475846        2.6041975351      -59.1261983547  TIP3      15162           0.0000000000
     67738     15354  TIP3      H2            -16.7146781084        2.5149182695      -58.0459498946  TIP3      15162           0.0000000000
     67739     15355  TIP3      OH2           -10.4479666444        2.2147913540      -54.5211136649  TIP3      15163           0.0000000000
     67740     15355  TIP3      H1             -9.5025599410        2.4522525081      -54.5707922778  TIP3      15163           0.0000000000
     67741     15355  TIP3      H2            -10.4648477034        1.8950147929      -53.6073466736  TIP3      15163           0.0000000000
     67742     15356  TIP3      OH2            -4.7126592985        2.1388230105      -52.8870672642  TIP3      15164           0.0000000000
     67743     15356  TIP3      H1             -4.7606485824        2.2515345898      -53.8449824343  TIP3      15164           0.0000000000
     67744     15356  TIP3      H2             -5.0891157714        1.2341053918      -52.7588083808  TIP3      15164           0.0000000000
     67745     15357  TIP3      OH2            -3.4444838395        2.1685730476      -57.2009513087  TIP3      15165           0.0000000000
     67746     15357  TIP3      H1             -4.1929230210        2.7611318716      -57.3618572875  TIP3      15165           0.0000000000
     67747     15357  TIP3      H2             -3.8832214082        1.3156312897      -56.9680624821  TIP3      15165           0.0000000000
     67748     15358  TIP3      OH2           -16.2125717104       17.8969666392      -57.5409754063  TIP3      15166           0.0000000000
     67749     15358  TIP3      H1            -16.8750725406       17.8850351347      -58.2544403140  TIP3      15166           0.0000000000
     67750     15358  TIP3      H2            -16.2162922430       18.8520757745      -57.3721664980  TIP3      15166           0.0000000000
     67751     15359  TIP3      OH2           -14.3291806176        3.8648373619      -60.0693283773  TIP3      15167           0.0000000000
     67752     15359  TIP3      H1            -13.7892381846        3.2748515858      -60.6222366859  TIP3      15167           0.0000000000
     67753     15359  TIP3      H2            -13.6454449430        4.2320537357      -59.4838457362  TIP3      15167           0.0000000000
     67754     15360  TIP3      OH2            -9.4060999104        4.1406866363      -57.5733526998  TIP3      15168           0.0000000000
     67755     15360  TIP3      H1             -8.9265485622        3.5630465519      -56.9449008941  TIP3      15168           0.0000000000
     67756     15360  TIP3      H2             -9.1062840554        5.0186168292      -57.2174409580  TIP3      15168           0.0000000000
     67757     15361  TIP3      OH2            -7.3408240994       19.2041143693      -59.2112133285  TIP3      15169           0.0000000000
     67758     15361  TIP3      H1             -6.4234984907       19.4355292361      -59.4340559569  TIP3      15169           0.0000000000
     67759     15361  TIP3      H2             -7.5615577864       18.6867266327      -60.0139029778  TIP3      15169           0.0000000000
     67760     15362  TIP3      OH2            -0.6480556867       18.6983714961      -56.4876547332  TIP3      15170           0.0000000000
     67761     15362  TIP3      H1             -0.8373269195       17.9200470151      -57.0624975616  TIP3      15170           0.0000000000
     67762     15362  TIP3      H2             -0.7157122333       19.4326411481      -57.1311305983  TIP3      15170           0.0000000000
     67763     15363  TIP3      OH2           -15.0110694456        2.7387189502      -44.8476496006  TIP3      15171           0.0000000000
     67764     15363  TIP3      H1            -15.4007658689        1.9418913923      -44.4408609815  TIP3      15171           0.0000000000
     67765     15363  TIP3      H2            -14.1031936891        2.6950296489      -44.4647225947  TIP3      15171           0.0000000000
     67766     15364  TIP3      OH2           -13.0113326741        2.1197488007      -43.2018428456  TIP3      15172           0.0000000000
     67767     15364  TIP3      H1            -12.1183147678        1.7829488471      -43.4190349164  TIP3      15172           0.0000000000
     67768     15364  TIP3      H2            -13.3849428774        1.3123852507      -42.7991017660  TIP3      15172           0.0000000000
     67769     15365  TIP3      OH2           -14.4216390312       18.8843979159      -60.6056945361  TIP3      15173           0.0000000000
     67770     15365  TIP3      H1            -14.6809625734       19.1403230916      -59.7089055500  TIP3      15173           0.0000000000
     67771     15365  TIP3      H2            -13.6381348805       18.3198179640      -60.4506099606  TIP3      15173           0.0000000000
     67772     15366  TIP3      OH2            -4.6086202037        1.4047123726      -43.0528907561  TIP3      15174           0.0000000000
     67773     15366  TIP3      H1             -4.5132882420        0.9332644463      -42.2030363064  TIP3      15174           0.0000000000
     67774     15366  TIP3      H2             -3.6913159737        1.3721323094      -43.3963245394  TIP3      15174           0.0000000000
     67775     15367  TIP3      OH2            -1.3981787636       17.4572707452      -44.4205530028  TIP3      15175           0.0000000000
     67776     15367  TIP3      H1             -2.2020014887       17.3214773326      -44.9665516689  TIP3      15175           0.0000000000
     67777     15367  TIP3      H2             -1.5146311220       18.4042482152      -44.2036419292  TIP3      15175           0.0000000000
     67778     15368  TIP3      OH2            13.0357420845       11.3161126473      -54.4641431880  TIP3      15176           0.0000000000
     67779     15368  TIP3      H1             13.0479590152       12.3024490489      -54.4471890340  TIP3      15176           0.0000000000
     67780     15368  TIP3      H2             12.3007511078       11.1101800156      -55.0588774275  TIP3      15176           0.0000000000
     67781     15369  TIP3      OH2            11.8713227338       10.5835848541      -50.9397570553  TIP3      15177           0.0000000000
     67782     15369  TIP3      H1             11.8860326579        9.9348580811      -50.2229264160  TIP3      15177           0.0000000000
     67783     15369  TIP3      H2             11.5432719688       10.0698628519      -51.6953039777  TIP3      15177           0.0000000000
     67784     15370  TIP3      OH2             4.2538486624       10.2664270849      -49.3870868085  TIP3      15178           0.0000000000
     67785     15370  TIP3      H1              4.3376079735        9.5782811418      -48.6940203376  TIP3      15178           0.0000000000
     67786     15370  TIP3      H2              5.0036166294       10.8365467585      -49.1633352884  TIP3      15178           0.0000000000
     67787     15371  TIP3      OH2            15.1721898688       13.6147631282      -52.8538867479  TIP3      15179           0.0000000000
     67788     15371  TIP3      H1             15.2182278749       12.8495463092      -52.2562848086  TIP3      15179           0.0000000000
     67789     15371  TIP3      H2             15.6471120796       14.1531618680      -52.1827329039  TIP3      15179           0.0000000000
     67790     15372  TIP3      OH2             5.1794062967       14.7141218886      -50.8867096080  TIP3      15180           0.0000000000
     67791     15372  TIP3      H1              4.8693896292       13.8441515513      -51.2041601364  TIP3      15180           0.0000000000
     67792     15372  TIP3      H2              6.1351040381       14.5314912858      -50.8408709353  TIP3      15180           0.0000000000
     67793     15373  TIP3      OH2             1.8174199104        8.2689928271      -55.3938474851  TIP3      15181           0.0000000000
     67794     15373  TIP3      H1              1.3819549448        9.1396003789      -55.4598793342  TIP3      15181           0.0000000000
     67795     15373  TIP3      H2              1.2568831257        7.7284546726      -55.9656452093  TIP3      15181           0.0000000000
     67796     15374  TIP3      OH2             2.5310989424       10.4960288414      -53.2462611088  TIP3      15182           0.0000000000
     67797     15374  TIP3      H1              2.8055350852        9.6736498117      -52.7984126802  TIP3      15182           0.0000000000
     67798     15374  TIP3      H2              3.2243788223       10.6027587553      -53.9151631648  TIP3      15182           0.0000000000
     67799     15375  TIP3      OH2            12.7041710207       18.7000109238      -52.4144086022  TIP3      15183           0.0000000000
     67800     15375  TIP3      H1             13.3506227490       18.0102786893      -52.7044318666  TIP3      15183           0.0000000000
     67801     15375  TIP3      H2             12.4901116501       18.3588420423      -51.5452801305  TIP3      15183           0.0000000000
     67802     15376  TIP3      OH2            10.2748013833       12.9845606511      -50.4649055398  TIP3      15184           0.0000000000
     67803     15376  TIP3      H1             10.6196711252       12.3621795330      -51.1231703204  TIP3      15184           0.0000000000
     67804     15376  TIP3      H2             11.0855642542       13.1509407611      -49.9503103606  TIP3      15184           0.0000000000
     67805     15377  TIP3      OH2            18.8696371216        4.6510957213      -49.7494724253  TIP3      15185           0.0000000000
     67806     15377  TIP3      H1             19.0474998304        5.2345152602      -48.9791789894  TIP3      15185           0.0000000000
     67807     15377  TIP3      H2             19.4501273743        5.0617834687      -50.4079423385  TIP3      15185           0.0000000000
     67808     15378  TIP3      OH2            13.4356665685        7.4478980392      -50.1485374262  TIP3      15186           0.0000000000
     67809     15378  TIP3      H1             13.6122968432        6.4916490527      -50.1487274545  TIP3      15186           0.0000000000
     67810     15378  TIP3      H2             13.3403626860        7.5958321683      -51.1095045217  TIP3      15186           0.0000000000
     67811     15379  TIP3      OH2             6.5567377589        5.5476070734      -52.9389545912  TIP3      15187           0.0000000000
     67812     15379  TIP3      H1              6.6651974198        6.3816226725      -53.4321513103  TIP3      15187           0.0000000000
     67813     15379  TIP3      H2              6.1591694165        4.9734642164      -53.6286364081  TIP3      15187           0.0000000000
     67814     15380  TIP3      OH2            14.2932617831        5.6230317959      -54.5671140563  TIP3      15188           0.0000000000
     67815     15380  TIP3      H1             14.9446843671        5.3103301685      -53.8970336240  TIP3      15188           0.0000000000
     67816     15380  TIP3      H2             14.8579262219        6.2041432438      -55.0975830602  TIP3      15188           0.0000000000
     67817     15381  TIP3      OH2             3.1821147340        7.9576520040      -52.2044185937  TIP3      15189           0.0000000000
     67818     15381  TIP3      H1              3.8513612852        7.4136112222      -51.7492468053  TIP3      15189           0.0000000000
     67819     15381  TIP3      H2              3.2875987621        7.6430319773      -53.1155105495  TIP3      15189           0.0000000000
     67820     15382  TIP3      OH2             8.3378757284        9.5134197321      -52.8822290635  TIP3      15190           0.0000000000
     67821     15382  TIP3      H1              9.0120065363        8.9325853820      -52.4899177596  TIP3      15190           0.0000000000
     67822     15382  TIP3      H2              7.8230188656        8.8549377188      -53.3895860255  TIP3      15190           0.0000000000
     67823     15383  TIP3      OH2            19.2892182469        6.0370354829      -47.4537531363  TIP3      15191           0.0000000000
     67824     15383  TIP3      H1             18.7214763521        6.8326633249      -47.5883190333  TIP3      15191           0.0000000000
     67825     15383  TIP3      H2             19.3730434894        6.0051096109      -46.4974902890  TIP3      15191           0.0000000000
     67826     15384  TIP3      OH2             5.4676845040        4.4467429396      -48.8987642615  TIP3      15192           0.0000000000
     67827     15384  TIP3      H1              5.1849268877        5.0182001174      -49.6441052807  TIP3      15192           0.0000000000
     67828     15384  TIP3      H2              4.7899673401        4.6746351563      -48.2165062613  TIP3      15192           0.0000000000
     67829     15385  TIP3      OH2            12.7522252349       13.9196455788      -55.3514137358  TIP3      15193           0.0000000000
     67830     15385  TIP3      H1             12.4837093077       13.6483368285      -56.2374280608  TIP3      15193           0.0000000000
     67831     15385  TIP3      H2             12.4508058924       14.8556969913      -55.2976303841  TIP3      15193           0.0000000000
     67832     15386  TIP3      OH2             7.9761897061       12.0874752000      -48.6600738025  TIP3      15194           0.0000000000
     67833     15386  TIP3      H1              7.2735432543       12.7339878060      -48.4385915826  TIP3      15194           0.0000000000
     67834     15386  TIP3      H2              8.6842615485       12.6849384884      -48.9494584436  TIP3      15194           0.0000000000
     67835     15387  TIP3      OH2            16.1011642028        4.9748412917      -52.5825929222  TIP3      15195           0.0000000000
     67836     15387  TIP3      H1             15.8883731616        4.2052515771      -52.0472840102  TIP3      15195           0.0000000000
     67837     15387  TIP3      H2             16.7794214989        5.4136315888      -52.0432336091  TIP3      15195           0.0000000000
     67838     15388  TIP3      OH2             5.0350191411        6.3021889087      -50.8631682925  TIP3      15196           0.0000000000
     67839     15388  TIP3      H1              5.6634191733        6.9915197740      -50.5518222400  TIP3      15196           0.0000000000
     67840     15388  TIP3      H2              5.5516002430        5.8923682881      -51.6016022940  TIP3      15196           0.0000000000
     67841     15389  TIP3      OH2             6.4285036256       14.0950751286      -47.8388588993  TIP3      15197           0.0000000000
     67842     15389  TIP3      H1              6.3790056580       15.0081857600      -48.1765086589  TIP3      15197           0.0000000000
     67843     15389  TIP3      H2              5.5458778655       14.0142398383      -47.3962377015  TIP3      15197           0.0000000000
     67844     15390  TIP3      OH2             2.5079957491       13.7027786866      -57.0473807458  TIP3      15198           0.0000000000
     67845     15390  TIP3      H1              2.2572753292       14.0424707063      -57.9242216199  TIP3      15198           0.0000000000
     67846     15390  TIP3      H2              2.5874020979       14.5302470947      -56.5317984462  TIP3      15198           0.0000000000
     67847     15391  TIP3      OH2            15.8966061177       15.8818572082      -49.8453637197  TIP3      15199           0.0000000000
     67848     15391  TIP3      H1             15.0697784806       15.5661989520      -50.2387072784  TIP3      15199           0.0000000000
     67849     15391  TIP3      H2             16.3006877401       16.4129745440      -50.5548090618  TIP3      15199           0.0000000000
     67850     15392  TIP3      OH2            16.4398559980        3.6788177597      -48.8502359944  TIP3      15200           0.0000000000
     67851     15392  TIP3      H1             15.7065861150        4.2880585895      -49.0165193089  TIP3      15200           0.0000000000
     67852     15392  TIP3      H2             17.1410071976        4.0607553618      -49.4244032245  TIP3      15200           0.0000000000
     67853     15393  TIP3      OH2             9.4035633985        1.7806166562      -51.4322231018  TIP3      15201           0.0000000000
     67854     15393  TIP3      H1              9.2604022389        0.8172950654      -51.5091831734  TIP3      15201           0.0000000000
     67855     15393  TIP3      H2              8.5254250747        2.0863402449      -51.1262303316  TIP3      15201           0.0000000000
     67856     15394  TIP3      OH2            14.3634639399       17.1752211806      -53.7132040188  TIP3      15202           0.0000000000
     67857     15394  TIP3      H1             14.8043919426       16.4362335494      -54.1839859366  TIP3      15202           0.0000000000
     67858     15394  TIP3      H2             14.8115374207       17.9552248550      -54.1010817558  TIP3      15202           0.0000000000
     67859     15395  TIP3      OH2            15.5875493689       15.0937162372      -55.2169177567  TIP3      15203           0.0000000000
     67860     15395  TIP3      H1             15.2830751299       14.3759983361      -55.7894964580  TIP3      15203           0.0000000000
     67861     15395  TIP3      H2             15.5925014582       14.6139628494      -54.3577049363  TIP3      15203           0.0000000000
     67862     15396  TIP3      OH2            17.2094644834       13.6796165750      -46.6814825334  TIP3      15204           0.0000000000
     67863     15396  TIP3      H1             17.3491515861       13.0313007530      -47.4070075961  TIP3      15204           0.0000000000
     67864     15396  TIP3      H2             17.4026672125       14.5275241042      -47.1280200975  TIP3      15204           0.0000000000
     67865     15397  TIP3      OH2            11.7017286274       10.5665262832      -56.9275030282  TIP3      15205           0.0000000000
     67866     15397  TIP3      H1             11.0097546727       11.1482671158      -57.2882311080  TIP3      15205           0.0000000000
     67867     15397  TIP3      H2             12.4130370141       10.6651075390      -57.5867090953  TIP3      15205           0.0000000000
     67868     15398  TIP3      OH2            11.7838488231        9.1401320324      -59.9156582657  TIP3      15206           0.0000000000
     67869     15398  TIP3      H1             12.4880441863        9.1210546065      -59.2501547075  TIP3      15206           0.0000000000
     67870     15398  TIP3      H2             12.0892744425        8.4216186119      -60.4842452813  TIP3      15206           0.0000000000
     67871     15399  TIP3      OH2            19.1189845339        9.9731005549      -48.6419260132  TIP3      15207           0.0000000000
     67872     15399  TIP3      H1             18.4540357907       10.6990813868      -48.5906349827  TIP3      15207           0.0000000000
     67873     15399  TIP3      H2             19.5892942776       10.2467175423      -49.4557067870  TIP3      15207           0.0000000000
     67874     15400  TIP3      OH2            15.1626759006       10.7789778569      -55.9987897942  TIP3      15208           0.0000000000
     67875     15400  TIP3      H1             14.4270673241       11.0354592368      -55.3909619244  TIP3      15208           0.0000000000
     67876     15400  TIP3      H2             15.6316908921       10.1118893381      -55.4676982763  TIP3      15208           0.0000000000
     67877     15401  TIP3      OH2            15.0791216608        8.9483074916      -46.8812511468  TIP3      15209           0.0000000000
     67878     15401  TIP3      H1             15.0890493980        9.7581814690      -46.3447956941  TIP3      15209           0.0000000000
     67879     15401  TIP3      H2             14.4671339675        9.2578050993      -47.5819654191  TIP3      15209           0.0000000000
     67880     15402  TIP3      OH2             6.7599415840       11.4373483340      -54.0840123470  TIP3      15210           0.0000000000
     67881     15402  TIP3      H1              6.4414854155       11.0497535320      -54.9348128920  TIP3      15210           0.0000000000
     67882     15402  TIP3      H2              7.3769793001       10.7482911315      -53.7514335281  TIP3      15210           0.0000000000
     67883     15403  TIP3      OH2             8.0791069760       14.8222666707      -51.4038777205  TIP3      15211           0.0000000000
     67884     15403  TIP3      H1              8.0825170276       14.3017611586      -52.2141523717  TIP3      15211           0.0000000000
     67885     15403  TIP3      H2              8.8641053789       14.4690018726      -50.9463861321  TIP3      15211           0.0000000000
     67886     15404  TIP3      OH2             7.0906907601       10.1881628400      -50.4218129335  TIP3      15212           0.0000000000
     67887     15404  TIP3      H1              7.6388991585       10.2855686438      -51.2251750328  TIP3      15212           0.0000000000
     67888     15404  TIP3      H2              7.4846858577       10.8531263480      -49.8140683662  TIP3      15212           0.0000000000
     67889     15405  TIP3      OH2            13.2814087274       15.7737494861      -49.7588629122  TIP3      15213           0.0000000000
     67890     15405  TIP3      H1             13.2441510767       16.3986998653      -49.0309789953  TIP3      15213           0.0000000000
     67891     15405  TIP3      H2             13.2802596254       14.9054921002      -49.2927342178  TIP3      15213           0.0000000000
     67892     15406  TIP3      OH2             8.0445263385       14.6187173901      -45.7279095320  TIP3      15214           0.0000000000
     67893     15406  TIP3      H1              7.6292183944       15.3575321115      -45.2377680710  TIP3      15214           0.0000000000
     67894     15406  TIP3      H2              7.3743017036       14.4181411298      -46.4264446474  TIP3      15214           0.0000000000
     67895     15407  TIP3      OH2            14.0310226761        9.9878122957      -58.3344700446  TIP3      15215           0.0000000000
     67896     15407  TIP3      H1             14.5836286344       10.1671847262      -57.5319232343  TIP3      15215           0.0000000000
     67897     15407  TIP3      H2             14.4807013964       10.4798596360      -59.0578298463  TIP3      15215           0.0000000000
     67898     15408  TIP3      OH2             4.9861831020       10.7774031774      -46.5746360027  TIP3      15216           0.0000000000
     67899     15408  TIP3      H1              5.0392225715       11.4458383636      -45.8662856276  TIP3      15216           0.0000000000
     67900     15408  TIP3      H2              4.0437809436       10.8659505055      -46.7863725728  TIP3      15216           0.0000000000
     67901     15409  TIP3      OH2            11.7379736046       16.7087727698      -54.8736315183  TIP3      15217           0.0000000000
     67902     15409  TIP3      H1             12.1688913958       17.0095307611      -54.0641522430  TIP3      15217           0.0000000000
     67903     15409  TIP3      H2             11.1828157421       17.4576945134      -55.1019250747  TIP3      15217           0.0000000000
     67904     15410  TIP3      OH2             6.2912967935       16.6523562451      -44.9813048280  TIP3      15218           0.0000000000
     67905     15410  TIP3      H1              6.2298055510       16.5540245186      -45.9468882775  TIP3      15218           0.0000000000
     67906     15410  TIP3      H2              5.3615115386       16.5188031368      -44.7134734298  TIP3      15218           0.0000000000
     67907     15411  TIP3      OH2            17.7530848502        1.7137721262      -58.4309872945  TIP3      15219           0.0000000000
     67908     15411  TIP3      H1             16.8048749618        1.8293063786      -58.1935638246  TIP3      15219           0.0000000000
     67909     15411  TIP3      H2             17.9536015057        2.5545276323      -58.8778461472  TIP3      15219           0.0000000000
     67910     15412  TIP3      OH2             5.7205343452       10.4593350393      -56.4543246211  TIP3      15220           0.0000000000
     67911     15412  TIP3      H1              5.4444152038       11.2438420844      -56.9743622516  TIP3      15220           0.0000000000
     67912     15412  TIP3      H2              5.0762199085        9.7945806932      -56.7031008457  TIP3      15220           0.0000000000
     67913     15413  TIP3      OH2            18.8658702820       16.0685192898      -60.0880941347  TIP3      15221           0.0000000000
     67914     15413  TIP3      H1             19.0320461696       17.0094815519      -59.9128096440  TIP3      15221           0.0000000000
     67915     15413  TIP3      H2             19.7887556521       15.7537668117      -60.0881404434  TIP3      15221           0.0000000000
     67916     15414  TIP3      OH2             1.8161129501       12.8929830710      -47.5678401197  TIP3      15222           0.0000000000
     67917     15414  TIP3      H1              1.3764146937       12.8126153263      -48.4353844102  TIP3      15222           0.0000000000
     67918     15414  TIP3      H2              1.9018266908       11.9438755868      -47.3552444115  TIP3      15222           0.0000000000
     67919     15415  TIP3      OH2             1.5808019085       15.6280968408      -50.7955334902  TIP3      15223           0.0000000000
     67920     15415  TIP3      H1              2.5391597835       15.5127141064      -50.8155785492  TIP3      15223           0.0000000000
     67921     15415  TIP3      H2              1.4987655386       16.4465596409      -50.2912624165  TIP3      15223           0.0000000000
     67922     15416  TIP3      OH2            19.8283547073       16.3400871869      -45.0687772036  TIP3      15224           0.0000000000
     67923     15416  TIP3      H1             19.7057845844       15.3805640131      -45.1362938771  TIP3      15224           0.0000000000
     67924     15416  TIP3      H2             18.9422115914       16.5811793677      -44.7110208988  TIP3      15224           0.0000000000
     67925     15417  TIP3      OH2            10.7772663318       15.8723578801      -46.2436384774  TIP3      15225           0.0000000000
     67926     15417  TIP3      H1             10.8358508666       16.7147929993      -45.7352896530  TIP3      15225           0.0000000000
     67927     15417  TIP3      H2              9.9047342793       15.5125775449      -45.9931461453  TIP3      15225           0.0000000000
     67928     15418  TIP3      OH2            11.2220999827       19.6141170845      -56.4547082297  TIP3      15226           0.0000000000
     67929     15418  TIP3      H1             11.1101231346       19.5368797914      -57.4195444671  TIP3      15226           0.0000000000
     67930     15418  TIP3      H2             11.2233291045       20.5764300733      -56.2979350536  TIP3      15226           0.0000000000
     67931     15419  TIP3      OH2             4.8560549899       18.4946628536      -54.6302927061  TIP3      15227           0.0000000000
     67932     15419  TIP3      H1              5.0047193296       18.0776360087      -53.7504357928  TIP3      15227           0.0000000000
     67933     15419  TIP3      H2              4.0090554206       18.0834702287      -54.8691815147  TIP3      15227           0.0000000000
     67934     15420  TIP3      OH2            14.2767741128       18.8322069922      -59.4757013675  TIP3      15228           0.0000000000
     67935     15420  TIP3      H1             14.7293128116       18.0690271567      -59.9063384278  TIP3      15228           0.0000000000
     67936     15420  TIP3      H2             14.3128599512       18.5713649457      -58.5311081759  TIP3      15228           0.0000000000
     67937     15421  TIP3      OH2            13.9729256497       18.7630251607      -56.6949533387  TIP3      15229           0.0000000000
     67938     15421  TIP3      H1             13.0107189090       18.8380588096      -56.5253491707  TIP3      15229           0.0000000000
     67939     15421  TIP3      H2             14.2028366439       18.0188338560      -56.1169878603  TIP3      15229           0.0000000000
     67940     15422  TIP3      OH2            16.9470602678        7.7728989981      -44.6104807002  TIP3      15230           0.0000000000
     67941     15422  TIP3      H1             16.5265465051        8.2756448636      -45.3341011847  TIP3      15230           0.0000000000
     67942     15422  TIP3      H2             16.9566046692        6.8825003871      -44.9716639669  TIP3      15230           0.0000000000
     67943     15423  TIP3      OH2             4.1083072516       14.2087350701      -46.6312165123  TIP3      15231           0.0000000000
     67944     15423  TIP3      H1              4.3293453410       13.8441398708      -45.7491879943  TIP3      15231           0.0000000000
     67945     15423  TIP3      H2              3.2385628758       13.8113453526      -46.8438456466  TIP3      15231           0.0000000000
     67946     15424  TIP3      OH2             6.7880128531        2.6831703269      -50.6824413322  TIP3      15232           0.0000000000
     67947     15424  TIP3      H1              5.8847275822        2.5566273815      -51.0498133657  TIP3      15232           0.0000000000
     67948     15424  TIP3      H2              6.6537831355        3.5135788295      -50.1964065543  TIP3      15232           0.0000000000
     67949     15425  TIP3      OH2            11.4253164039        2.3489023935      -47.3271959416  TIP3      15233           0.0000000000
     67950     15425  TIP3      H1             11.8098504262        1.9172482116      -46.5436213234  TIP3      15233           0.0000000000
     67951     15425  TIP3      H2             10.4547984176        2.2352222955      -47.1782576071  TIP3      15233           0.0000000000
     67952     15426  TIP3      OH2            14.7331886877        6.1993425489      -46.4037014356  TIP3      15234           0.0000000000
     67953     15426  TIP3      H1             14.1191162771        6.0073703109      -45.6563054825  TIP3      15234           0.0000000000
     67954     15426  TIP3      H2             14.5362545293        7.1188993927      -46.6708640498  TIP3      15234           0.0000000000
     67955     15427  TIP3      OH2            15.4753852456       11.0175108756      -60.5244706587  TIP3      15235           0.0000000000
     67956     15427  TIP3      H1             15.4553322864       10.8231151342      -61.4903035659  TIP3      15235           0.0000000000
     67957     15427  TIP3      H2             16.3353403124       11.4583026987      -60.4714193550  TIP3      15235           0.0000000000
     67958     15428  TIP3      OH2            11.0715709042        4.9374640204      -60.0121587331  TIP3      15236           0.0000000000
     67959     15428  TIP3      H1             10.7571282700        4.8741219851      -59.0918095915  TIP3      15236           0.0000000000
     67960     15428  TIP3      H2             10.7636339040        4.0599512790      -60.3181466983  TIP3      15236           0.0000000000
     67961     15429  TIP3      OH2             6.8865960530        7.6574262853      -49.4211198129  TIP3      15237           0.0000000000
     67962     15429  TIP3      H1              6.1473996161        7.6482348688      -48.7873467993  TIP3      15237           0.0000000000
     67963     15429  TIP3      H2              6.8414267665        8.5641138623      -49.7995936488  TIP3      15237           0.0000000000
     67964     15430  TIP3      OH2             6.8511614962        7.7708488342      -54.5631407821  TIP3      15238           0.0000000000
     67965     15430  TIP3      H1              5.9128486761        7.5226548722      -54.6953789761  TIP3      15238           0.0000000000
     67966     15430  TIP3      H2              7.2267121642        7.4823475573      -55.4184741217  TIP3      15238           0.0000000000
     67967     15431  TIP3      OH2            12.3699547880        8.2760900063      -55.7864393733  TIP3      15239           0.0000000000
     67968     15431  TIP3      H1             11.9775737018        9.0996687831      -56.1586161844  TIP3      15239           0.0000000000
     67969     15431  TIP3      H2             13.0603340243        8.1034599379      -56.4502871169  TIP3      15239           0.0000000000
     67970     15432  TIP3      OH2            11.4242318021        8.4850029284      -44.3586952421  TIP3      15240           0.0000000000
     67971     15432  TIP3      H1             10.8983448723        7.7108416529      -44.0463025169  TIP3      15240           0.0000000000
     67972     15432  TIP3      H2             12.2627257880        8.3651276006      -43.8818118187  TIP3      15240           0.0000000000
     67973     15433  TIP3      OH2            13.4055040266        7.7705247214      -52.9492467765  TIP3      15241           0.0000000000
     67974     15433  TIP3      H1             13.1196191188        8.3312892041      -53.6894885523  TIP3      15241           0.0000000000
     67975     15433  TIP3      H2             13.4992851708        6.9189069934      -53.4172020721  TIP3      15241           0.0000000000
     67976     15434  TIP3      OH2             4.5104917473        7.9062918745      -47.7500181831  TIP3      15242           0.0000000000
     67977     15434  TIP3      H1              4.5942437075        8.3141963692      -46.8705296421  TIP3      15242           0.0000000000
     67978     15434  TIP3      H2              4.0706516732        7.0674754025      -47.5392185582  TIP3      15242           0.0000000000
     67979     15435  TIP3      OH2             7.8827001759        5.3035050650      -60.8943079058  TIP3      15243           0.0000000000
     67980     15435  TIP3      H1              7.4286842398        4.8823302417      -60.1362469598  TIP3      15243           0.0000000000
     67981     15435  TIP3      H2              7.1729468649        5.7351928537      -61.3854275612  TIP3      15243           0.0000000000
     67982     15436  TIP3      OH2             1.1696645017        5.0155514025      -53.7596434874  TIP3      15244           0.0000000000
     67983     15436  TIP3      H1              1.8541568028        4.9762146629      -53.0593097406  TIP3      15244           0.0000000000
     67984     15436  TIP3      H2              1.6172777869        4.6418958217      -54.5407800335  TIP3      15244           0.0000000000
     67985     15437  TIP3      OH2             2.4331896729        5.7340971358      -58.4148738445  TIP3      15245           0.0000000000
     67986     15437  TIP3      H1              2.9473098429        6.3466215082      -58.9717905486  TIP3      15245           0.0000000000
     67987     15437  TIP3      H2              1.7468625475        6.3575662524      -58.0938072995  TIP3      15245           0.0000000000
     67988     15438  TIP3      OH2            12.5931011823        9.3490827416      -48.3982640765  TIP3      15246           0.0000000000
     67989     15438  TIP3      H1             12.9813966904        8.6640881992      -48.9795942265  TIP3      15246           0.0000000000
     67990     15438  TIP3      H2             12.1341299304        8.8217435133      -47.7218178978  TIP3      15246           0.0000000000
     67991     15439  TIP3      OH2             9.4041475013        5.3325779453      -53.5590173376  TIP3      15247           0.0000000000
     67992     15439  TIP3      H1              8.4701456632        5.3321981565      -53.2661923611  TIP3      15247           0.0000000000
     67993     15439  TIP3      H2              9.8860721809        5.1571147744      -52.7365398414  TIP3      15247           0.0000000000
     67994     15440  TIP3      OH2             4.2127770513        6.8775500393      -54.6899726466  TIP3      15248           0.0000000000
     67995     15440  TIP3      H1              3.3292092424        7.0343360766      -55.0815756681  TIP3      15248           0.0000000000
     67996     15440  TIP3      H2              4.4971314542        6.0437111427      -55.0997031364  TIP3      15248           0.0000000000
     67997     15441  TIP3      OH2             7.8569686921        6.9250976732      -57.0643901704  TIP3      15249           0.0000000000
     67998     15441  TIP3      H1              8.8128249350        7.0364346862      -56.9034963164  TIP3      15249           0.0000000000
     67999     15441  TIP3      H2              7.6197312026        7.6082311269      -57.7194940349  TIP3      15249           0.0000000000
     68000     15442  TIP3      OH2            13.8086079236        4.5686321208      -50.3201257963  TIP3      15250           0.0000000000
     68001     15442  TIP3      H1             13.1264972577        4.6111516810      -49.6137714396  TIP3      15250           0.0000000000
     68002     15442  TIP3      H2             13.2995856396        4.3075908584      -51.1020319163  TIP3      15250           0.0000000000
     68003     15443  TIP3      OH2             6.5628702736        8.1019465257      -59.4757049167  TIP3      15251           0.0000000000
     68004     15443  TIP3      H1              6.0299364297        7.7224538643      -60.1953072652  TIP3      15251           0.0000000000
     68005     15443  TIP3      H2              7.3834074529        8.3094092958      -59.9492794927  TIP3      15251           0.0000000000
     68006     15444  TIP3      OH2            17.0084604763       20.2043295621      -43.9938745747  TIP3      15252           0.0000000000
     68007     15444  TIP3      H1             17.2780578381       20.5762439099      -44.8522082231  TIP3      15252           0.0000000000
     68008     15444  TIP3      H2             17.7332443685       20.5245062212      -43.4349627215  TIP3      15252           0.0000000000
     68009     15445  TIP3      OH2             4.6865834077       12.6736399866      -44.4208820627  TIP3      15253           0.0000000000
     68010     15445  TIP3      H1              5.4067671894       12.9193851438      -43.8173244933  TIP3      15253           0.0000000000
     68011     15445  TIP3      H2              3.9137683019       12.7537575521      -43.8199420025  TIP3      15253           0.0000000000
     68012     15446  TIP3      OH2            10.6840618122        8.0829224551      -51.6674561771  TIP3      15254           0.0000000000
     68013     15446  TIP3      H1             11.2863869325        7.5507696115      -52.2001370276  TIP3      15254           0.0000000000
     68014     15446  TIP3      H2             10.5409683998        7.5347968695      -50.8840522543  TIP3      15254           0.0000000000
     68015     15447  TIP3      OH2             5.6965036374        4.2292295812      -55.2291414760  TIP3      15255           0.0000000000
     68016     15447  TIP3      H1              5.3867019260        3.3052789551      -55.2369160482  TIP3      15255           0.0000000000
     68017     15447  TIP3      H2              6.4871777135        4.1613697600      -55.7782760972  TIP3      15255           0.0000000000
     68018     15448  TIP3      OH2             9.3248223375        6.4103646577      -49.2520716418  TIP3      15256           0.0000000000
     68019     15448  TIP3      H1              8.5001096126        6.9302315424      -49.1636397934  TIP3      15256           0.0000000000
     68020     15448  TIP3      H2              9.8798154833        6.7640397516      -48.5301232026  TIP3      15256           0.0000000000
     68021     15449  TIP3      OH2             9.9147529501       12.6348498229      -57.5547610591  TIP3      15257           0.0000000000
     68022     15449  TIP3      H1              9.1149360921       12.1695752792      -57.8903078073  TIP3      15257           0.0000000000
     68023     15449  TIP3      H2              9.6869012129       12.7593177336      -56.6108744559  TIP3      15257           0.0000000000
     68024     15450  TIP3      OH2            17.1037828246       11.6753085496      -48.6232911643  TIP3      15258           0.0000000000
     68025     15450  TIP3      H1             17.5995858094       12.2386973390      -49.2650940912  TIP3      15258           0.0000000000
     68026     15450  TIP3      H2             16.2812562900       11.8529948248      -49.1389972377  TIP3      15258           0.0000000000
     68027     15451  TIP3      OH2            13.7423389606        5.4471408524      -59.3800636698  TIP3      15259           0.0000000000
     68028     15451  TIP3      H1             12.7907786813        5.6019323415      -59.5143956667  TIP3      15259           0.0000000000
     68029     15451  TIP3      H2             14.0830114027        6.2984100429      -59.0289953069  TIP3      15259           0.0000000000
     68030     15452  TIP3      OH2            11.4071475008       12.9050382172      -46.3067601729  TIP3      15260           0.0000000000
     68031     15452  TIP3      H1             11.0577832366       12.4753058957      -45.5196639396  TIP3      15260           0.0000000000
     68032     15452  TIP3      H2             11.1489409995       13.8262213586      -46.2026943852  TIP3      15260           0.0000000000
     68033     15453  TIP3      OH2            14.4796767033        7.3696919011      -57.7566412928  TIP3      15261           0.0000000000
     68034     15453  TIP3      H1             15.3610352256        7.2359954069      -57.3467151301  TIP3      15261           0.0000000000
     68035     15453  TIP3      H2             14.5850600884        8.1910416198      -58.2649512239  TIP3      15261           0.0000000000
     68036     15454  TIP3      OH2             5.0269435296       12.0319574201      -51.7535122099  TIP3      15262           0.0000000000
     68037     15454  TIP3      H1              5.7036882706       11.9466709164      -52.4538642602  TIP3      15262           0.0000000000
     68038     15454  TIP3      H2              5.0829056405       11.1718858960      -51.2988494804  TIP3      15262           0.0000000000
     68039     15455  TIP3      OH2            12.0076836749       14.1026206401      -58.5234981837  TIP3      15263           0.0000000000
     68040     15455  TIP3      H1             11.6635634752       14.9476847582      -58.1663640973  TIP3      15263           0.0000000000
     68041     15455  TIP3      H2             11.2763830278       13.4855589229      -58.3044337282  TIP3      15263           0.0000000000
     68042     15456  TIP3      OH2             2.0134294356       10.4306595711      -46.4936078516  TIP3      15264           0.0000000000
     68043     15456  TIP3      H1              2.1832390028        9.9868796414      -45.6398657034  TIP3      15264           0.0000000000
     68044     15456  TIP3      H2              1.3926866390        9.8216670008      -46.9318127996  TIP3      15264           0.0000000000
     68045     15457  TIP3      OH2             9.0260073766        9.9923332925      -44.3173344755  TIP3      15265           0.0000000000
     68046     15457  TIP3      H1              8.7060244440        9.6829068696      -45.1768765442  TIP3      15265           0.0000000000
     68047     15457  TIP3      H2              9.9486875506        9.6676303039      -44.3187455656  TIP3      15265           0.0000000000
     68048     15458  TIP3      OH2            13.6967859683       15.3243197139      -46.3429654409  TIP3      15266           0.0000000000
     68049     15458  TIP3      H1             12.7775596402       15.5138154023      -46.5887012405  TIP3      15266           0.0000000000
     68050     15458  TIP3      H2             13.6702330601       15.6296610470      -45.4168513018  TIP3      15266           0.0000000000
     68051     15459  TIP3      OH2            19.3847164209        7.4989315647      -57.9787471564  TIP3      15267           0.0000000000
     68052     15459  TIP3      H1             18.8120267722        7.2187670755      -58.7168371142  TIP3      15267           0.0000000000
     68053     15459  TIP3      H2             19.4582501994        8.4501774508      -58.2264112582  TIP3      15267           0.0000000000
     68054     15460  TIP3      OH2            19.3571735042       13.3718058559      -45.1777756860  TIP3      15268           0.0000000000
     68055     15460  TIP3      H1             18.4657968369       13.5873838532      -45.5487385936  TIP3      15268           0.0000000000
     68056     15460  TIP3      H2             19.9014227092       13.3144530535      -45.9977620006  TIP3      15268           0.0000000000
     68057     15461  TIP3      OH2            17.6460828193       16.3480142160      -57.5911118574  TIP3      15269           0.0000000000
     68058     15461  TIP3      H1             17.3056746359       15.5173357132      -57.2351332360  TIP3      15269           0.0000000000
     68059     15461  TIP3      H2             17.9916615828       16.1147203616      -58.4682363467  TIP3      15269           0.0000000000
     68060     15462  TIP3      OH2            14.8319141418       11.0951203536      -50.4297904252  TIP3      15270           0.0000000000
     68061     15462  TIP3      H1             13.8979927330       10.9266921699      -50.6051944247  TIP3      15270           0.0000000000
     68062     15462  TIP3      H2             15.3106634087       10.4058567538      -50.9186469296  TIP3      15270           0.0000000000
     68063     15463  TIP3      OH2             7.3998224688       15.4869895347      -54.3692990808  TIP3      15271           0.0000000000
     68064     15463  TIP3      H1              7.8965852863       16.2934680356      -54.5761797693  TIP3      15271           0.0000000000
     68065     15463  TIP3      H2              6.5197491783       15.7152764527      -54.6997305404  TIP3      15271           0.0000000000
     68066     15464  TIP3      OH2             3.1635601750       10.3223509502      -59.7989414809  TIP3      15272           0.0000000000
     68067     15464  TIP3      H1              3.7430186693       10.9875166756      -59.3887806805  TIP3      15272           0.0000000000
     68068     15464  TIP3      H2              2.2733834635       10.6358735745      -59.5503097313  TIP3      15272           0.0000000000
     68069     15465  TIP3      OH2             8.8048229089       13.1540252850      -54.8600086391  TIP3      15273           0.0000000000
     68070     15465  TIP3      H1              8.4932682190       14.0722194045      -54.7581856409  TIP3      15273           0.0000000000
     68071     15465  TIP3      H2              8.0948453565       12.6561443396      -54.4084991465  TIP3      15273           0.0000000000
     68072     15466  TIP3      OH2             9.2595543034       17.3349461276      -48.4382661315  TIP3      15274           0.0000000000
     68073     15466  TIP3      H1              9.7239380278       18.1368090391      -48.7266809772  TIP3      15274           0.0000000000
     68074     15466  TIP3      H2              9.8744965044       16.9913043126      -47.7642998824  TIP3      15274           0.0000000000
     68075     15467  TIP3      OH2             7.4876336580       18.1383476963      -55.3286864582  TIP3      15275           0.0000000000
     68076     15467  TIP3      H1              6.5245591641       18.2814822672      -55.1918266188  TIP3      15275           0.0000000000
     68077     15467  TIP3      H2              7.8536510192       18.9741169305      -54.9826264325  TIP3      15275           0.0000000000
     68078     15468  TIP3      OH2            12.7425420738       13.3083008934      -48.8252382892  TIP3      15276           0.0000000000
     68079     15468  TIP3      H1             12.4716929914       13.1320106091      -47.9059328093  TIP3      15276           0.0000000000
     68080     15468  TIP3      H2             13.4265075657       12.6383416214      -49.0018778758  TIP3      15276           0.0000000000
     68081     15469  TIP3      OH2            15.1263489180       14.4090862690      -59.7349576809  TIP3      15277           0.0000000000
     68082     15469  TIP3      H1             15.4201914043       13.9342035639      -58.9312159944  TIP3      15277           0.0000000000
     68083     15469  TIP3      H2             14.1726924794       14.2238078173      -59.6539129889  TIP3      15277           0.0000000000
     68084     15470  TIP3      OH2            15.6010498331       17.9133605931      -46.3339895950  TIP3      15278           0.0000000000
     68085     15470  TIP3      H1             14.9254944931       17.4090367453      -46.8268269604  TIP3      15278           0.0000000000
     68086     15470  TIP3      H2             15.7875897431       18.6087293453      -46.9996610543  TIP3      15278           0.0000000000
     68087     15471  TIP3      OH2            19.6036476479       18.7672821337      -59.4476508482  TIP3      15279           0.0000000000
     68088     15471  TIP3      H1             20.2683104024       19.4222309026      -59.7183563077  TIP3      15279           0.0000000000
     68089     15471  TIP3      H2             18.8633409050       19.3650347636      -59.2023638557  TIP3      15279           0.0000000000
     68090     15472  TIP3      OH2             3.6631828243        5.1665619438      -46.9468933743  TIP3      15280           0.0000000000
     68091     15472  TIP3      H1              2.7567531482        5.5185635256      -46.9647160396  TIP3      15280           0.0000000000
     68092     15472  TIP3      H2              3.5521305794        4.3218669034      -46.4823886570  TIP3      15280           0.0000000000
     68093     15473  TIP3      OH2            15.9002175757       13.0393354840      -57.4941497629  TIP3      15281           0.0000000000
     68094     15473  TIP3      H1             15.6600149947       12.2546169139      -56.9549424725  TIP3      15281           0.0000000000
     68095     15473  TIP3      H2             16.8518655366       13.0845088716      -57.3143521710  TIP3      15281           0.0000000000
     68096     15474  TIP3      OH2             3.2742623245       16.9484563085      -48.5173868917  TIP3      15282           0.0000000000
     68097     15474  TIP3      H1              3.5812187726       16.0290022437      -48.5106773280  TIP3      15282           0.0000000000
     68098     15474  TIP3      H2              3.5384961207       17.2412268527      -47.6380278175  TIP3      15282           0.0000000000
     68099     15475  TIP3      OH2             9.2523916830       15.4781422507      -61.2379912912  TIP3      15283           0.0000000000
     68100     15475  TIP3      H1              9.3514387057       14.7143000929      -61.8288487787  TIP3      15283           0.0000000000
     68101     15475  TIP3      H2              8.8101538768       15.0474514670      -60.4739808165  TIP3      15283           0.0000000000
     68102     15476  TIP3      OH2             8.0235136266       15.0052051080      -58.7856907646  TIP3      15284           0.0000000000
     68103     15476  TIP3      H1              8.2943753953       14.4902909639      -58.0160757657  TIP3      15284           0.0000000000
     68104     15476  TIP3      H2              8.1162253969       15.9310561763      -58.4626663261  TIP3      15284           0.0000000000
     68105     15477  TIP3      OH2             4.5681123541       12.2506718049      -58.2996010022  TIP3      15285           0.0000000000
     68106     15477  TIP3      H1              3.8525899145       12.6466434901      -57.7626750434  TIP3      15285           0.0000000000
     68107     15477  TIP3      H2              5.0722514746       13.0309187349      -58.5943683619  TIP3      15285           0.0000000000
     68108     15478  TIP3      OH2            12.3998406062        4.9387748997      -47.9751455718  TIP3      15286           0.0000000000
     68109     15478  TIP3      H1             13.1107988126        4.9973221117      -47.3366682948  TIP3      15286           0.0000000000
     68110     15478  TIP3      H2             12.0018661323        4.0649544816      -47.7865633470  TIP3      15286           0.0000000000
     68111     15479  TIP3      OH2            13.1372858010        4.5071193724      -56.8950552597  TIP3      15287           0.0000000000
     68112     15479  TIP3      H1             13.3703381777        4.9706720988      -57.7240715088  TIP3      15287           0.0000000000
     68113     15479  TIP3      H2             13.7164084133        4.9502514545      -56.2618098082  TIP3      15287           0.0000000000
     68114     15480  TIP3      OH2            10.8289069489       16.6673765858      -58.0914411675  TIP3      15288           0.0000000000
     68115     15480  TIP3      H1             10.0112725606       17.2004000496      -58.0184120677  TIP3      15288           0.0000000000
     68116     15480  TIP3      H2             11.3683030690       17.2183845815      -58.6768885447  TIP3      15288           0.0000000000
     68117     15481  TIP3      OH2            10.3722818628        6.2602602615      -56.0751968950  TIP3      15289           0.0000000000
     68118     15481  TIP3      H1             11.1524012153        6.8458420948      -56.0282939844  TIP3      15289           0.0000000000
     68119     15481  TIP3      H2             10.1064314037        6.1414318232      -55.1442842133  TIP3      15289           0.0000000000
     68120     15482  TIP3      OH2            10.9252364662        7.2874452455      -46.8837581324  TIP3      15290           0.0000000000
     68121     15482  TIP3      H1             10.9968864515        7.8449423749      -46.0858097726  TIP3      15290           0.0000000000
     68122     15482  TIP3      H2             11.5880433543        6.5909277387      -46.7883483203  TIP3      15290           0.0000000000
     68123     15483  TIP3      OH2            11.2168982557        3.3160397023      -55.1963976712  TIP3      15291           0.0000000000
     68124     15483  TIP3      H1             10.8955396003        3.9635703929      -54.5449590025  TIP3      15291           0.0000000000
     68125     15483  TIP3      H2             11.9124919090        3.8629213595      -55.6359074159  TIP3      15291           0.0000000000
     68126     15484  TIP3      OH2             8.2315098341       17.7023715396      -58.0599922052  TIP3      15292           0.0000000000
     68127     15484  TIP3      H1              8.3230159796       18.5169465610      -58.6112388124  TIP3      15292           0.0000000000
     68128     15484  TIP3      H2              7.9567704764       18.0667215232      -57.1901590662  TIP3      15292           0.0000000000
     68129     15485  TIP3      OH2             6.8762623756        4.4233554271      -58.4825620631  TIP3      15293           0.0000000000
     68130     15485  TIP3      H1              6.8263973507        5.3217939614      -58.0983306423  TIP3      15293           0.0000000000
     68131     15485  TIP3      H2              7.7852351241        4.1794465816      -58.2196557714  TIP3      15293           0.0000000000
     68132     15486  TIP3      OH2            17.0569635839        5.1119379812      -45.9873286067  TIP3      15294           0.0000000000
     68133     15486  TIP3      H1             16.1650348832        5.5015692286      -46.1856292116  TIP3      15294           0.0000000000
     68134     15486  TIP3      H2             17.4120986128        5.1497944170      -46.9039930956  TIP3      15294           0.0000000000
     68135     15487  TIP3      OH2            15.7368884135        8.9343810379      -52.0546464819  TIP3      15295           0.0000000000
     68136     15487  TIP3      H1             14.8926884415        8.5128067878      -52.3004876979  TIP3      15295           0.0000000000
     68137     15487  TIP3      H2             16.1958089463        8.2513503883      -51.5181794108  TIP3      15295           0.0000000000
     68138     15488  TIP3      OH2             5.1074569678       14.8646356021      -59.4412614107  TIP3      15296           0.0000000000
     68139     15488  TIP3      H1              5.7699467274       15.4974693823      -59.1254339320  TIP3      15296           0.0000000000
     68140     15488  TIP3      H2              5.6327826341       14.4009636495      -60.1244236184  TIP3      15296           0.0000000000
     68141     15489  TIP3      OH2             3.4539708373        7.5381660510      -60.2961422969  TIP3      15297           0.0000000000
     68142     15489  TIP3      H1              3.4717306545        8.4964146932      -60.0880382809  TIP3      15297           0.0000000000
     68143     15489  TIP3      H2              2.5619626918        7.3641109522      -60.6038927430  TIP3      15297           0.0000000000
     68144     15490  TIP3      OH2            16.7891897147       18.3153340527      -50.3368991969  TIP3      15298           0.0000000000
     68145     15490  TIP3      H1             16.7157720641       18.9215230158      -51.0924172111  TIP3      15298           0.0000000000
     68146     15490  TIP3      H2             17.7553514217       18.2535771494      -50.1932540186  TIP3      15298           0.0000000000
     68147     15491  TIP3      OH2             4.2702856004        2.3236388071      -51.5511033373  TIP3      15299           0.0000000000
     68148     15491  TIP3      H1              4.0769252006        2.3412486064      -52.5146413890  TIP3      15299           0.0000000000
     68149     15491  TIP3      H2              3.8565001932        1.4706779899      -51.3009925219  TIP3      15299           0.0000000000
     68150     15492  TIP3      OH2             3.2256408899       16.2460459468      -55.4056218604  TIP3      15300           0.0000000000
     68151     15492  TIP3      H1              2.3721619561       16.6949254368      -55.4550474606  TIP3      15300           0.0000000000
     68152     15492  TIP3      H2              3.7022976751       16.7097965389      -56.1069640650  TIP3      15300           0.0000000000
     68153     15493  TIP3      OH2             2.4282072299       18.8969424687      -44.1264419613  TIP3      15301           0.0000000000
     68154     15493  TIP3      H1              3.0345728457       18.6962907496      -43.3860785671  TIP3      15301           0.0000000000
     68155     15493  TIP3      H2              2.0297714528       18.0272456762      -44.3065877871  TIP3      15301           0.0000000000
     68156     15494  TIP3      OH2             7.1123518576       17.8165142967      -42.5176650163  TIP3      15302           0.0000000000
     68157     15494  TIP3      H1              7.8684074083       17.3158262002      -42.1839825690  TIP3      15302           0.0000000000
     68158     15494  TIP3      H2              7.0854336448       17.5361137884      -43.4537013373  TIP3      15302           0.0000000000
     68159     15495  TIP3      OH2            11.2467089251       17.3289229159      -61.1145466459  TIP3      15303           0.0000000000
     68160     15495  TIP3      H1             10.5538388410       16.6697942166      -60.8870200012  TIP3      15303           0.0000000000
     68161     15495  TIP3      H2             11.9646529581       16.7298444887      -61.3621601243  TIP3      15303           0.0000000000
     68162     15496  TIP3      OH2            13.6178647236       16.1977244892      -43.7766465965  TIP3      15304           0.0000000000
     68163     15496  TIP3      H1             13.2997783198       15.3130884965      -43.4943543182  TIP3      15304           0.0000000000
     68164     15496  TIP3      H2             14.3818448243       16.3180426416      -43.1756339662  TIP3      15304           0.0000000000
     68165     15497  TIP3      OH2            15.8048196443       17.0732666028      -60.9273381745  TIP3      15305           0.0000000000
     68166     15497  TIP3      H1             16.1002212950       16.2962431973      -60.4252368709  TIP3      15305           0.0000000000
     68167     15497  TIP3      H2             16.5667366719       17.2971827006      -61.4810086424  TIP3      15305           0.0000000000
     68168     15498  TIP3      OH2             2.3401375701       12.6684975056      -43.1281501777  TIP3      15306           0.0000000000
     68169     15498  TIP3      H1              2.5067482910       11.7570789766      -43.4297542677  TIP3      15306           0.0000000000
     68170     15498  TIP3      H2              1.6006006548       12.9264584472      -43.7028791672  TIP3      15306           0.0000000000
     68171     15499  TIP3      OH2             6.6921005909       13.0141020164      -61.1101743647  TIP3      15307           0.0000000000
     68172     15499  TIP3      H1              6.8307061729       12.2525563273      -60.5267308383  TIP3      15307           0.0000000000
     68173     15499  TIP3      H2              7.4401816259       12.8945864462      -61.7277705695  TIP3      15307           0.0000000000
     68174     15500  TIP3      OH2             9.0581874754       12.6580525091      -43.7438763601  TIP3      15308           0.0000000000
     68175     15500  TIP3      H1              8.7231994357       12.9696966885      -44.6072294643  TIP3      15308           0.0000000000
     68176     15500  TIP3      H2              9.1322350240       11.6796240135      -43.8519100198  TIP3      15308           0.0000000000
     68177     15501  TIP3      OH2            12.1221467099       14.1225418491      -61.3320836440  TIP3      15309           0.0000000000
     68178     15501  TIP3      H1             11.8517619243       14.2037316651      -60.4038779513  TIP3      15309           0.0000000000
     68179     15501  TIP3      H2             11.9326607790       13.1649736799      -61.4766704162  TIP3      15309           0.0000000000
     68180     15502  TIP3      OH2            14.7665418437       12.5180682079      -46.3178552334  TIP3      15310           0.0000000000
     68181     15502  TIP3      H1             15.5559127054       13.0908575137      -46.4438464709  TIP3      15310           0.0000000000
     68182     15502  TIP3      H2             14.0714710360       13.1908169173      -46.3535462759  TIP3      15310           0.0000000000
     68183     15503  TIP3      OH2             3.2633638950        9.8936088213      -43.7488279731  TIP3      15311           0.0000000000
     68184     15503  TIP3      H1              3.6802919543        9.0304678047      -43.8391042362  TIP3      15311           0.0000000000
     68185     15503  TIP3      H2              3.0290573200        9.8994467914      -42.8067868992  TIP3      15311           0.0000000000
     68186     15504  TIP3      OH2             7.8941659437       11.0314198556      -58.6799765688  TIP3      15312           0.0000000000
     68187     15504  TIP3      H1              7.3900535418       10.4920906927      -58.0524419193  TIP3      15312           0.0000000000
     68188     15504  TIP3      H2              8.1904492344       10.3585549475      -59.3366995917  TIP3      15312           0.0000000000
     68189     15505  TIP3      OH2             7.1605432832        8.8378343070      -46.3953286325  TIP3      15313           0.0000000000
     68190     15505  TIP3      H1              6.5643123727        9.5593168760      -46.1382718837  TIP3      15313           0.0000000000
     68191     15505  TIP3      H2              7.5583875809        9.2060269305      -47.2026243296  TIP3      15313           0.0000000000
     68192     15506  TIP3      OH2             8.9704524877        9.2542219575      -60.4825129004  TIP3      15314           0.0000000000
     68193     15506  TIP3      H1              8.8188269320        9.1639186002      -61.4455366967  TIP3      15314           0.0000000000
     68194     15506  TIP3      H2              9.9466025516        9.3064374912      -60.4162753209  TIP3      15314           0.0000000000
     68195     15507  TIP3      OH2            12.2348264939       11.4069963319      -43.0569587040  TIP3      15315           0.0000000000
     68196     15507  TIP3      H1             13.1913138166       11.3946803599      -43.1824124128  TIP3      15315           0.0000000000
     68197     15507  TIP3      H2             12.0649712199       10.6383260830      -42.4896265405  TIP3      15315           0.0000000000
     68198     15508  TIP3      OH2            18.2998804962       11.5727051820      -61.0697507179  TIP3      15316           0.0000000000
     68199     15508  TIP3      H1             18.1085144109       11.1932270742      -61.9425103468  TIP3      15316           0.0000000000
     68200     15508  TIP3      H2             18.3881451870       12.5360070129      -61.2577677025  TIP3      15316           0.0000000000
     68201     15509  TIP3      OH2             7.5671240941        6.2160195617      -45.3374571846  TIP3      15317           0.0000000000
     68202     15509  TIP3      H1              7.6833543774        5.5072621078      -45.9968817157  TIP3      15317           0.0000000000
     68203     15509  TIP3      H2              7.5222609007        7.0271030373      -45.8862914234  TIP3      15317           0.0000000000
     68204     15510  TIP3      OH2             7.9712979555        4.5985077070      -47.7828942506  TIP3      15318           0.0000000000
     68205     15510  TIP3      H1              8.4790956432        5.0637096832      -48.4899749284  TIP3      15318           0.0000000000
     68206     15510  TIP3      H2              7.0774768414        4.5205829880      -48.1885443142  TIP3      15318           0.0000000000
     68207     15511  TIP3      OH2             9.5093155053       10.0900538671      -47.5410993423  TIP3      15319           0.0000000000
     68208     15511  TIP3      H1             10.2636395739        9.9236759263      -48.1126407752  TIP3      15319           0.0000000000
     68209     15511  TIP3      H2              9.1443480139       10.9229955681      -47.8779271708  TIP3      15319           0.0000000000
     68210     15512  TIP3      OH2            13.9070339820        7.8346520677      -42.5875227273  TIP3      15320           0.0000000000
     68211     15512  TIP3      H1             14.1406482248        6.9043174704      -42.6604183945  TIP3      15320           0.0000000000
     68212     15512  TIP3      H2             14.7620024123        8.2998857097      -42.5409821611  TIP3      15320           0.0000000000
     68213     15513  TIP3      OH2            15.2546958766       10.6282981276      -44.4127251384  TIP3      15321           0.0000000000
     68214     15513  TIP3      H1             14.9982736554       11.3520787950      -45.0274913195  TIP3      15321           0.0000000000
     68215     15513  TIP3      H2             16.2165791826       10.6033275941      -44.6008322928  TIP3      15321           0.0000000000
     68216     15514  TIP3      OH2             6.0290280348        7.4672558167      -43.4171771220  TIP3      15322           0.0000000000
     68217     15514  TIP3      H1              5.2593327415        6.8897295014      -43.5847468497  TIP3      15322           0.0000000000
     68218     15514  TIP3      H2              6.6822231978        7.0982117479      -44.0394761481  TIP3      15322           0.0000000000
     68219     15515  TIP3      OH2             8.7606856499        2.0350659899      -47.3982306397  TIP3      15323           0.0000000000
     68220     15515  TIP3      H1              8.5757980623        2.9977382934      -47.4916241219  TIP3      15323           0.0000000000
     68221     15515  TIP3      H2              8.0100561847        1.6683971667      -47.8969472725  TIP3      15323           0.0000000000
     68222     15516  TIP3      OH2            10.0296299841        6.3639559808      -43.7664308522  TIP3      15324           0.0000000000
     68223     15516  TIP3      H1              9.7139479923        6.1320819899      -42.8715060098  TIP3      15324           0.0000000000
     68224     15516  TIP3      H2              9.2478734010        6.1616163679      -44.3079886769  TIP3      15324           0.0000000000
     68225     15517  TIP3      OH2            12.7602121872        5.5027859749      -44.6670083658  TIP3      15325           0.0000000000
     68226     15517  TIP3      H1             11.7884761144        5.5804597338      -44.5887018216  TIP3      15325           0.0000000000
     68227     15517  TIP3      H2             12.9665858392        4.8682094768      -43.9677617033  TIP3      15325           0.0000000000
     68228     15518  TIP3      OH2            14.3800827284        4.0930980489      -42.7431643669  TIP3      15326           0.0000000000
     68229     15518  TIP3      H1             14.1674253731        3.1327248190      -42.6875074945  TIP3      15326           0.0000000000
     68230     15518  TIP3      H2             14.0484659133        4.4438266752      -41.8810921721  TIP3      15326           0.0000000000
     68231     15519  TIP3      OH2             4.1052050342        5.4048676969      -43.6609309888  TIP3      15327           0.0000000000
     68232     15519  TIP3      H1              4.3544113724        4.6686937381      -44.2471183512  TIP3      15327           0.0000000000
     68233     15519  TIP3      H2              4.0174094313        4.9560497831      -42.7972646105  TIP3      15327           0.0000000000
     68234     15520  TIP3      OH2             8.9735913038        1.4294599480      -44.6951641437  TIP3      15328           0.0000000000
     68235     15520  TIP3      H1              9.6529327984        0.7255234166      -44.7117232288  TIP3      15328           0.0000000000
     68236     15520  TIP3      H2              8.8529230818        1.5710995285      -45.6559142422  TIP3      15328           0.0000000000
     68237     15521  TIP3      OH2             9.3365552148        3.0428475033      -42.5775474145  TIP3      15329           0.0000000000
     68238     15521  TIP3      H1              9.1626182170        2.5360074247      -43.4097231807  TIP3      15329           0.0000000000
     68239     15521  TIP3      H2              8.7353581252        3.8058038899      -42.6788986291  TIP3      15329           0.0000000000
     68240     15522  TIP3      OH2             8.8038294747       19.9559687639      -59.4048341598  TIP3      15330           0.0000000000
     68241     15522  TIP3      H1              9.7706413184       20.0412594357      -59.3365458515  TIP3      15330           0.0000000000
     68242     15522  TIP3      H2              8.6549505022       20.5578708733      -60.1438400980  TIP3      15330           0.0000000000
     68243     15523  TIP3      OH2             2.3536936610       14.5276997958      -59.9348685166  TIP3      15331           0.0000000000
     68244     15523  TIP3      H1              3.3208950096       14.6224333764      -59.7549861796  TIP3      15331           0.0000000000
     68245     15523  TIP3      H2              2.4044017206       13.8846755800      -60.6817460631  TIP3      15331           0.0000000000
     68246     15524  TIP3      OH2             1.1379399822       19.9131627877      -54.9710862429  TIP3      15332           0.0000000000
     68247     15524  TIP3      H1              0.4165413567       19.4284030255      -55.4290919032  TIP3      15332           0.0000000000
     68248     15524  TIP3      H2              1.4166740788       19.2599020536      -54.3040322605  TIP3      15332           0.0000000000
     68249     15525  TIP3      OH2             1.9601761766       18.0516333207      -53.0916739215  TIP3      15333           0.0000000000
     68250     15525  TIP3      H1              1.6074234265       17.1727165937      -52.8927658775  TIP3      15333           0.0000000000
     68251     15525  TIP3      H2              2.2015908749       18.3757687952      -52.2066961908  TIP3      15333           0.0000000000
     68252     15526  TIP3      OH2            19.4987246129       18.8813184327      -50.1667582047  TIP3      15334           0.0000000000
     68253     15526  TIP3      H1             19.5329102406       19.0150267896      -49.2040470312  TIP3      15334           0.0000000000
     68254     15526  TIP3      H2             20.2165252830       19.4444145809      -50.4642163921  TIP3      15334           0.0000000000
     68255     15527  TIP3      OH2            19.0719295410       18.4328832034      -47.2194221544  TIP3      15335           0.0000000000
     68256     15527  TIP3      H1             18.5982713565       17.6641047472      -47.6078791267  TIP3      15335           0.0000000000
     68257     15527  TIP3      H2             19.5608098058       17.9706428362      -46.5173890203  TIP3      15335           0.0000000000
     68258     15528  TIP3      OH2            17.5173501638       14.1599875777      -42.5428061030  TIP3      15336           0.0000000000
     68259     15528  TIP3      H1             16.6102961048       14.1359425012      -42.1814932119  TIP3      15336           0.0000000000
     68260     15528  TIP3      H2             17.8878095595       14.9686232527      -42.1367268247  TIP3      15336           0.0000000000
     68261     15529  TIP3      OH2            18.8331809393       12.4955407998      -57.1194407082  TIP3      15337           0.0000000000
     68262     15529  TIP3      H1             19.7055749561       12.8789631956      -56.9384390144  TIP3      15337           0.0000000000
     68263     15529  TIP3      H2             18.8196836972       11.7645754433      -56.4648921729  TIP3      15337           0.0000000000
     68264     15530  TIP3      OH2            19.1918967316       10.5707379211      -55.2203032174  TIP3      15338           0.0000000000
     68265     15530  TIP3      H1             18.4337761318       10.0825414669      -54.8243481808  TIP3      15338           0.0000000000
     68266     15530  TIP3      H2             19.7864937854       10.7042426280      -54.4545216501  TIP3      15338           0.0000000000
     68267     15531  TIP3      OH2            19.7950622133       13.3615082668      -49.9232371282  TIP3      15339           0.0000000000
     68268     15531  TIP3      H1             19.8956683543       12.7959523282      -50.7003614047  TIP3      15339           0.0000000000
     68269     15531  TIP3      H2             19.1560422530       14.0168782299      -50.3042193248  TIP3      15339           0.0000000000
     68270     15532  TIP3      OH2            17.5428973470       16.1668757578      -47.9265206160  TIP3      15340           0.0000000000
     68271     15532  TIP3      H1             16.8098278367       16.5072222706      -47.3982563106  TIP3      15340           0.0000000000
     68272     15532  TIP3      H2             16.9937940969       15.8028891438      -48.6754496288  TIP3      15340           0.0000000000
     68273     15533  TIP3      OH2            19.4922541420       10.3919638088      -58.8370643970  TIP3      15341           0.0000000000
     68274     15533  TIP3      H1             18.9255379465       10.7332523740      -59.5609354543  TIP3      15341           0.0000000000
     68275     15533  TIP3      H2             19.3932945315       11.1047529677      -58.1789984517  TIP3      15341           0.0000000000
     68276     15534  TIP3      OH2            17.8654445978        7.6187286871      -60.3264748694  TIP3      15342           0.0000000000
     68277     15534  TIP3      H1             17.9433289535        8.2844935064      -61.0202483501  TIP3      15342           0.0000000000
     68278     15534  TIP3      H2             17.6804580120        6.7962939819      -60.8207955145  TIP3      15342           0.0000000000
     68279     15535  TIP3      OH2            17.0069431071        9.0322901430      -54.6702258691  TIP3      15343           0.0000000000
     68280     15535  TIP3      H1             16.8682682277        8.0751072802      -54.7027330031  TIP3      15343           0.0000000000
     68281     15535  TIP3      H2             16.6764713435        9.2568294968      -53.7782573480  TIP3      15343           0.0000000000
     68282     15536  TIP3      OH2             2.0216065302       11.1299470501      -50.5984614150  TIP3      15344           0.0000000000
     68283     15536  TIP3      H1              2.1971926239       11.0457642756      -51.5619388328  TIP3      15344           0.0000000000
     68284     15536  TIP3      H2              2.9147880173       10.9493256634      -50.2456732974  TIP3      15344           0.0000000000
     68285     15537  TIP3      OH2            17.8744667144       10.9961703323      -44.9729691543  TIP3      15345           0.0000000000
     68286     15537  TIP3      H1             18.4905375144       10.2468028865      -44.8346726778  TIP3      15345           0.0000000000
     68287     15537  TIP3      H2             18.4733520879       11.7736912219      -44.9725739913  TIP3      15345           0.0000000000
     68288     15538  TIP3      OH2            19.3770789736        8.8962395978      -44.3141511583  TIP3      15346           0.0000000000
     68289     15538  TIP3      H1             18.4974165407        8.5041157927      -44.4783865801  TIP3      15346           0.0000000000
     68290     15538  TIP3      H2             19.9595293047        8.1243755723      -44.3984968992  TIP3      15346           0.0000000000
     68291     15539  TIP3      OH2            17.1165194199        5.0952167307      -61.1890403374  TIP3      15347           0.0000000000
     68292     15539  TIP3      H1             17.7035540919        4.6551087231      -60.5454812241  TIP3      15347           0.0000000000
     68293     15539  TIP3      H2             16.2508156734        4.6775781473      -61.0366419093  TIP3      15347           0.0000000000
     68294     15540  TIP3      OH2            16.6577148790        6.6215805313      -56.2458866741  TIP3      15348           0.0000000000
     68295     15540  TIP3      H1             16.9734895048        5.7002791322      -56.0834682215  TIP3      15348           0.0000000000
     68296     15540  TIP3      H2             17.4813726857        7.0299452797      -56.5465357441  TIP3      15348           0.0000000000
     68297     15541  TIP3      OH2            17.3165366085        7.1654511139      -50.7577027304  TIP3      15349           0.0000000000
     68298     15541  TIP3      H1             18.2795807947        7.3790067056      -50.7781152946  TIP3      15349           0.0000000000
     68299     15541  TIP3      H2             17.1341311036        7.3087564581      -49.8176361799  TIP3      15349           0.0000000000
     68300     15542  TIP3      OH2            17.3918379014        7.8969839102      -47.9703317660  TIP3      15350           0.0000000000
     68301     15542  TIP3      H1             16.5087835282        8.1904374487      -47.6688254940  TIP3      15350           0.0000000000
     68302     15542  TIP3      H2             17.8141463832        8.7599714234      -48.2067841315  TIP3      15350           0.0000000000
     68303     15543  TIP3      OH2             1.6379627080        6.4305299478      -44.4385536126  TIP3      15351           0.0000000000
     68304     15543  TIP3      H1              2.5748897962        6.2149423573      -44.2530629604  TIP3      15351           0.0000000000
     68305     15543  TIP3      H2              1.1796609554        5.6041285986      -44.1717921900  TIP3      15351           0.0000000000
     68306     15544  TIP3      OH2            19.5937847735        1.9408715277      -42.6753008239  TIP3      15352           0.0000000000
     68307     15544  TIP3      H1             20.0362994762        1.2833302966      -43.2415782558  TIP3      15352           0.0000000000
     68308     15544  TIP3      H2             19.7957891481        2.7616086316      -43.1642560395  TIP3      15352           0.0000000000
     68309     15545  TIP3      OH2            17.3216802295        3.9269029929      -56.1531899535  TIP3      15353           0.0000000000
     68310     15545  TIP3      H1             17.5630862843        3.4813790297      -55.3093333102  TIP3      15353           0.0000000000
     68311     15545  TIP3      H2             16.7466825473        3.2693405193      -56.5954894950  TIP3      15353           0.0000000000
     68312     15546  TIP3      OH2             2.8350925862        4.7181153652      -51.5950483650  TIP3      15354           0.0000000000
     68313     15546  TIP3      H1              3.2959538938        3.8914570763      -51.3402963930  TIP3      15354           0.0000000000
     68314     15546  TIP3      H2              3.3871592386        5.4107786757      -51.2086238113  TIP3      15354           0.0000000000
     68315     15547  TIP3      OH2             1.1180952103        7.7207954446      -50.5602468240  TIP3      15355           0.0000000000
     68316     15547  TIP3      H1              1.6818317865        7.4691405347      -51.3200643626  TIP3      15355           0.0000000000
     68317     15547  TIP3      H2              1.5865681852        8.5238143937      -50.2905903104  TIP3      15355           0.0000000000
     68318     15548  TIP3      OH2            19.1580125061        4.0198577380      -44.2701973951  TIP3      15356           0.0000000000
     68319     15548  TIP3      H1             18.2875876713        4.4011764315      -44.4128704929  TIP3      15356           0.0000000000
     68320     15548  TIP3      H2             19.2525945647        3.5119666330      -45.0915010260  TIP3      15356           0.0000000000
     68321     15549  TIP3      OH2            19.1686570044        3.9465538629      -59.6024007846  TIP3      15357           0.0000000000
     68322     15549  TIP3      H1             19.5802833398        3.2339236933      -60.1386011728  TIP3      15357           0.0000000000
     68323     15549  TIP3      H2             19.8752311603        4.6080782277      -59.5508441988  TIP3      15357           0.0000000000
     68324     15550  TIP3      OH2             1.4886209412        3.9981013266      -56.4750841570  TIP3      15358           0.0000000000
     68325     15550  TIP3      H1              0.5447139843        4.1536109750      -56.6407177586  TIP3      15358           0.0000000000
     68326     15550  TIP3      H2              1.9045995088        4.4719337933      -57.2137677870  TIP3      15358           0.0000000000
     68327     15551  TIP3      OH2            16.2286459099       18.9319323060      -54.5383555413  TIP3      15359           0.0000000000
     68328     15551  TIP3      H1             16.9100220539       18.6381547906      -55.1685018365  TIP3      15359           0.0000000000
     68329     15551  TIP3      H2             16.7379576252       19.4313141170      -53.8837214574  TIP3      15359           0.0000000000
     68330     15552  TIP3      OH2             1.4315749722        2.6293335453      -48.1931204643  TIP3      15360           0.0000000000
     68331     15552  TIP3      H1              0.7643878667        2.4396011488      -47.5104577798  TIP3      15360           0.0000000000
     68332     15552  TIP3      H2              0.9746661067        3.3058817927      -48.7325525612  TIP3      15360           0.0000000000
     68333     15553  TIP3      OH2             3.6728579704       15.8235684254      -44.0290661101  TIP3      15361           0.0000000000
     68334     15553  TIP3      H1              2.8356096490       16.0505813236      -44.4678000281  TIP3      15361           0.0000000000
     68335     15553  TIP3      H2              3.4030325528       15.7558010336      -43.1097444124  TIP3      15361           0.0000000000
     68336     15554  TIP3      OH2             6.5714750813       16.8401002814      -47.7485146400  TIP3      15362           0.0000000000
     68337     15554  TIP3      H1              6.2424597794       17.7070129352      -48.0231530070  TIP3      15362           0.0000000000
     68338     15554  TIP3      H2              7.4976287514       16.9228704103      -48.0555342676  TIP3      15362           0.0000000000
     68339     15555  TIP3      OH2            10.8910947187       18.2611414388      -44.8476097221  TIP3      15363           0.0000000000
     68340     15555  TIP3      H1             11.0300082138       17.9080582679      -43.9389731612  TIP3      15363           0.0000000000
     68341     15555  TIP3      H2             11.7945389568       18.5641176367      -45.0895817068  TIP3      15363           0.0000000000
     68342     15556  TIP3      OH2            13.1819535968       19.5239343770      -45.5390823153  TIP3      15364           0.0000000000
     68343     15556  TIP3      H1             13.9121350209       18.9379400652      -45.7869616947  TIP3      15364           0.0000000000
     68344     15556  TIP3      H2             13.5578195129       19.9629234356      -44.7450087323  TIP3      15364           0.0000000000
     68345     15557  TIP3      OH2            18.1454981721        2.1311014227      -46.3880718644  TIP3      15365           0.0000000000
     68346     15557  TIP3      H1             17.3719661205        2.4340733112      -46.8923436171  TIP3      15365           0.0000000000
     68347     15557  TIP3      H2             18.3816124737        1.3375886021      -46.9302988111  TIP3      15365           0.0000000000
     68348     15558  TIP3      OH2             3.9954581549       20.0723015038      -47.7579577620  TIP3      15366           0.0000000000
     68349     15558  TIP3      H1              3.2643883480       20.5748481965      -48.1525496510  TIP3      15366           0.0000000000
     68350     15558  TIP3      H2              3.6853558360       19.8836203532      -46.8605492569  TIP3      15366           0.0000000000
     68351     15559  TIP3      OH2             6.4638293072       19.6509356604      -48.6822104852  TIP3      15367           0.0000000000
     68352     15559  TIP3      H1              5.5714927309       19.8023399684      -48.2899013761  TIP3      15367           0.0000000000
     68353     15559  TIP3      H2              6.4098630265       20.2408863829      -49.4571323695  TIP3      15367           0.0000000000
     68354     15560  TIP3      OH2            11.1729271544       19.5656695507      -49.5177543254  TIP3      15368           0.0000000000
     68355     15560  TIP3      H1             10.7081937272       20.1228794602      -50.1604069536  TIP3      15368           0.0000000000
     68356     15560  TIP3      H2             11.3050288572       20.1950495169      -48.7776201622  TIP3      15368           0.0000000000
     68357     15561  TIP3      OH2            13.4522338772       18.3765935744      -48.4712361174  TIP3      15369           0.0000000000
     68358     15561  TIP3      H1             12.6041074983       18.6498995542      -48.8558498369  TIP3      15369           0.0000000000
     68359     15561  TIP3      H2             13.9467882193       19.2071357982      -48.5759757324  TIP3      15369           0.0000000000
     68360     15562  TIP3      OH2            16.0398795575       19.9467008981      -48.2597810805  TIP3      15370           0.0000000000
     68361     15562  TIP3      H1             15.9886866749       20.9024301345      -48.4961338175  TIP3      15370           0.0000000000
     68362     15562  TIP3      H2             16.2624589725       19.5595133116      -49.1357283813  TIP3      15370           0.0000000000
     68363     15563  TIP3      OH2             3.4567939774       18.7230004935      -50.8135040147  TIP3      15371           0.0000000000
     68364     15563  TIP3      H1              3.3737962227       18.2629588405      -49.9511053088  TIP3      15371           0.0000000000
     68365     15563  TIP3      H2              4.2713436303       18.3432070220      -51.2010445613  TIP3      15371           0.0000000000
     68366     15564  TIP3      OH2             5.5287497034       17.4340229362      -52.1607730651  TIP3      15372           0.0000000000
     68367     15564  TIP3      H1              5.3669258655       16.5005880974      -51.9260188446  TIP3      15372           0.0000000000
     68368     15564  TIP3      H2              6.3858195567       17.5906696353      -51.7081975147  TIP3      15372           0.0000000000
     68369     15565  TIP3      OH2             8.1026162928       17.9197123356      -51.2859481644  TIP3      15373           0.0000000000
     68370     15565  TIP3      H1              8.2868028529       16.9999060565      -51.5467893966  TIP3      15373           0.0000000000
     68371     15565  TIP3      H2              8.1777465546       17.8669091800      -50.3207481302  TIP3      15373           0.0000000000
     68372     15566  TIP3      OH2            11.5884711765        3.5677894333      -52.1428611726  TIP3      15374           0.0000000000
     68373     15566  TIP3      H1             10.9117872396        2.9278622531      -51.8634717539  TIP3      15374           0.0000000000
     68374     15566  TIP3      H2             12.1400612288        3.0349453779      -52.7278779514  TIP3      15374           0.0000000000
     68375     15567  TIP3      OH2            16.7259087552        1.6182750160      -52.0810311953  TIP3      15375           0.0000000000
     68376     15567  TIP3      H1             17.3386987598        2.2100189499      -52.5882328063  TIP3      15375           0.0000000000
     68377     15567  TIP3      H2             15.8431385322        1.9776930674      -52.3127125665  TIP3      15375           0.0000000000
     68378     15568  TIP3      OH2            18.3894734569        2.8704334072      -53.8072411142  TIP3      15376           0.0000000000
     68379     15568  TIP3      H1             19.0771723833        2.2916912880      -54.2175443839  TIP3      15376           0.0000000000
     68380     15568  TIP3      H2             18.9008950398        3.7037023693      -53.6967924126  TIP3      15376           0.0000000000
     68381     15569  TIP3      OH2             3.9618583079        2.1940160854      -54.2966387140  TIP3      15377           0.0000000000
     68382     15569  TIP3      H1              3.1641181771        2.0006700243      -54.8252780540  TIP3      15377           0.0000000000
     68383     15569  TIP3      H2              4.4195970233        1.3329655228      -54.3570731101  TIP3      15377           0.0000000000
     68384     15570  TIP3      OH2             2.7276641107        1.9485485139      -58.5761696669  TIP3      15378           0.0000000000
     68385     15570  TIP3      H1              3.2202323995        2.5981239035      -59.1110054498  TIP3      15378           0.0000000000
     68386     15570  TIP3      H2              2.1609880392        2.5207821245      -58.0384886274  TIP3      15378           0.0000000000
     68387     15571  TIP3      OH2             8.4287559612        2.1203709270      -54.5102092639  TIP3      15379           0.0000000000
     68388     15571  TIP3      H1              9.3291414762        2.4779933480      -54.5844823100  TIP3      15379           0.0000000000
     68389     15571  TIP3      H2              8.3959867075        1.9012405280      -53.5802023458  TIP3      15379           0.0000000000
     68390     15572  TIP3      OH2            14.1474426927        2.1369249358      -52.8878005621  TIP3      15380           0.0000000000
     68391     15572  TIP3      H1             14.0927565059        2.2524014476      -53.8454375574  TIP3      15380           0.0000000000
     68392     15572  TIP3      H2             13.7658741597        1.2338368414      -52.7597982475  TIP3      15380           0.0000000000
     68393     15573  TIP3      OH2            15.4110713613        2.1674858884      -57.2032321387  TIP3      15381           0.0000000000
     68394     15573  TIP3      H1             14.6624710149        2.7623799326      -57.3601785728  TIP3      15381           0.0000000000
     68395     15573  TIP3      H2             14.9712025782        1.3158840089      -56.9682361214  TIP3      15381           0.0000000000
     68396     15574  TIP3      OH2             2.6403927392       17.9006079958      -57.5467541878  TIP3      15382           0.0000000000
     68397     15574  TIP3      H1              1.9831888960       17.8821610943      -58.2659701203  TIP3      15382           0.0000000000
     68398     15574  TIP3      H2              2.6364249205       18.8538994247      -57.3735881737  TIP3      15382           0.0000000000
     68399     15575  TIP3      OH2             4.5549146046        3.8915195676      -60.0635659789  TIP3      15383           0.0000000000
     68400     15575  TIP3      H1              5.0868628724        3.2738459361      -60.5918457785  TIP3      15383           0.0000000000
     68401     15575  TIP3      H2              5.2209215925        4.2135866613      -59.4286116312  TIP3      15383           0.0000000000
     68402     15576  TIP3      OH2             9.5812355355        4.1345748110      -57.6608202558  TIP3      15384           0.0000000000
     68403     15576  TIP3      H1              9.8321456394        3.5571855255      -56.9210099466  TIP3      15384           0.0000000000
     68404     15576  TIP3      H2              9.6523315863        5.0008638637      -57.2026375427  TIP3      15384           0.0000000000
     68405     15577  TIP3      OH2            11.5159910616       19.2083457246      -59.2125159379  TIP3      15385           0.0000000000
     68406     15577  TIP3      H1             12.4333833992       19.4345508889      -59.4349775218  TIP3      15385           0.0000000000
     68407     15577  TIP3      H2             11.2948642935       18.6881644398      -60.0135274482  TIP3      15385           0.0000000000
     68408     15578  TIP3      OH2            18.2500304059       18.7132778341      -56.4995453277  TIP3      15386           0.0000000000
     68409     15578  TIP3      H1             18.0159984685       17.9253913553      -57.0518343470  TIP3      15386           0.0000000000
     68410     15578  TIP3      H2             18.1221287729       19.4392843729      -57.1438508827  TIP3      15386           0.0000000000
     68411     15579  TIP3      OH2             3.8469916735        2.7448021339      -44.8455226413  TIP3      15387           0.0000000000
     68412     15579  TIP3      H1              3.4569118432        1.9471578114      -44.4433254652  TIP3      15387           0.0000000000
     68413     15579  TIP3      H2              4.7557417601        2.6963679709      -44.4638998216  TIP3      15387           0.0000000000
     68414     15580  TIP3      OH2             5.8449823479        2.1195206659      -43.2016219628  TIP3      15388           0.0000000000
     68415     15580  TIP3      H1              6.7380492647        1.7828927442      -43.4188670616  TIP3      15388           0.0000000000
     68416     15580  TIP3      H2              5.4711569119        1.3121591084      -42.7991035989  TIP3      15388           0.0000000000
     68417     15581  TIP3      OH2             4.4345898322       18.8834883820      -60.6029227694  TIP3      15389           0.0000000000
     68418     15581  TIP3      H1              4.1752400473       19.1415321895      -59.7087928989  TIP3      15389           0.0000000000
     68419     15581  TIP3      H2              5.2180988663       18.3203649547      -60.4501440943  TIP3      15389           0.0000000000
     68420     15582  TIP3      OH2            14.2837268926        1.4528582689      -43.0427139003  TIP3      15390           0.0000000000
     68421     15582  TIP3      H1             14.3053138847        0.9224254545      -42.2140951867  TIP3      15390           0.0000000000
     68422     15582  TIP3      H2             15.1719947097        1.2810885869      -43.3951271026  TIP3      15390           0.0000000000
     68423     15583  TIP3      OH2            17.4595374203       17.4621837350      -44.3977432087  TIP3      15391           0.0000000000
     68424     15583  TIP3      H1             16.6635905839       17.3229355172      -44.9549801312  TIP3      15391           0.0000000000
     68425     15583  TIP3      H2             17.3426477598       18.4119680194      -44.2034498973  TIP3      15391           0.0000000000
     68426     15584  TIP3      OH2            31.9021393064       11.3193754977      -54.4398127168  TIP3      15392           0.0000000000
     68427     15584  TIP3      H1             31.9046834059       12.3039459275      -54.4654126313  TIP3      15392           0.0000000000
     68428     15584  TIP3      H2             31.1723719761       11.0981298135      -55.0415740467  TIP3      15392           0.0000000000
     68429     15585  TIP3      OH2            30.7814415685       10.5706590804      -50.9469970406  TIP3      15393           0.0000000000
     68430     15585  TIP3      H1             30.7359650856        9.9527343548      -50.2028759598  TIP3      15393           0.0000000000
     68431     15585  TIP3      H2             30.4127361259       10.0903360900      -51.7035109040  TIP3      15393           0.0000000000
     68432     15586  TIP3      OH2            23.1163359415       10.2559068184      -49.3860712453  TIP3      15394           0.0000000000
     68433     15586  TIP3      H1             23.1928315201        9.5768159279      -48.6877684811  TIP3      15394           0.0000000000
     68434     15586  TIP3      H2             23.8567553783       10.8387133513      -49.1603660587  TIP3      15394           0.0000000000
     68435     15587  TIP3      OH2            34.4682640481       13.5229656639      -52.6458086022  TIP3      15395           0.0000000000
     68436     15587  TIP3      H1             34.0405531089       12.8174596823      -52.1569791196  TIP3      15395           0.0000000000
     68437     15587  TIP3      H2             34.4694697928       14.2398906066      -51.9914108328  TIP3      15395           0.0000000000
     68438     15588  TIP3      OH2            24.0316103540       14.7188818055      -50.8929660927  TIP3      15396           0.0000000000
     68439     15588  TIP3      H1             23.7198785075       13.8463373869      -51.1981894681  TIP3      15396           0.0000000000
     68440     15588  TIP3      H2             24.9816123852       14.5261981826      -50.8350211850  TIP3      15396           0.0000000000
     68441     15589  TIP3      OH2            20.6794722335        8.2624778514      -55.3919737659  TIP3      15397           0.0000000000
     68442     15589  TIP3      H1             20.2421558501        9.1350168201      -55.4549767553  TIP3      15397           0.0000000000
     68443     15589  TIP3      H2             20.1087134469        7.7292727586      -55.9624221983  TIP3      15397           0.0000000000
     68444     15590  TIP3      OH2            21.4003177805       10.4921664931      -53.2707063270  TIP3      15398           0.0000000000
     68445     15590  TIP3      H1             21.6689628441        9.6765251763      -52.8011825948  TIP3      15398           0.0000000000
     68446     15590  TIP3      H2             22.1021269677       10.5965472205      -53.9253465239  TIP3      15398           0.0000000000
     68447     15591  TIP3      OH2            31.5619769903       18.6946653220      -52.4297869772  TIP3      15399           0.0000000000
     68448     15591  TIP3      H1             32.2096188090       17.9982919900      -52.7032548331  TIP3      15399           0.0000000000
     68449     15591  TIP3      H2             31.3338655560       18.3601309537      -51.5574773453  TIP3      15399           0.0000000000
     68450     15592  TIP3      OH2            29.1391756532       12.9846691940      -50.4609801802  TIP3      15400           0.0000000000
     68451     15592  TIP3      H1             29.4712961573       12.3619531689      -51.1269652188  TIP3      15400           0.0000000000
     68452     15592  TIP3      H2             29.9511432168       13.1510196183      -49.9493961085  TIP3      15400           0.0000000000
     68453     15593  TIP3      OH2            32.2000702215        7.4223834046      -50.1718125437  TIP3      15401           0.0000000000
     68454     15593  TIP3      H1             32.5275547733        6.5019440341      -50.1458380878  TIP3      15401           0.0000000000
     68455     15593  TIP3      H2             32.2695206965        7.6368359703      -51.1169465261  TIP3      15401           0.0000000000
     68456     15594  TIP3      OH2            25.4474950067        5.5583414210      -52.9455693322  TIP3      15402           0.0000000000
     68457     15594  TIP3      H1             25.4875917432        6.3843833966      -53.4596287092  TIP3      15402           0.0000000000
     68458     15594  TIP3      H2             25.0182920604        4.9480003310      -53.5870859220  TIP3      15402           0.0000000000
     68459     15595  TIP3      OH2            33.1580499461        5.6988582812      -54.5100105183  TIP3      15403           0.0000000000
     68460     15595  TIP3      H1             33.8433643355        5.2985966165      -53.9136568583  TIP3      15403           0.0000000000
     68461     15595  TIP3      H2             33.7529076101        6.1738791603      -55.1039437965  TIP3      15403           0.0000000000
     68462     15596  TIP3      OH2            22.0326393501        7.9612792270      -52.2050637773  TIP3      15404           0.0000000000
     68463     15596  TIP3      H1             22.7024026881        7.4169873033      -51.7477897733  TIP3      15404           0.0000000000
     68464     15596  TIP3      H2             22.1382708870        7.6478303111      -53.1168361799  TIP3      15404           0.0000000000
     68465     15597  TIP3      OH2            27.1960124133        9.5156418218      -52.8827004712  TIP3      15405           0.0000000000
     68466     15597  TIP3      H1             27.8554358284        8.9405733109      -52.4768617879  TIP3      15405           0.0000000000
     68467     15597  TIP3      H2             26.6692479369        8.8641606443      -53.3893697286  TIP3      15405           0.0000000000
     68468     15598  TIP3      OH2            24.3355574961        4.5053313295      -48.8597440185  TIP3      15406           0.0000000000
     68469     15598  TIP3      H1             24.0363490046        4.9985964549      -49.6507763269  TIP3      15406           0.0000000000
     68470     15598  TIP3      H2             23.6184179456        4.6838280986      -48.2135893740  TIP3      15406           0.0000000000
     68471     15599  TIP3      OH2            31.5947985420       13.9094659171      -55.3576410526  TIP3      15407           0.0000000000
     68472     15599  TIP3      H1             31.3412268135       13.6475249956      -56.2502098274  TIP3      15407           0.0000000000
     68473     15599  TIP3      H2             31.2995090175       14.8475357341      -55.2993372403  TIP3      15407           0.0000000000
     68474     15600  TIP3      OH2            26.8360193873       12.0864711624      -48.6598027647  TIP3      15408           0.0000000000
     68475     15600  TIP3      H1             26.1314727337       12.7323465569      -48.4400382826  TIP3      15408           0.0000000000
     68476     15600  TIP3      H2             27.5420746670       12.6870745827      -48.9488618214  TIP3      15408           0.0000000000
     68477     15601  TIP3      OH2            34.6415209580        4.9536645519      -52.4436147539  TIP3      15409           0.0000000000
     68478     15601  TIP3      H1             34.7224276342        4.1215365662      -51.9691593271  TIP3      15409           0.0000000000
     68479     15601  TIP3      H2             35.4318118606        5.4112919438      -52.0732980105  TIP3      15409           0.0000000000
     68480     15602  TIP3      OH2            23.8882153421        6.3160411952      -50.8747800110  TIP3      15410           0.0000000000
     68481     15602  TIP3      H1             24.5309511064        6.9849146646      -50.5523120250  TIP3      15410           0.0000000000
     68482     15602  TIP3      H2             24.4112684789        5.8806853435      -51.5948808105  TIP3      15410           0.0000000000
     68483     15603  TIP3      OH2            25.2689726450       14.0912365239      -47.8588422726  TIP3      15411           0.0000000000
     68484     15603  TIP3      H1             25.2274653599       15.0110570980      -48.1793692246  TIP3      15411           0.0000000000
     68485     15603  TIP3      H2             24.3864985531       14.0151203054      -47.4121912468  TIP3      15411           0.0000000000
     68486     15604  TIP3      OH2            21.3651896870       13.7040599630      -57.0468881979  TIP3      15412           0.0000000000
     68487     15604  TIP3      H1             21.1134668735       14.0422384412      -57.9240520960  TIP3      15412           0.0000000000
     68488     15604  TIP3      H2             21.4424874583       14.5312265041      -56.5317820854  TIP3      15412           0.0000000000
     68489     15605  TIP3      OH2            34.7732508771       15.3009896488      -50.1935026358  TIP3      15413           0.0000000000
     68490     15605  TIP3      H1             33.8154697150       15.5147910924      -50.1500235004  TIP3      15413           0.0000000000
     68491     15605  TIP3      H2             35.1567671218       16.1459067474      -50.4963042359  TIP3      15413           0.0000000000
     68492     15606  TIP3      OH2            35.0800229353        3.7866912379      -49.1648947574  TIP3      15414           0.0000000000
     68493     15606  TIP3      H1             34.4167089932        4.4766158723      -49.0054964730  TIP3      15414           0.0000000000
     68494     15606  TIP3      H2             35.8524966124        4.2801151001      -49.4720143369  TIP3      15414           0.0000000000
     68495     15607  TIP3      OH2            28.2811582944        1.7993104142      -51.3951209807  TIP3      15415           0.0000000000
     68496     15607  TIP3      H1             28.1016693387        0.8437975171      -51.5426671929  TIP3      15415           0.0000000000
     68497     15607  TIP3      H2             27.3582601741        2.0656052941      -51.1796231587  TIP3      15415           0.0000000000
     68498     15608  TIP3      OH2            33.1484465367       17.0882110642      -53.6804072498  TIP3      15416           0.0000000000
     68499     15608  TIP3      H1             33.6374449161       16.4092710443      -54.1882931730  TIP3      15416           0.0000000000
     68500     15608  TIP3      H2             33.5989576649       17.8896640424      -54.0318985249  TIP3      15416           0.0000000000
     68501     15609  TIP3      OH2            34.4295872662       15.0751635324      -55.1777165336  TIP3      15417           0.0000000000
     68502     15609  TIP3      H1             34.1828487171       14.3641055260      -55.7888506309  TIP3      15417           0.0000000000
     68503     15609  TIP3      H2             34.4926822620       14.5686557185      -54.3419041043  TIP3      15417           0.0000000000
     68504     15610  TIP3      OH2            35.8024996184       13.8186257329      -46.5624768124  TIP3      15418           0.0000000000
     68505     15610  TIP3      H1             36.0789377241       13.1220638950      -47.1907383792  TIP3      15418           0.0000000000
     68506     15610  TIP3      H2             36.2100561295       14.5786253228      -47.0217875928  TIP3      15418           0.0000000000
     68507     15611  TIP3      OH2            30.5508444964       10.5625060956      -56.9297442092  TIP3      15419           0.0000000000
     68508     15611  TIP3      H1             29.8631515952       11.1497374402      -57.2906751359  TIP3      15419           0.0000000000
     68509     15611  TIP3      H2             31.2670102653       10.6612916398      -57.5834433705  TIP3      15419           0.0000000000
     68510     15612  TIP3      OH2            30.6366221107        9.1410172887      -59.9142130598  TIP3      15420           0.0000000000
     68511     15612  TIP3      H1             31.3530939975        9.1195895427      -59.2604721503  TIP3      15420           0.0000000000
     68512     15612  TIP3      H2             30.9407764312        8.4227025525      -60.4852922386  TIP3      15420           0.0000000000
     68513     15613  TIP3      OH2            33.9766249039       10.7865613465      -56.0378347901  TIP3      15421           0.0000000000
     68514     15613  TIP3      H1             33.2529701418       11.0404545220      -55.4177248243  TIP3      15421           0.0000000000
     68515     15613  TIP3      H2             34.4601907865       10.1480710878      -55.4705699960  TIP3      15421           0.0000000000
     68516     15614  TIP3      OH2            33.9519546114        8.9618601881      -46.9084135473  TIP3      15422           0.0000000000
     68517     15614  TIP3      H1             33.9016850668        9.7586832299      -46.3552145091  TIP3      15422           0.0000000000
     68518     15614  TIP3      H2             33.3101998221        9.2307473563      -47.5903318049  TIP3      15422           0.0000000000
     68519     15615  TIP3      OH2            25.6184884250       11.4458303278      -54.0880237791  TIP3      15423           0.0000000000
     68520     15615  TIP3      H1             25.2975147773       11.0513161528      -54.9355103575  TIP3      15423           0.0000000000
     68521     15615  TIP3      H2             26.2317454814       10.7516422577      -53.7525973022  TIP3      15423           0.0000000000
     68522     15616  TIP3      OH2            26.9361549502       14.8227159406      -51.4056566800  TIP3      15424           0.0000000000
     68523     15616  TIP3      H1             26.9323103967       14.3006083922      -52.2169051324  TIP3      15424           0.0000000000
     68524     15616  TIP3      H2             27.7199423477       14.4686352127      -50.9472433912  TIP3      15424           0.0000000000
     68525     15617  TIP3      OH2            25.9457108589       10.1864298016      -50.4230009409  TIP3      15425           0.0000000000
     68526     15617  TIP3      H1             26.4960013919       10.2837827089      -51.2250606643  TIP3      15425           0.0000000000
     68527     15617  TIP3      H2             26.3330527155       10.8561038982      -49.8186516060  TIP3      15425           0.0000000000
     68528     15618  TIP3      OH2            32.2869477652       15.7761063524      -49.7322750169  TIP3      15426           0.0000000000
     68529     15618  TIP3      H1             32.0900825529       16.3994406609      -49.0298704651  TIP3      15426           0.0000000000
     68530     15618  TIP3      H2             32.1080404003       14.9068238726      -49.2997036603  TIP3      15426           0.0000000000
     68531     15619  TIP3      OH2            26.8983162218       14.6175754758      -45.7303206763  TIP3      15427           0.0000000000
     68532     15619  TIP3      H1             26.4850405034       15.3568536143      -45.2386228540  TIP3      15427           0.0000000000
     68533     15619  TIP3      H2             26.2254499657       14.4183860997      -46.4258878656  TIP3      15427           0.0000000000
     68534     15620  TIP3      OH2            32.8732841497        9.9615542528      -58.3272069754  TIP3      15428           0.0000000000
     68535     15620  TIP3      H1             33.4277064817       10.1817769998      -57.5378858183  TIP3      15428           0.0000000000
     68536     15620  TIP3      H2             33.2742543525       10.4901501637      -59.0468803576  TIP3      15428           0.0000000000
     68537     15621  TIP3      OH2            23.8512579905       10.7630695067      -46.5601648146  TIP3      15429           0.0000000000
     68538     15621  TIP3      H1             23.9009815248       11.4443712309      -45.8628828167  TIP3      15429           0.0000000000
     68539     15621  TIP3      H2             22.9103487483       10.8691197366      -46.7821016043  TIP3      15429           0.0000000000
     68540     15622  TIP3      OH2            30.5866513562       16.7053421994      -54.8743935314  TIP3      15430           0.0000000000
     68541     15622  TIP3      H1             31.0191567678       17.0036738860      -54.0628848904  TIP3      15430           0.0000000000
     68542     15622  TIP3      H2             30.0288211949       17.4545074745      -55.1060096428  TIP3      15430           0.0000000000
     68543     15623  TIP3      OH2            25.1480847303       16.6517454665      -44.9812472537  TIP3      15431           0.0000000000
     68544     15623  TIP3      H1             25.0851518889       16.5540512271      -45.9466554012  TIP3      15431           0.0000000000
     68545     15623  TIP3      H2             24.2178637573       16.5188196439      -44.7124610301  TIP3      15431           0.0000000000
     68546     15624  TIP3      OH2            24.5764802718       10.4585764575      -56.4540865668  TIP3      15432           0.0000000000
     68547     15624  TIP3      H1             24.3005247189       11.2434426768      -56.9739011795  TIP3      15432           0.0000000000
     68548     15624  TIP3      H2             23.9327560450        9.7937865994      -56.7047621434  TIP3      15432           0.0000000000
     68549     15625  TIP3      OH2            20.6817003809       12.8947989523      -47.5193950090  TIP3      15433           0.0000000000
     68550     15625  TIP3      H1             20.2476225970       12.8780038362      -48.4201025270  TIP3      15433           0.0000000000
     68551     15625  TIP3      H2             20.7389002294       11.9340924556      -47.3773605467  TIP3      15433           0.0000000000
     68552     15626  TIP3      OH2            20.4750067133       15.7713208378      -50.9425025532  TIP3      15434           0.0000000000
     68553     15626  TIP3      H1             21.3846782598       15.4913129095      -50.7875167704  TIP3      15434           0.0000000000
     68554     15626  TIP3      H2             20.3440324278       16.4349279597      -50.2612592966  TIP3      15434           0.0000000000
     68555     15627  TIP3      OH2            29.6350193294       15.8726600626      -46.2437998958  TIP3      15435           0.0000000000
     68556     15627  TIP3      H1             29.6934835204       16.7154145939      -45.7360774417  TIP3      15435           0.0000000000
     68557     15627  TIP3      H2             28.7595931360       15.5214235028      -45.9959349428  TIP3      15435           0.0000000000
     68558     15628  TIP3      OH2            30.1135600105       19.6173929297      -56.4473012423  TIP3      15436           0.0000000000
     68559     15628  TIP3      H1             29.9796864834       19.5358478234      -57.4107041633  TIP3      15436           0.0000000000
     68560     15628  TIP3      H2             30.0985427743       20.5826440896      -56.3016467355  TIP3      15436           0.0000000000
     68561     15629  TIP3      OH2            23.6900563861       18.5146940996      -54.6228459116  TIP3      15437           0.0000000000
     68562     15629  TIP3      H1             23.8712942311       18.0714817959      -53.7605311844  TIP3      15437           0.0000000000
     68563     15629  TIP3      H2             22.8724933346       18.0396469763      -54.8630911731  TIP3      15437           0.0000000000
     68564     15630  TIP3      OH2            33.1483159573       18.8390393997      -59.4843899931  TIP3      15438           0.0000000000
     68565     15630  TIP3      H1             33.5784763699       18.0685459762      -59.9215028721  TIP3      15438           0.0000000000
     68566     15630  TIP3      H2             33.1659404571       18.5673531493      -58.5445353494  TIP3      15438           0.0000000000
     68567     15631  TIP3      OH2            32.8063743676       18.7457352775      -56.6836607684  TIP3      15439           0.0000000000
     68568     15631  TIP3      H1             31.8434717945       18.8350089551      -56.5154150171  TIP3      15439           0.0000000000
     68569     15631  TIP3      H2             33.0371275000       18.0046622635      -56.1051598306  TIP3      15439           0.0000000000
     68570     15632  TIP3      OH2            35.3295940959        7.9756800207      -44.6053553024  TIP3      15440           0.0000000000
     68571     15632  TIP3      H1             35.2887922811        8.3233520005      -45.5001121001  TIP3      15440           0.0000000000
     68572     15632  TIP3      H2             35.8669092914        7.1485681703      -44.7577444679  TIP3      15440           0.0000000000
     68573     15633  TIP3      OH2            22.9584439642       14.2132604214      -46.6344830424  TIP3      15441           0.0000000000
     68574     15633  TIP3      H1             23.1661882648       13.8392812362      -45.7541513667  TIP3      15441           0.0000000000
     68575     15633  TIP3      H2             22.0912889546       13.8116138522      -46.8546687840  TIP3      15441           0.0000000000
     68576     15634  TIP3      OH2            25.6443067071        2.7271407325      -50.3975109253  TIP3      15442           0.0000000000
     68577     15634  TIP3      H1             24.9218649876        2.5392691157      -51.0548585095  TIP3      15442           0.0000000000
     68578     15634  TIP3      H2             25.4410167087        3.6317205022      -50.1706836969  TIP3      15442           0.0000000000
     68579     15635  TIP3      OH2            30.2874185828        2.3747828320      -47.3282608012  TIP3      15443           0.0000000000
     68580     15635  TIP3      H1             30.6854248116        1.9378692838      -46.5501356223  TIP3      15443           0.0000000000
     68581     15635  TIP3      H2             29.3184091869        2.2391559823      -47.1782629678  TIP3      15443           0.0000000000
     68582     15636  TIP3      OH2            33.5047422644        6.1520898411      -46.4857934220  TIP3      15444           0.0000000000
     68583     15636  TIP3      H1             33.0314519529        5.9837204213      -45.6380233962  TIP3      15444           0.0000000000
     68584     15636  TIP3      H2             33.4299833433        7.1089602021      -46.6162348573  TIP3      15444           0.0000000000
     68585     15637  TIP3      OH2            34.3774733156       10.9206296661      -60.5204330211  TIP3      15445           0.0000000000
     68586     15637  TIP3      H1             34.3049316765       10.7706518748      -61.4906083455  TIP3      15445           0.0000000000
     68587     15637  TIP3      H2             35.1471019564       11.4892068888      -60.4912967869  TIP3      15445           0.0000000000
     68588     15638  TIP3      OH2            29.9338916768        4.9374868289      -60.0103345430  TIP3      15446           0.0000000000
     68589     15638  TIP3      H1             29.6133209106        4.8734436664      -59.0918258888  TIP3      15446           0.0000000000
     68590     15638  TIP3      H2             29.6184298907        4.0648543274      -60.3207401113  TIP3      15446           0.0000000000
     68591     15639  TIP3      OH2            25.7633734972        7.6476601054      -49.4427264562  TIP3      15447           0.0000000000
     68592     15639  TIP3      H1             25.0261977137        7.6361590654      -48.8035228287  TIP3      15447           0.0000000000
     68593     15639  TIP3      H2             25.7013829219        8.5601458321      -49.8059252284  TIP3      15447           0.0000000000
     68594     15640  TIP3      OH2            25.7220628772        7.7536106697      -54.5634704908  TIP3      15448           0.0000000000
     68595     15640  TIP3      H1             24.7740833029        7.5417041777      -54.6926312239  TIP3      15448           0.0000000000
     68596     15640  TIP3      H2             26.0724008356        7.4912992477      -55.4363960134  TIP3      15448           0.0000000000
     68597     15641  TIP3      OH2            31.2352900590        8.2734274900      -55.7722289816  TIP3      15449           0.0000000000
     68598     15641  TIP3      H1             30.8317252877        9.0909361300      -56.1544323770  TIP3      15449           0.0000000000
     68599     15641  TIP3      H2             31.9166441514        8.1147502253      -56.4478990794  TIP3      15449           0.0000000000
     68600     15642  TIP3      OH2            30.4217278430        8.4273102811      -44.4549313448  TIP3      15450           0.0000000000
     68601     15642  TIP3      H1             29.9089325909        7.6057878396      -44.2098277777  TIP3      15450           0.0000000000
     68602     15642  TIP3      H2             31.2541152683        8.3189588512      -43.9460551984  TIP3      15450           0.0000000000
     68603     15643  TIP3      OH2            32.1141652865        7.7134463005      -52.9305251607  TIP3      15451           0.0000000000
     68604     15643  TIP3      H1             32.0216834391        8.3455013628      -53.6755063081  TIP3      15451           0.0000000000
     68605     15643  TIP3      H2             32.4359496095        6.9461631299      -53.4499316102  TIP3      15451           0.0000000000
     68606     15644  TIP3      OH2            23.3621898182        7.8984757511      -47.7572846025  TIP3      15452           0.0000000000
     68607     15644  TIP3      H1             23.4420706541        8.3064985729      -46.8776498748  TIP3      15452           0.0000000000
     68608     15644  TIP3      H2             22.9415654785        7.0458184206      -47.5519004053  TIP3      15452           0.0000000000
     68609     15645  TIP3      OH2            26.7385360047        5.3034304226      -60.8937806723  TIP3      15453           0.0000000000
     68610     15645  TIP3      H1             26.2842684605        4.8822601246      -60.1355446268  TIP3      15453           0.0000000000
     68611     15645  TIP3      H2             26.0289758553        5.7351481395      -61.3852135260  TIP3      15453           0.0000000000
     68612     15646  TIP3      OH2            20.0280131833        5.0199384663      -53.7680675912  TIP3      15454           0.0000000000
     68613     15646  TIP3      H1             20.7046272361        4.9699098962      -53.0629570480  TIP3      15454           0.0000000000
     68614     15646  TIP3      H2             20.4875676488        4.6309243217      -54.5357522269  TIP3      15454           0.0000000000
     68615     15647  TIP3      OH2            21.2909408391        5.7294312438      -58.4167962560  TIP3      15455           0.0000000000
     68616     15647  TIP3      H1             21.8022452294        6.3472652382      -58.9708066624  TIP3      15455           0.0000000000
     68617     15647  TIP3      H2             20.6084831216        6.3470774291      -58.0807095039  TIP3      15455           0.0000000000
     68618     15648  TIP3      OH2            31.4218844707        9.3357996151      -48.4076523291  TIP3      15456           0.0000000000
     68619     15648  TIP3      H1             31.8398961587        8.6480684836      -48.9626858645  TIP3      15456           0.0000000000
     68620     15648  TIP3      H2             30.9838784778        8.8187823353      -47.7139004384  TIP3      15456           0.0000000000
     68621     15649  TIP3      OH2            28.3104944326        5.4160923965      -53.4990186412  TIP3      15457           0.0000000000
     68622     15649  TIP3      H1             27.3334100493        5.3153230930      -53.3627057110  TIP3      15457           0.0000000000
     68623     15649  TIP3      H2             28.5899862778        5.0385453643      -52.6757156011  TIP3      15457           0.0000000000
     68624     15650  TIP3      OH2            23.0720347012        6.8994684508      -54.7076253195  TIP3      15458           0.0000000000
     68625     15650  TIP3      H1             22.1794227338        7.0344391712      -55.0866949189  TIP3      15458           0.0000000000
     68626     15650  TIP3      H2             23.3536720761        6.0410866433      -55.0803474555  TIP3      15458           0.0000000000
     68627     15651  TIP3      OH2            26.7086643753        6.9223995052      -57.0692688321  TIP3      15459           0.0000000000
     68628     15651  TIP3      H1             27.6629195287        7.0431815415      -56.9249106744  TIP3      15459           0.0000000000
     68629     15651  TIP3      H2             26.4682355476        7.6079218614      -57.7196407510  TIP3      15459           0.0000000000
     68630     15652  TIP3      OH2            32.5491098442        4.6545238515      -50.3386899164  TIP3      15460           0.0000000000
     68631     15652  TIP3      H1             31.9423342736        4.5749796281      -49.5707547630  TIP3      15460           0.0000000000
     68632     15652  TIP3      H2             32.1485242214        4.1966028969      -51.0838120192  TIP3      15460           0.0000000000
     68633     15653  TIP3      OH2            25.4190769223        8.1026687890      -59.4756808119  TIP3      15461           0.0000000000
     68634     15653  TIP3      H1             24.8858573602        7.7227011909      -60.1950109095  TIP3      15461           0.0000000000
     68635     15653  TIP3      H2             26.2395946559        8.3095829660      -59.9498018872  TIP3      15461           0.0000000000
     68636     15654  TIP3      OH2            35.7678888864       20.2496640632      -43.9622883569  TIP3      15462           0.0000000000
     68637     15654  TIP3      H1             36.1096986315       20.5789909353      -44.8076870559  TIP3      15462           0.0000000000
     68638     15654  TIP3      H2             36.5160822706       20.5059983890      -43.3951573241  TIP3      15462           0.0000000000
     68639     15655  TIP3      OH2            23.5550216531       12.6586891754      -44.4180998535  TIP3      15463           0.0000000000
     68640     15655  TIP3      H1             24.2655653811       12.9227716053      -43.8137262201  TIP3      15463           0.0000000000
     68641     15655  TIP3      H2             22.7730454859       12.7553099728      -43.8264075911  TIP3      15463           0.0000000000
     68642     15656  TIP3      OH2            29.4716922197        8.0292229606      -51.6915008194  TIP3      15464           0.0000000000
     68643     15656  TIP3      H1             30.2059780285        7.6812090446      -52.1964803538  TIP3      15464           0.0000000000
     68644     15656  TIP3      H2             29.3999709865        7.5842443992      -50.8326382603  TIP3      15464           0.0000000000
     68645     15657  TIP3      OH2            24.5151038768        4.2571765155      -55.2969559717  TIP3      15465           0.0000000000
     68646     15657  TIP3      H1             24.2655520140        3.3161062460      -55.1690458779  TIP3      15465           0.0000000000
     68647     15657  TIP3      H2             25.3540311946        4.1356634036      -55.7539643176  TIP3      15465           0.0000000000
     68648     15658  TIP3      OH2            28.2126855355        6.4208101254      -49.2907600690  TIP3      15466           0.0000000000
     68649     15658  TIP3      H1             27.3653572195        6.9081324039      -49.1642584786  TIP3      15466           0.0000000000
     68650     15658  TIP3      H2             28.7290143059        6.7517427145      -48.5271499445  TIP3      15466           0.0000000000
     68651     15659  TIP3      OH2            28.7698875239       12.6350486432      -57.5550237716  TIP3      15467           0.0000000000
     68652     15659  TIP3      H1             27.9694622274       12.1704248305      -57.8909486444  TIP3      15467           0.0000000000
     68653     15659  TIP3      H2             28.5454979223       12.7555782710      -56.6098881856  TIP3      15467           0.0000000000
     68654     15660  TIP3      OH2            35.6408985018       11.8559777393      -48.7567017811  TIP3      15468           0.0000000000
     68655     15660  TIP3      H1             36.3649682555       11.9849542461      -49.4082295223  TIP3      15468           0.0000000000
     68656     15660  TIP3      H2             34.8776073000       11.8609033474      -49.3652244630  TIP3      15468           0.0000000000
     68657     15661  TIP3      OH2            32.6304941330        5.4574362784      -59.3815042137  TIP3      15469           0.0000000000
     68658     15661  TIP3      H1             31.6725850620        5.5796681718      -59.5266872269  TIP3      15469           0.0000000000
     68659     15661  TIP3      H2             32.9117554310        6.3206187097      -59.0145867890  TIP3      15469           0.0000000000
     68660     15662  TIP3      OH2            30.2761826145       12.9008889122      -46.3081690747  TIP3      15470           0.0000000000
     68661     15662  TIP3      H1             29.9059750163       12.4971935491      -45.5257353187  TIP3      15470           0.0000000000
     68662     15662  TIP3      H2             30.0393165686       13.8279575639      -46.2163004962  TIP3      15470           0.0000000000
     68663     15663  TIP3      OH2            33.3331862780        7.3848973617      -57.7799782096  TIP3      15471           0.0000000000
     68664     15663  TIP3      H1             34.2029806563        7.2447958733      -57.3504541426  TIP3      15471           0.0000000000
     68665     15663  TIP3      H2             33.4348064134        8.2225782524      -58.2622702367  TIP3      15471           0.0000000000
     68666     15664  TIP3      OH2            23.8750521731       12.0322571805      -51.7499424819  TIP3      15472           0.0000000000
     68667     15664  TIP3      H1             24.5484309993       11.9518966507      -52.4516905853  TIP3      15472           0.0000000000
     68668     15664  TIP3      H2             23.9382259110       11.1730379829      -51.2953864374  TIP3      15472           0.0000000000
     68669     15665  TIP3      OH2            30.8473708464       14.1031518636      -58.5230366195  TIP3      15473           0.0000000000
     68670     15665  TIP3      H1             30.5207618895       14.9534014855      -58.1601223465  TIP3      15473           0.0000000000
     68671     15665  TIP3      H2             30.1199417858       13.4849654816      -58.2948498905  TIP3      15473           0.0000000000
     68672     15666  TIP3      OH2            20.8736771762       10.4302187179      -46.4985158508  TIP3      15474           0.0000000000
     68673     15666  TIP3      H1             21.0384579942        9.9921965364      -45.6434662256  TIP3      15474           0.0000000000
     68674     15666  TIP3      H2             20.2522151427        9.8252022444      -46.9390160567  TIP3      15474           0.0000000000
     68675     15667  TIP3      OH2            27.8622560916       10.0196108728      -44.3938113895  TIP3      15475           0.0000000000
     68676     15667  TIP3      H1             27.4825810429        9.7254498890      -45.2533814943  TIP3      15475           0.0000000000
     68677     15667  TIP3      H2             28.7892579666        9.8441641287      -44.5760805343  TIP3      15475           0.0000000000
     68678     15668  TIP3      OH2            32.5657879748       15.3112888248      -46.3634768995  TIP3      15476           0.0000000000
     68679     15668  TIP3      H1             31.6470196315       15.4960381852      -46.6030305776  TIP3      15476           0.0000000000
     68680     15668  TIP3      H2             32.5396454310       15.6154525195      -45.4363745596  TIP3      15476           0.0000000000
     68681     15669  TIP3      OH2            33.6821883732       11.1298622518      -50.4630862967  TIP3      15477           0.0000000000
     68682     15669  TIP3      H1             32.7440322125       10.9271421197      -50.6024026196  TIP3      15477           0.0000000000
     68683     15669  TIP3      H2             34.1541171644       10.3895545311      -50.8865993983  TIP3      15477           0.0000000000
     68684     15670  TIP3      OH2            26.2563623411       15.4879009323      -54.3684647780  TIP3      15478           0.0000000000
     68685     15670  TIP3      H1             26.7539262755       16.2927904886      -54.5768931289  TIP3      15478           0.0000000000
     68686     15670  TIP3      H2             25.3765423670       15.7122145809      -54.7001528442  TIP3      15478           0.0000000000
     68687     15671  TIP3      OH2            22.0196011308       10.3223871244      -59.7988123162  TIP3      15479           0.0000000000
     68688     15671  TIP3      H1             22.5987098515       10.9875311589      -59.3891484334  TIP3      15479           0.0000000000
     68689     15671  TIP3      H2             21.1293448933       10.6357842632      -59.5503932960  TIP3      15479           0.0000000000
     68690     15672  TIP3      OH2            27.6659170025       13.1503438498      -54.8608814972  TIP3      15480           0.0000000000
     68691     15672  TIP3      H1             27.3529762430       14.0688731706      -54.7591300428  TIP3      15480           0.0000000000
     68692     15672  TIP3      H2             26.9524233043       12.6557058246      -54.4098504311  TIP3      15480           0.0000000000
     68693     15673  TIP3      OH2            28.1162201072       17.3342374233      -48.4381929420  TIP3      15481           0.0000000000
     68694     15673  TIP3      H1             28.5798918404       18.1376230049      -48.7276195132  TIP3      15481           0.0000000000
     68695     15673  TIP3      H2             28.7307797274       16.9924894682      -47.7633872212  TIP3      15481           0.0000000000
     68696     15674  TIP3      OH2            26.3412241254       18.1518467076      -55.3398201787  TIP3      15482           0.0000000000
     68697     15674  TIP3      H1             25.3826632072       18.2726055666      -55.1796699065  TIP3      15482           0.0000000000
     68698     15674  TIP3      H2             26.7229769449       18.9691146967      -54.9724334087  TIP3      15482           0.0000000000
     68699     15675  TIP3      OH2            31.6588930132       13.3294565100      -48.8181780957  TIP3      15483           0.0000000000
     68700     15675  TIP3      H1             31.3181792517       13.1325774461      -47.9188931876  TIP3      15483           0.0000000000
     68701     15675  TIP3      H2             32.2902960587       12.6141890424      -48.9880819806  TIP3      15483           0.0000000000
     68702     15676  TIP3      OH2            33.9586781613       14.3835445039      -59.7422742578  TIP3      15484           0.0000000000
     68703     15676  TIP3      H1             34.2819334234       13.9529803887      -58.9259680739  TIP3      15484           0.0000000000
     68704     15676  TIP3      H2             33.0085428637       14.2134782860      -59.6513270108  TIP3      15484           0.0000000000
     68705     15677  TIP3      OH2            34.4658370991       17.8867028128      -46.3507546785  TIP3      15485           0.0000000000
     68706     15677  TIP3      H1             33.7399124712       17.4228053226      -46.8186948242  TIP3      15485           0.0000000000
     68707     15677  TIP3      H2             34.6688902325       18.6077451267      -46.9858125241  TIP3      15485           0.0000000000
     68708     15678  TIP3      OH2            22.5214209622        5.1675776628      -46.9415684479  TIP3      15486           0.0000000000
     68709     15678  TIP3      H1             21.6152300970        5.5109234399      -46.9770570727  TIP3      15486           0.0000000000
     68710     15678  TIP3      H2             22.4083185763        4.3192944902      -46.4844255958  TIP3      15486           0.0000000000
     68711     15679  TIP3      OH2            34.7592844664       12.9936622848      -57.5159218445  TIP3      15487           0.0000000000
     68712     15679  TIP3      H1             34.5333075125       12.2272667169      -56.9430886282  TIP3      15487           0.0000000000
     68713     15679  TIP3      H2             35.6968806652       13.1137146152      -57.2868880380  TIP3      15487           0.0000000000
     68714     15680  TIP3      OH2            22.1308214774       16.9502350819      -48.5169469035  TIP3      15488           0.0000000000
     68715     15680  TIP3      H1             22.4320408896       16.0282065182      -48.5127167569  TIP3      15488           0.0000000000
     68716     15680  TIP3      H2             22.3952527162       17.2386485423      -47.6366807467  TIP3      15488           0.0000000000
     68717     15681  TIP3      OH2            28.1080464160       15.4784591432      -61.2379829240  TIP3      15489           0.0000000000
     68718     15681  TIP3      H1             28.2074870813       14.7145732420      -61.8289394114  TIP3      15489           0.0000000000
     68719     15681  TIP3      H2             27.6663928057       15.0474816713      -60.4739979397  TIP3      15489           0.0000000000
     68720     15682  TIP3      OH2            26.8741270756       15.0059129652      -58.7831846361  TIP3      15490           0.0000000000
     68721     15682  TIP3      H1             27.1507801779       14.4905246671      -58.0157515316  TIP3      15490           0.0000000000
     68722     15682  TIP3      H2             26.9721527932       15.9324690576      -58.4622131513  TIP3      15490           0.0000000000
     68723     15683  TIP3      OH2            23.4243077503       12.2506539284      -58.2997406100  TIP3      15491           0.0000000000
     68724     15683  TIP3      H1             22.7088316216       12.6463223066      -57.7626328486  TIP3      15491           0.0000000000
     68725     15683  TIP3      H2             23.9283486640       13.0311476802      -58.5943041985  TIP3      15491           0.0000000000
     68726     15684  TIP3      OH2            31.2276438583        4.9113017479      -48.0130841515  TIP3      15492           0.0000000000
     68727     15684  TIP3      H1             31.9478296852        5.0116381665      -47.3692961026  TIP3      15492           0.0000000000
     68728     15684  TIP3      H2             30.8480409072        4.0481132886      -47.7538231159  TIP3      15492           0.0000000000
     68729     15685  TIP3      OH2            32.0349511793        4.5076733769      -56.8761948475  TIP3      15493           0.0000000000
     68730     15685  TIP3      H1             32.2291765013        4.9582616364      -57.7254811597  TIP3      15493           0.0000000000
     68731     15685  TIP3      H2             32.6290876068        4.9615624323      -56.2740642034  TIP3      15493           0.0000000000
     68732     15686  TIP3      OH2            29.6849822381       16.6687856712      -58.0905014100  TIP3      15494           0.0000000000
     68733     15686  TIP3      H1             28.8670192011       17.2004720363      -58.0194502753  TIP3      15494           0.0000000000
     68734     15686  TIP3      H2             30.2240693559       17.2188050896      -58.6771126120  TIP3      15494           0.0000000000
     68735     15687  TIP3      OH2            29.2510781817        6.2343195279      -56.0660248444  TIP3      15495           0.0000000000
     68736     15687  TIP3      H1             30.0065463862        6.8575076545      -56.0455121018  TIP3      15495           0.0000000000
     68737     15687  TIP3      H2             28.9390990973        6.1646365673      -55.1518506596  TIP3      15495           0.0000000000
     68738     15688  TIP3      OH2            29.7961885945        7.2625460835      -46.8909868266  TIP3      15496           0.0000000000
     68739     15688  TIP3      H1             29.9222257041        7.8529174983      -46.1305424762  TIP3      15496           0.0000000000
     68740     15688  TIP3      H2             30.4651467815        6.5743660589      -46.7983647739  TIP3      15496           0.0000000000
     68741     15689  TIP3      OH2            30.0955018104        3.3258976783      -55.1823039890  TIP3      15497           0.0000000000
     68742     15689  TIP3      H1             29.7135668306        3.9808083026      -54.5953468895  TIP3      15497           0.0000000000
     68743     15689  TIP3      H2             30.7688909169        3.8624661729      -55.6666051976  TIP3      15497           0.0000000000
     68744     15690  TIP3      OH2            27.0812569544       17.7018123189      -58.0610583089  TIP3      15498           0.0000000000
     68745     15690  TIP3      H1             27.1678397400       18.5184045073      -58.6127959305  TIP3      15498           0.0000000000
     68746     15690  TIP3      H2             26.8012258577       18.0707701896      -57.1942435873  TIP3      15498           0.0000000000
     68747     15691  TIP3      OH2            25.7322413526        4.4222874612      -58.4822483982  TIP3      15499           0.0000000000
     68748     15691  TIP3      H1             25.6809641683        5.3208241712      -58.0979906347  TIP3      15499           0.0000000000
     68749     15691  TIP3      H2             26.6325089014        4.1686893367      -58.1999998358  TIP3      15499           0.0000000000
     68750     15692  TIP3      OH2            35.8358102170        4.9231578959      -46.2370962483  TIP3      15500           0.0000000000
     68751     15692  TIP3      H1             35.0048921205        5.4554249471      -46.2016576110  TIP3      15500           0.0000000000
     68752     15692  TIP3      H2             36.2344027786        5.2137744067      -47.0575164601  TIP3      15500           0.0000000000
     68753     15693  TIP3      OH2            34.5492387593        8.9388943164      -51.9783882797  TIP3      15501           0.0000000000
     68754     15693  TIP3      H1             33.7517369225        8.5008353797      -52.3046045258  TIP3      15501           0.0000000000
     68755     15693  TIP3      H2             35.0136336473        8.2377982439      -51.5086215908  TIP3      15501           0.0000000000
     68756     15694  TIP3      OH2            23.9627920596       14.8649055907      -59.4400636740  TIP3      15502           0.0000000000
     68757     15694  TIP3      H1             24.6285103822       15.4974739828      -59.1298111998  TIP3      15502           0.0000000000
     68758     15694  TIP3      H2             24.4840694831       14.4007954628      -60.1257776879  TIP3      15502           0.0000000000
     68759     15695  TIP3      OH2            22.3100547766        7.5383578085      -60.2965904034  TIP3      15503           0.0000000000
     68760     15695  TIP3      H1             22.3283872319        8.4961147589      -60.0861528391  TIP3      15503           0.0000000000
     68761     15695  TIP3      H2             21.4178721949        7.3641443698      -60.6038038444  TIP3      15503           0.0000000000
     68762     15696  TIP3      OH2            35.6980067730       18.2301487336      -50.3729653770  TIP3      15504           0.0000000000
     68763     15696  TIP3      H1             35.5429790226       18.9002050057      -51.0654451689  TIP3      15504           0.0000000000
     68764     15696  TIP3      H2             36.6429100361       18.3175998281      -50.2100427756  TIP3      15504           0.0000000000
     68765     15697  TIP3      OH2            22.8406991740        2.3985575914      -51.4683944471  TIP3      15505           0.0000000000
     68766     15697  TIP3      H1             23.0205928236        2.3493344970      -52.4397308355  TIP3      15505           0.0000000000
     68767     15697  TIP3      H2             22.7284076015        1.4485121876      -51.2921000885  TIP3      15505           0.0000000000
     68768     15698  TIP3      OH2            22.0923376498       16.2746350025      -55.3902790926  TIP3      15506           0.0000000000
     68769     15698  TIP3      H1             21.2196972386       16.6809006766      -55.4626443185  TIP3      15506           0.0000000000
     68770     15698  TIP3      H2             22.5576432146       16.6975188696      -56.1216762199  TIP3      15506           0.0000000000
     68771     15699  TIP3      OH2            21.2850693870       18.9091327068      -44.1271443226  TIP3      15507           0.0000000000
     68772     15699  TIP3      H1             21.8891667762       18.6995843929      -43.3894438555  TIP3      15507           0.0000000000
     68773     15699  TIP3      H2             20.8805996897       18.0400102360      -44.3078598299  TIP3      15507           0.0000000000
     68774     15700  TIP3      OH2            25.9655178116       17.8124090767      -42.5186721355  TIP3      15508           0.0000000000
     68775     15700  TIP3      H1             26.7235170658       17.3160846646      -42.1837920393  TIP3      15508           0.0000000000
     68776     15700  TIP3      H2             25.9410173288       17.5358883433      -43.4533607897  TIP3      15508           0.0000000000
     68777     15701  TIP3      OH2            30.1091548586       17.3279953308      -61.1165007633  TIP3      15509           0.0000000000
     68778     15701  TIP3      H1             29.4133992076       16.6722882937      -60.8880356556  TIP3      15509           0.0000000000
     68779     15701  TIP3      H2             30.8283864212       16.7257379096      -61.3597420367  TIP3      15509           0.0000000000
     68780     15702  TIP3      OH2            32.5266168132       16.1907442321      -43.7730666813  TIP3      15510           0.0000000000
     68781     15702  TIP3      H1             32.1702119631       15.3203698364      -43.5025084142  TIP3      15510           0.0000000000
     68782     15702  TIP3      H2             33.2793997449       16.2910678133      -43.1600587695  TIP3      15510           0.0000000000
     68783     15703  TIP3      OH2            34.6336808821       17.0905003877      -60.8778549363  TIP3      15511           0.0000000000
     68784     15703  TIP3      H1             34.9411410506       16.2895690245      -60.4266366469  TIP3      15511           0.0000000000
     68785     15703  TIP3      H2             35.3810791807       17.2716608275      -61.4782554278  TIP3      15511           0.0000000000
     68786     15704  TIP3      OH2            21.1950104788       12.6835802050      -43.1499937227  TIP3      15512           0.0000000000
     68787     15704  TIP3      H1             21.3634075388       11.7589862034      -43.4110932594  TIP3      15512           0.0000000000
     68788     15704  TIP3      H2             20.4467535305       12.9245076610      -43.7157566712  TIP3      15512           0.0000000000
     68789     15705  TIP3      OH2            25.5425314328       13.0101295631      -61.1128169532  TIP3      15513           0.0000000000
     68790     15705  TIP3      H1             25.6887895747       12.2523960988      -60.5231246942  TIP3      15513           0.0000000000
     68791     15705  TIP3      H2             26.2949074748       12.8950439219      -61.7275130816  TIP3      15513           0.0000000000
     68792     15706  TIP3      OH2            27.9267278882       12.6517479283      -43.7416751605  TIP3      15514           0.0000000000
     68793     15706  TIP3      H1             27.5748252015       13.0018231690      -44.5888334239  TIP3      15514           0.0000000000
     68794     15706  TIP3      H2             27.9666305998       11.6909414156      -43.8930430404  TIP3      15514           0.0000000000
     68795     15707  TIP3      OH2            30.9710269399       14.1216713262      -61.3321791699  TIP3      15515           0.0000000000
     68796     15707  TIP3      H1             30.6990466049       14.2037402664      -60.4044535787  TIP3      15515           0.0000000000
     68797     15707  TIP3      H2             30.7792457501       13.1644187927      -61.4763627818  TIP3      15515           0.0000000000
     68798     15708  TIP3      OH2            33.5832455865       12.4783426244      -46.3497153713  TIP3      15516           0.0000000000
     68799     15708  TIP3      H1             34.3732734236       13.0741250375      -46.4056017834  TIP3      15516           0.0000000000
     68800     15708  TIP3      H2             32.9090644263       13.1670714193      -46.3072875564  TIP3      15516           0.0000000000
     68801     15709  TIP3      OH2            22.0693748739        9.8753849690      -43.7734389575  TIP3      15517           0.0000000000
     68802     15709  TIP3      H1             22.5411374826        9.0392595727      -43.8259139923  TIP3      15517           0.0000000000
     68803     15709  TIP3      H2             21.8890376950        9.9161187614      -42.8153609784  TIP3      15517           0.0000000000
     68804     15710  TIP3      OH2            26.7645003364       11.0272720100      -58.6769739611  TIP3      15518           0.0000000000
     68805     15710  TIP3      H1             26.2481469300       10.4921610458      -58.0542449490  TIP3      15518           0.0000000000
     68806     15710  TIP3      H2             27.0512675157       10.3548454083      -59.3367441881  TIP3      15518           0.0000000000
     68807     15711  TIP3      OH2            26.0576555148        8.8677628135      -46.3607626991  TIP3      15519           0.0000000000
     68808     15711  TIP3      H1             25.3977865729        9.5536362417      -46.1584632002  TIP3      15519           0.0000000000
     68809     15711  TIP3      H2             26.3904187425        9.1961377273      -47.2159434982  TIP3      15519           0.0000000000
     68810     15712  TIP3      OH2            27.8200151639        9.2546028128      -60.4822459553  TIP3      15520           0.0000000000
     68811     15712  TIP3      H1             27.6730711109        9.1639300511      -61.4463159085  TIP3      15520           0.0000000000
     68812     15712  TIP3      H2             28.7975378625        9.3058483012      -60.4153284154  TIP3      15520           0.0000000000
     68813     15713  TIP3      OH2            31.0739337185       11.3619530737      -43.0662950653  TIP3      15521           0.0000000000
     68814     15713  TIP3      H1             32.0336995572       11.4427543098      -43.1837465159  TIP3      15521           0.0000000000
     68815     15713  TIP3      H2             31.0131148158       10.6448429795      -42.4353830749  TIP3      15521           0.0000000000
     68816     15714  TIP3      OH2            26.4765240148        6.2347213661      -45.3385886487  TIP3      15522           0.0000000000
     68817     15714  TIP3      H1             26.5175885188        5.5021233693      -45.9886968756  TIP3      15522           0.0000000000
     68818     15714  TIP3      H2             26.3574894511        7.0215739461      -45.9087828385  TIP3      15522           0.0000000000
     68819     15715  TIP3      OH2            26.8375759004        4.5991224256      -47.8019331704  TIP3      15523           0.0000000000
     68820     15715  TIP3      H1             27.3337032386        5.0680189780      -48.5027683017  TIP3      15523           0.0000000000
     68821     15715  TIP3      H2             25.9397418523        4.5085909181      -48.2075076879  TIP3      15523           0.0000000000
     68822     15716  TIP3      OH2            28.3930445655       10.1151246245      -47.4925339194  TIP3      15524           0.0000000000
     68823     15716  TIP3      H1             29.1139357580        9.9292611377      -48.1035396290  TIP3      15524           0.0000000000
     68824     15716  TIP3      H2             27.9947564752       10.9136215614      -47.8855915794  TIP3      15524           0.0000000000
     68825     15717  TIP3      OH2            32.7938612870        7.8772009724      -42.5783458714  TIP3      15525           0.0000000000
     68826     15717  TIP3      H1             33.0397349465        6.9384173776      -42.6570235054  TIP3      15525           0.0000000000
     68827     15717  TIP3      H2             33.6813527813        8.2787298865      -42.6127076893  TIP3      15525           0.0000000000
     68828     15718  TIP3      OH2            34.0998214699       10.6719934756      -44.4070659086  TIP3      15526           0.0000000000
     68829     15718  TIP3      H1             33.8361497478       11.3668176693      -45.0525725807  TIP3      15526           0.0000000000
     68830     15718  TIP3      H2             35.0356494933       10.5581409921      -44.6075635601  TIP3      15526           0.0000000000
     68831     15719  TIP3      OH2            24.9055846120        7.4589935559      -43.4201200273  TIP3      15527           0.0000000000
     68832     15719  TIP3      H1             24.1131973984        6.9038731419      -43.5766501756  TIP3      15527           0.0000000000
     68833     15719  TIP3      H2             25.5274807213        7.0682086317      -44.0577707681  TIP3      15527           0.0000000000
     68834     15720  TIP3      OH2            27.6135823460        2.0304322754      -47.4015648278  TIP3      15528           0.0000000000
     68835     15720  TIP3      H1             27.4409187185        2.9967427057      -47.4868209330  TIP3      15528           0.0000000000
     68836     15720  TIP3      H2             26.8674231341        1.6768871953      -47.9212959411  TIP3      15528           0.0000000000
     68837     15721  TIP3      OH2            28.8211453652        6.5011358108      -43.7154895245  TIP3      15529           0.0000000000
     68838     15721  TIP3      H1             28.5737445762        6.0375001093      -42.8849199124  TIP3      15529           0.0000000000
     68839     15721  TIP3      H2             28.1302891048        6.1340933651      -44.3170064609  TIP3      15529           0.0000000000
     68840     15722  TIP3      OH2            31.5636294139        5.5701388386      -44.6342975807  TIP3      15530           0.0000000000
     68841     15722  TIP3      H1             30.6030945173        5.5082599002      -44.5677176696  TIP3      15530           0.0000000000
     68842     15722  TIP3      H2             31.8950496811        4.8771446932      -44.0300989029  TIP3      15530           0.0000000000
     68843     15723  TIP3      OH2            33.2816537242        4.0987964262      -42.7419624971  TIP3      15531           0.0000000000
     68844     15723  TIP3      H1             33.1298392333        3.1300005815      -42.7463536431  TIP3      15531           0.0000000000
     68845     15723  TIP3      H2             32.9268516453        4.4125495023      -41.8868099958  TIP3      15531           0.0000000000
     68846     15724  TIP3      OH2            22.9639594059        5.4104195165      -43.6581086675  TIP3      15532           0.0000000000
     68847     15724  TIP3      H1             23.2107674529        4.6734211742      -44.2448085208  TIP3      15532           0.0000000000
     68848     15724  TIP3      H2             22.8731547654        4.9596237116      -42.7961508447  TIP3      15532           0.0000000000
     68849     15725  TIP3      OH2            27.8316557673        1.4295431746      -44.6938531694  TIP3      15533           0.0000000000
     68850     15725  TIP3      H1             28.5094629017        0.7232303456      -44.7125058547  TIP3      15533           0.0000000000
     68851     15725  TIP3      H2             27.7131493356        1.5703128245      -45.6542275674  TIP3      15533           0.0000000000
     68852     15726  TIP3      OH2            28.2138707140        3.0615607947      -42.6006015528  TIP3      15534           0.0000000000
     68853     15726  TIP3      H1             28.0202138464        2.5341817352      -43.4137842058  TIP3      15534           0.0000000000
     68854     15726  TIP3      H2             27.5715045954        3.7880884710      -42.6771066402  TIP3      15534           0.0000000000
     68855     15727  TIP3      OH2            27.6615763700       19.9542967911      -59.4062229979  TIP3      15535           0.0000000000
     68856     15727  TIP3      H1             28.6283349985       20.0412123813      -59.3371497018  TIP3      15535           0.0000000000
     68857     15727  TIP3      H2             27.5103805185       20.5575715873      -60.1432435195  TIP3      15535           0.0000000000
     68858     15728  TIP3      OH2            21.2100002481       14.5277013388      -59.9351456908  TIP3      15536           0.0000000000
     68859     15728  TIP3      H1             22.1774226863       14.6217602357      -59.7561535873  TIP3      15536           0.0000000000
     68860     15728  TIP3      H2             21.2599875076       13.8844258879      -60.6819206339  TIP3      15536           0.0000000000
     68861     15729  TIP3      OH2            20.0593867374       19.9254500637      -55.0053966241  TIP3      15537           0.0000000000
     68862     15729  TIP3      H1             19.2880189711       19.4513785084      -55.4178838870  TIP3      15537           0.0000000000
     68863     15729  TIP3      H2             20.2571038806       19.2716324488      -54.2999765354  TIP3      15537           0.0000000000
     68864     15730  TIP3      OH2            20.8037327987       18.0565605833      -53.0921316947  TIP3      15538           0.0000000000
     68865     15730  TIP3      H1             20.4559309908       17.1711274904      -52.8761836110  TIP3      15538           0.0000000000
     68866     15730  TIP3      H2             21.0441895008       18.3661208166      -52.2016933413  TIP3      15538           0.0000000000
     68867     15731  TIP3      OH2            36.2811654524       16.1060141707      -47.9151506677  TIP3      15539           0.0000000000
     68868     15731  TIP3      H1             35.6200666244       16.5393108470      -47.3569766351  TIP3      15539           0.0000000000
     68869     15731  TIP3      H2             35.7539480952       15.7405382133      -48.6491671152  TIP3      15539           0.0000000000
     68870     15732  TIP3      OH2            35.3554504754        9.1051511594      -54.5609068457  TIP3      15540           0.0000000000
     68871     15732  TIP3      H1             35.6257853068        8.1837967425      -54.5329124736  TIP3      15540           0.0000000000
     68872     15732  TIP3      H2             35.4858309137        9.3607994260      -53.6238909275  TIP3      15540           0.0000000000
     68873     15733  TIP3      OH2            20.8821794696       11.0113994437      -50.6088627393  TIP3      15541           0.0000000000
     68874     15733  TIP3      H1             21.0609189695       11.0512726593      -51.5720281035  TIP3      15541           0.0000000000
     68875     15733  TIP3      H2             21.7858776702       10.9609972469      -50.2479018361  TIP3      15541           0.0000000000
     68876     15734  TIP3      OH2            35.9487308851        5.0534603524      -61.1936776523  TIP3      15542           0.0000000000
     68877     15734  TIP3      H1             36.5366544628        4.6362447540      -60.5631131050  TIP3      15542           0.0000000000
     68878     15734  TIP3      H2             35.0870991573        4.6455636475      -61.0023216433  TIP3      15542           0.0000000000
     68879     15735  TIP3      OH2            35.5017949837        6.5589602597      -56.3635018584  TIP3      15543           0.0000000000
     68880     15735  TIP3      H1             35.7892676450        5.7193675643      -55.9609431800  TIP3      15543           0.0000000000
     68881     15735  TIP3      H2             36.3512655881        6.9097374894      -56.6576877491  TIP3      15543           0.0000000000
     68882     15736  TIP3      OH2           -37.0811714315        6.3462388345      -50.7626987539  TIP3      15544           0.0000000000
     68883     15736  TIP3      H1            -36.1833914686        6.6741341190      -50.9054559935  TIP3      15544           0.0000000000
     68884     15736  TIP3      H2            -37.2620150361        6.9832562492      -50.0510797918  TIP3      15544           0.0000000000
     68885     15737  TIP3      OH2            36.2545030376        7.9466864238      -47.7225402226  TIP3      15545           0.0000000000
     68886     15737  TIP3      H1             35.3173067958        8.2130154212      -47.6284921374  TIP3      15545           0.0000000000
     68887     15737  TIP3      H2             36.6170241225        8.6339403186      -48.3126270023  TIP3      15545           0.0000000000
     68888     15738  TIP3      OH2            20.4841799840        6.4169344319      -44.4470721177  TIP3      15546           0.0000000000
     68889     15738  TIP3      H1             21.4316370297        6.2361746272      -44.2621992872  TIP3      15546           0.0000000000
     68890     15738  TIP3      H2             20.0583848218        5.5912721227      -44.1548916835  TIP3      15546           0.0000000000
     68891     15739  TIP3      OH2            35.3145342114        3.6131016590      -55.5035125143  TIP3      15547           0.0000000000
     68892     15739  TIP3      H1             36.2444899682        3.4292296687      -55.2835136165  TIP3      15547           0.0000000000
     68893     15739  TIP3      H2             35.3264217111        3.1846404126      -56.3865382347  TIP3      15547           0.0000000000
     68894     15740  TIP3      OH2            21.6666899537        4.7481273337      -51.5746067444  TIP3      15548           0.0000000000
     68895     15740  TIP3      H1             22.1366632057        3.8961932828      -51.3743633279  TIP3      15548           0.0000000000
     68896     15740  TIP3      H2             22.2668060846        5.4077316270      -51.2124127063  TIP3      15548           0.0000000000
     68897     15741  TIP3      OH2            19.9683835100        7.7217646946      -50.5542940273  TIP3      15549           0.0000000000
     68898     15741  TIP3      H1             20.5364001326        7.4716737008      -51.3147428533  TIP3      15549           0.0000000000
     68899     15741  TIP3      H2             20.4279467527        8.5384032622      -50.2942180298  TIP3      15549           0.0000000000
     68900     15742  TIP3      OH2            20.3423058842        3.9948838790      -56.4774242034  TIP3      15550           0.0000000000
     68901     15742  TIP3      H1             19.4000663516        4.1550456822      -56.6416980142  TIP3      15550           0.0000000000
     68902     15742  TIP3      H2             20.7617534671        4.4708316010      -57.2125184007  TIP3      15550           0.0000000000
     68903     15743  TIP3      OH2            34.8891830099       18.7465574949      -54.4409151924  TIP3      15551           0.0000000000
     68904     15743  TIP3      H1             35.5637112598       18.4203834179      -55.0534471401  TIP3      15551           0.0000000000
     68905     15743  TIP3      H2             35.4125624125       19.3293734328      -53.8648663546  TIP3      15551           0.0000000000
     68906     15744  TIP3      OH2            20.2908268933        2.6319925476      -48.1970734142  TIP3      15552           0.0000000000
     68907     15744  TIP3      H1             19.6293191879        2.4295183778      -47.5202228760  TIP3      15552           0.0000000000
     68908     15744  TIP3      H2             19.8306801783        3.3081237553      -48.7330267873  TIP3      15552           0.0000000000
     68909     15745  TIP3      OH2            22.5308628368       15.8403497341      -44.0344999699  TIP3      15553           0.0000000000
     68910     15745  TIP3      H1             21.6874335807       16.0518666372      -44.4684498935  TIP3      15553           0.0000000000
     68911     15745  TIP3      H2             22.2607632150       15.7530171256      -43.1143803505  TIP3      15553           0.0000000000
     68912     15746  TIP3      OH2            25.4287575412       16.8385311728      -47.7490510166  TIP3      15554           0.0000000000
     68913     15746  TIP3      H1             25.0989705204       17.7069868709      -48.0240889080  TIP3      15554           0.0000000000
     68914     15746  TIP3      H2             26.3536873913       16.9227920957      -48.0555254673  TIP3      15554           0.0000000000
     68915     15747  TIP3      OH2            29.7492123623       18.2606315867      -44.8497718848  TIP3      15555           0.0000000000
     68916     15747  TIP3      H1             29.8862551094       17.9091409156      -43.9390547967  TIP3      15555           0.0000000000
     68917     15747  TIP3      H2             30.6504253699       18.5691266962      -45.0925981280  TIP3      15555           0.0000000000
     68918     15748  TIP3      OH2            32.0563178503       19.5269282342      -45.5295238197  TIP3      15556           0.0000000000
     68919     15748  TIP3      H1             32.7982942536       18.9538363483      -45.7691854102  TIP3      15556           0.0000000000
     68920     15748  TIP3      H2             32.4370525478       19.9793795107      -44.7459883275  TIP3      15556           0.0000000000
     68921     15749  TIP3      OH2            22.8505088341       20.0745916854      -47.7598786348  TIP3      15557           0.0000000000
     68922     15749  TIP3      H1             22.1220872027       20.5745463030      -48.1586211377  TIP3      15557           0.0000000000
     68923     15749  TIP3      H2             22.5397329803       19.8869305594      -46.8624888777  TIP3      15557           0.0000000000
     68924     15750  TIP3      OH2            25.3136730339       19.6460781588      -48.6949362882  TIP3      15558           0.0000000000
     68925     15750  TIP3      H1             24.4269415630       19.8019542133      -48.2919338142  TIP3      15558           0.0000000000
     68926     15750  TIP3      H2             25.2615572738       20.2449671624      -49.4610926433  TIP3      15558           0.0000000000
     68927     15751  TIP3      OH2            29.9893560130       19.5478542344      -49.5067364764  TIP3      15559           0.0000000000
     68928     15751  TIP3      H1             29.5587717538       20.1203839301      -50.1629619964  TIP3      15559           0.0000000000
     68929     15751  TIP3      H2             30.1578974221       20.1872326112      -48.7809155916  TIP3      15559           0.0000000000
     68930     15752  TIP3      OH2            32.3102896010       18.3663173409      -48.4883504998  TIP3      15560           0.0000000000
     68931     15752  TIP3      H1             31.4544007654       18.6422612276      -48.8528634111  TIP3      15560           0.0000000000
     68932     15752  TIP3      H2             32.7718390746       19.2232994634      -48.5537565502  TIP3      15560           0.0000000000
     68933     15753  TIP3      OH2            34.7598958783       19.9414162301      -48.2737550904  TIP3      15561           0.0000000000
     68934     15753  TIP3      H1             34.7563644787       20.8915255972      -48.4883091845  TIP3      15561           0.0000000000
     68935     15753  TIP3      H2             35.1033869934       19.5709017822      -49.1071936592  TIP3      15561           0.0000000000
     68936     15754  TIP3      OH2            22.3171248130       18.7276394704      -50.8144579946  TIP3      15562           0.0000000000
     68937     15754  TIP3      H1             22.2239964627       18.2688960738      -49.9513337814  TIP3      15562           0.0000000000
     68938     15754  TIP3      H2             23.1282441376       18.3392054832      -51.1993355418  TIP3      15562           0.0000000000
     68939     15755  TIP3      OH2            24.3895410310       17.4294635804      -52.1661089824  TIP3      15563           0.0000000000
     68940     15755  TIP3      H1             24.2091983029       16.4995085646      -51.9202549439  TIP3      15563           0.0000000000
     68941     15755  TIP3      H2             25.2406455844       17.5871379538      -51.7058960032  TIP3      15563           0.0000000000
     68942     15756  TIP3      OH2            27.0002588092       17.9137004273      -51.2754637476  TIP3      15564           0.0000000000
     68943     15756  TIP3      H1             27.1471424503       16.9891007523      -51.5406987761  TIP3      15564           0.0000000000
     68944     15756  TIP3      H2             27.0395723878       17.8582921345      -50.3100988984  TIP3      15564           0.0000000000
     68945     15757  TIP3      OH2            30.4366100284        3.5023482357      -52.1502681918  TIP3      15565           0.0000000000
     68946     15757  TIP3      H1             29.7520541360        2.8498296566      -51.8723248706  TIP3      15565           0.0000000000
     68947     15757  TIP3      H2             30.9836985141        2.9463814070      -52.7341983540  TIP3      15565           0.0000000000
     68948     15758  TIP3      OH2            35.5958745589        1.6024878381      -52.0687283009  TIP3      15566           0.0000000000
     68949     15758  TIP3      H1             36.1714568729        2.2311496237      -52.5132522193  TIP3      15566           0.0000000000
     68950     15758  TIP3      H2             34.7073946512        1.9550755729      -52.2842424580  TIP3      15566           0.0000000000
     68951     15759  TIP3      OH2            22.7139818976        2.2408768748      -54.3497714165  TIP3      15567           0.0000000000
     68952     15759  TIP3      H1             21.9646502629        1.9337141966      -54.8674407497  TIP3      15567           0.0000000000
     68953     15759  TIP3      H2             23.3002891483        1.4473475773      -54.3052283992  TIP3      15567           0.0000000000
     68954     15760  TIP3      OH2            21.5818972990        1.9476424346      -58.5756551355  TIP3      15568           0.0000000000
     68955     15760  TIP3      H1             22.0754419769        2.5976454477      -59.1094599433  TIP3      15568           0.0000000000
     68956     15760  TIP3      H2             21.0166456915        2.5220286069      -58.0370372100  TIP3      15568           0.0000000000
     68957     15761  TIP3      OH2            27.5529436113        2.1096722860      -54.6829104677  TIP3      15569           0.0000000000
     68958     15761  TIP3      H1             28.3782363482        2.5429238085      -54.5247887410  TIP3      15569           0.0000000000
     68959     15761  TIP3      H2             27.1589703282        1.9327934222      -53.7913908059  TIP3      15569           0.0000000000
     68960     15762  TIP3      OH2            32.9740511645        2.1223281139      -52.8857598336  TIP3      15570           0.0000000000
     68961     15762  TIP3      H1             32.9883613926        2.2507063117      -53.8433998850  TIP3      15570           0.0000000000
     68962     15762  TIP3      H2             32.6045714501        1.2083030554      -52.7721280779  TIP3      15570           0.0000000000
     68963     15763  TIP3      OH2            34.2320915513        2.0815098337      -57.3203131627  TIP3      15571           0.0000000000
     68964     15763  TIP3      H1             33.5357988764        2.7493934031      -57.3698451122  TIP3      15571           0.0000000000
     68965     15763  TIP3      H2             33.7642145862        1.2856345568      -56.9942088568  TIP3      15571           0.0000000000
     68966     15764  TIP3      OH2            21.5040426090       17.9052579448      -57.5442139267  TIP3      15572           0.0000000000
     68967     15764  TIP3      H1             20.8438915246       17.8561898730      -58.2645249219  TIP3      15572           0.0000000000
     68968     15764  TIP3      H2             21.4720006299       18.8537211926      -57.3885957604  TIP3      15572           0.0000000000
     68969     15765  TIP3      OH2            23.4117398720        3.8965837889      -60.0728172737  TIP3      15573           0.0000000000
     68970     15765  TIP3      H1             23.9399690258        3.2727596468      -60.5960344901  TIP3      15573           0.0000000000
     68971     15765  TIP3      H2             24.0747990396        4.2126456984      -59.4297757496  TIP3      15573           0.0000000000
     68972     15766  TIP3      OH2            28.4375243044        4.1258192853      -57.6622639065  TIP3      15574           0.0000000000
     68973     15766  TIP3      H1             28.6613579789        3.5440078134      -56.9145592680  TIP3      15574           0.0000000000
     68974     15766  TIP3      H2             28.5040803505        4.9970610499      -57.2142449592  TIP3      15574           0.0000000000
     68975     15767  TIP3      OH2            30.3625854494       19.2041599481      -59.2138142608  TIP3      15575           0.0000000000
     68976     15767  TIP3      H1             31.2819669454       19.4365957215      -59.4318702538  TIP3      15575           0.0000000000
     68977     15767  TIP3      H2             30.1494917741       18.6866208067      -60.0171051084  TIP3      15575           0.0000000000
     68978     15768  TIP3      OH2            22.6983575469        2.7371004746      -44.8426920323  TIP3      15576           0.0000000000
     68979     15768  TIP3      H1             22.3057302038        1.9362246942      -44.4421619235  TIP3      15576           0.0000000000
     68980     15768  TIP3      H2             23.6083049726        2.6937102374      -44.4644317328  TIP3      15576           0.0000000000
     68981     15769  TIP3      OH2            24.7164553709        2.1325379136      -43.1983870605  TIP3      15577           0.0000000000
     68982     15769  TIP3      H1             25.6025003371        1.7820112523      -43.4233522713  TIP3      15577           0.0000000000
     68983     15769  TIP3      H2             24.3344234641        1.3223314081      -42.8032106348  TIP3      15577           0.0000000000
     68984     15770  TIP3      OH2            23.2921775107       18.9007109322      -60.5979704220  TIP3      15578           0.0000000000
     68985     15770  TIP3      H1             23.0416413172       19.1321784064      -59.6981128180  TIP3      15578           0.0000000000
     68986     15770  TIP3      H2             24.0701812717       18.3189768038      -60.4645377863  TIP3      15578           0.0000000000
     68987     15771  TIP3      OH2            33.1033128296        1.4251824881      -43.0736297207  TIP3      15579           0.0000000000
     68988     15771  TIP3      H1             33.1924794124        0.9561060857      -42.2187748519  TIP3      15579           0.0000000000
     68989     15771  TIP3      H2             34.0269060323        1.4100508379      -43.4121953731  TIP3      15579           0.0000000000
     68990     15772  TIP3      OH2            36.0977406888       17.3376882999      -44.2823729774  TIP3      15580           0.0000000000
     68991     15772  TIP3      H1             35.4525194960       17.2799947297      -45.0184238237  TIP3      15580           0.0000000000
     68992     15772  TIP3      H2             36.1228117648       18.3201182690      -44.1984932328  TIP3      15580           0.0000000000
     68993     15773  TIP3      OH2           -24.6687063407       30.1649060768      -54.4538026470  TIP3      15581           0.0000000000
     68994     15773  TIP3      H1            -24.6850819234       31.1502617710      -54.4610185647  TIP3      15581           0.0000000000
     68995     15773  TIP3      H2            -25.4023342076       29.9483458433      -55.0484966090  TIP3      15581           0.0000000000
     68996     15774  TIP3      OH2           -25.8130477318       29.4413958185      -50.9394445448  TIP3      15582           0.0000000000
     68997     15774  TIP3      H1            -25.8232527780       28.7952629885      -50.2211653858  TIP3      15582           0.0000000000
     68998     15774  TIP3      H2            -26.1601058907       28.9335239135      -51.6916485721  TIP3      15582           0.0000000000
     68999     15775  TIP3      OH2           -33.4052345449       29.1096726535      -49.4216197322  TIP3      15583           0.0000000000
     69000     15775  TIP3      H1            -33.3470809910       28.4361668685      -48.7097392335  TIP3      15583           0.0000000000
     69001     15775  TIP3      H2            -32.7037507637       29.7153354417      -49.1450530170  TIP3      15583           0.0000000000
     69002     15776  TIP3      OH2           -22.1268361099       32.3799953618      -52.6442832866  TIP3      15584           0.0000000000
     69003     15776  TIP3      H1            -22.5451956982       31.6671254439      -52.1539747202  TIP3      15584           0.0000000000
     69004     15776  TIP3      H2            -22.0855146842       33.0990977934      -51.9882124601  TIP3      15584           0.0000000000
     69005     15777  TIP3      OH2           -32.5237157702       33.5605661828      -50.8370789730  TIP3      15585           0.0000000000
     69006     15777  TIP3      H1            -32.8616929940       32.7207660141      -51.2047539690  TIP3      15585           0.0000000000
     69007     15777  TIP3      H2            -31.5684898873       33.3798379602      -50.8595988365  TIP3      15585           0.0000000000
     69008     15778  TIP3      OH2           -35.6216944071       27.1213413145      -55.8130582652  TIP3      15586           0.0000000000
     69009     15778  TIP3      H1            -36.0667045012       27.9172679969      -55.4365473586  TIP3      15586           0.0000000000
     69010     15778  TIP3      H2            -36.4135138853       26.5881649975      -55.8139228656  TIP3      15586           0.0000000000
     69011     15779  TIP3      OH2           -35.2106279593       29.2783198420      -53.2926910255  TIP3      15587           0.0000000000
     69012     15779  TIP3      H1            -34.9126180439       28.5196011221      -52.7699492658  TIP3      15587           0.0000000000
     69013     15779  TIP3      H2            -34.4771852849       29.4550949080      -53.8965970885  TIP3      15587           0.0000000000
     69014     15780  TIP3      OH2           -27.4510999244       31.8194254895      -50.4569834670  TIP3      15588           0.0000000000
     69015     15780  TIP3      H1            -27.0995453724       31.2146224912      -51.1266893111  TIP3      15588           0.0000000000
     69016     15780  TIP3      H2            -26.6372635910       32.0202252483      -49.9624041867  TIP3      15588           0.0000000000
     69017     15781  TIP3      OH2           -18.8423235156       23.5093222968      -49.7446522194  TIP3      15589           0.0000000000
     69018     15781  TIP3      H1            -18.6625820873       24.0934134078      -48.9765214091  TIP3      15589           0.0000000000
     69019     15781  TIP3      H2            -18.2707717103       23.9274297764      -50.4044499507  TIP3      15589           0.0000000000
     69020     15782  TIP3      OH2           -24.2677946915       26.3141096585      -50.1529941887  TIP3      15590           0.0000000000
     69021     15782  TIP3      H1            -24.1005233416       25.3552419329      -50.1476503683  TIP3      15590           0.0000000000
     69022     15782  TIP3      H2            -24.3711902332       26.4540328269      -51.1139892390  TIP3      15590           0.0000000000
     69023     15783  TIP3      OH2           -31.1523084180       24.4046607242      -52.9305257234  TIP3      15591           0.0000000000
     69024     15783  TIP3      H1            -31.0372517960       25.2325635266      -53.4318025004  TIP3      15591           0.0000000000
     69025     15783  TIP3      H2            -31.5345332605       23.8273934549      -53.6259871570  TIP3      15591           0.0000000000
     69026     15784  TIP3      OH2           -23.4188232761       24.4779324293      -54.5658490029  TIP3      15592           0.0000000000
     69027     15784  TIP3      H1            -22.7668464715       24.1659218171      -53.8964707930  TIP3      15592           0.0000000000
     69028     15784  TIP3      H2            -22.8556377655       25.0597140954      -55.0968802108  TIP3      15592           0.0000000000
     69029     15785  TIP3      OH2           -34.5636077353       26.7277255645      -52.2612566692  TIP3      15593           0.0000000000
     69030     15785  TIP3      H1            -33.8354478841       26.2617989666      -51.7984368292  TIP3      15593           0.0000000000
     69031     15785  TIP3      H2            -34.3819795375       26.4520752856      -53.1694283280  TIP3      15593           0.0000000000
     69032     15786  TIP3      OH2           -29.3778804604       28.3681264164      -52.8837696769  TIP3      15594           0.0000000000
     69033     15786  TIP3      H1            -28.7014850860       27.7888830735      -52.4896757561  TIP3      15594           0.0000000000
     69034     15786  TIP3      H2            -29.8879736978       27.7112369760      -53.3956361266  TIP3      15594           0.0000000000
     69035     15787  TIP3      OH2           -18.3979962936       24.9089496906      -47.4646610112  TIP3      15595           0.0000000000
     69036     15787  TIP3      H1            -19.0039743078       25.6767456995      -47.5775775195  TIP3      15595           0.0000000000
     69037     15787  TIP3      H2            -18.3649233094       24.8297459274      -46.5038307266  TIP3      15595           0.0000000000
     69038     15788  TIP3      OH2           -32.2043886473       23.3041149270      -48.9024082195  TIP3      15596           0.0000000000
     69039     15788  TIP3      H1            -32.5141143653       23.8720515568      -49.6390052010  TIP3      15596           0.0000000000
     69040     15788  TIP3      H2            -32.8892863497       23.5249813762      -48.2218203664  TIP3      15596           0.0000000000
     69041     15789  TIP3      OH2           -24.9746826298       32.7562195719      -55.3482248895  TIP3      15597           0.0000000000
     69042     15789  TIP3      H1            -25.2087087136       32.5209153467      -56.2550387946  TIP3      15597           0.0000000000
     69043     15789  TIP3      H2            -25.2607900330       33.6899833047      -55.2855461386  TIP3      15597           0.0000000000
     69044     15790  TIP3      OH2           -29.7102459548       30.9248337175      -48.6470800920  TIP3      15598           0.0000000000
     69045     15790  TIP3      H1            -30.4265122545       31.5632280806      -48.4352060690  TIP3      15598           0.0000000000
     69046     15790  TIP3      H2            -29.0147817185       31.5267831386      -48.9504544966  TIP3      15598           0.0000000000
     69047     15791  TIP3      OH2           -21.6041545249       23.8306673937      -52.5751319795  TIP3      15599           0.0000000000
     69048     15791  TIP3      H1            -21.8257807154       23.0612073974      -52.0429497365  TIP3      15599           0.0000000000
     69049     15791  TIP3      H2            -20.9341483411       24.2654350004      -52.0206299487  TIP3      15599           0.0000000000
     69050     15792  TIP3      OH2           -32.6995903355       25.1395596241      -50.8636990581  TIP3      15600           0.0000000000
     69051     15792  TIP3      H1            -32.0812064517       25.8369783112      -50.5397625153  TIP3      15600           0.0000000000
     69052     15792  TIP3      H2            -32.1530320910       24.7526604387      -51.5982060831  TIP3      15600           0.0000000000
     69053     15793  TIP3      OH2           -31.2772558198       32.9333952334      -47.8686102685  TIP3      15601           0.0000000000
     69054     15793  TIP3      H1            -31.3392455977       33.8440800487      -48.2003473987  TIP3      15601           0.0000000000
     69055     15793  TIP3      H2            -32.1620825969       32.8472048360      -47.4344939796  TIP3      15601           0.0000000000
     69056     15794  TIP3      OH2           -35.2304224802       32.6234534895      -57.0773171475  TIP3      15602           0.0000000000
     69057     15794  TIP3      H1            -35.4558679394       32.9531681976      -57.9611968309  TIP3      15602           0.0000000000
     69058     15794  TIP3      H2            -35.1221423314       33.4363314226      -56.5487630182  TIP3      15602           0.0000000000
     69059     15795  TIP3      OH2           -21.5878021681       34.2526724277      -50.2363188759  TIP3      15603           0.0000000000
     69060     15795  TIP3      H1            -22.5693680857       34.3326333421      -50.1465855941  TIP3      15603           0.0000000000
     69061     15795  TIP3      H2            -21.3060982498       35.1437722201      -50.5069811595  TIP3      15603           0.0000000000
     69062     15796  TIP3      OH2           -21.2734229571       22.5141433034      -48.8988991610  TIP3      15604           0.0000000000
     69063     15796  TIP3      H1            -21.9969005551       23.1480089368      -48.9907485089  TIP3      15604           0.0000000000
     69064     15796  TIP3      H2            -20.5589483143       22.9333513859      -49.4213202086  TIP3      15604           0.0000000000
     69065     15797  TIP3      OH2           -28.3049872589       20.6419127063      -51.4391658984  TIP3      15605           0.0000000000
     69066     15797  TIP3      H1            -28.4372240974       19.6773962486      -51.5088865307  TIP3      15605           0.0000000000
     69067     15797  TIP3      H2            -29.1844174502       20.9410323975      -51.1270577912  TIP3      15605           0.0000000000
     69068     15798  TIP3      OH2           -23.3033820547       35.7082567065      -53.8778236276  TIP3      15606           0.0000000000
     69069     15798  TIP3      H1            -22.7383580194       35.0953140567      -54.3863373573  TIP3      15606           0.0000000000
     69070     15798  TIP3      H2            -22.9048926141       36.5400418691      -54.1209957222  TIP3      15606           0.0000000000
     69071     15799  TIP3      OH2           -22.0851230232       33.8430372143      -55.1884780808  TIP3      15607           0.0000000000
     69072     15799  TIP3      H1            -22.4425305548       33.1836631419      -55.7897961450  TIP3      15607           0.0000000000
     69073     15799  TIP3      H2            -22.0902169344       33.3920262814      -54.3229355527  TIP3      15607           0.0000000000
     69074     15800  TIP3      OH2           -20.4989603147       32.5765419600      -46.6756281843  TIP3      15608           0.0000000000
     69075     15800  TIP3      H1            -20.3734384815       31.8981183042      -47.3760867326  TIP3      15608           0.0000000000
     69076     15800  TIP3      H2            -20.2762216011       33.3980520439      -47.1467308639  TIP3      15608           0.0000000000
     69077     15801  TIP3      OH2           -26.0085798737       29.4210751037      -56.9260312170  TIP3      15609           0.0000000000
     69078     15801  TIP3      H1            -26.7038253562       30.0006821844      -57.2830281715  TIP3      15609           0.0000000000
     69079     15801  TIP3      H2            -25.2993167022       29.5211331044      -57.5874660381  TIP3      15609           0.0000000000
     69080     15802  TIP3      OH2           -25.9289684655       27.9964278416      -59.9151351239  TIP3      15610           0.0000000000
     69081     15802  TIP3      H1            -25.2238558693       27.9771841123      -59.2503982690  TIP3      15610           0.0000000000
     69082     15802  TIP3      H2            -25.6228136491       27.2804510338      -60.4836520428  TIP3      15610           0.0000000000
     69083     15803  TIP3      OH2           -18.6198778605       28.8495352192      -48.6448451452  TIP3      15611           0.0000000000
     69084     15803  TIP3      H1            -19.2768255524       29.5731901262      -48.6047140340  TIP3      15611           0.0000000000
     69085     15803  TIP3      H2            -18.1245292491       29.0844760037      -49.4504361748  TIP3      15611           0.0000000000
     69086     15804  TIP3      OH2           -22.5515526985       29.6284915507      -56.0072008519  TIP3      15612           0.0000000000
     69087     15804  TIP3      H1            -23.3020102669       29.8756015039      -55.4101951341  TIP3      15612           0.0000000000
     69088     15804  TIP3      H2            -22.0843247303       28.9569705803      -55.4803083138  TIP3      15612           0.0000000000
     69089     15805  TIP3      OH2           -22.6318119910       27.8035285743      -46.8768084656  TIP3      15613           0.0000000000
     69090     15805  TIP3      H1            -22.6259980043       28.6224782827      -46.3556617064  TIP3      15613           0.0000000000
     69091     15805  TIP3      H2            -23.2618221081       28.0938842177      -47.5691026450  TIP3      15613           0.0000000000
     69092     15806  TIP3      OH2           -30.9290343072       30.3071397108      -54.0829161266  TIP3      15614           0.0000000000
     69093     15806  TIP3      H1            -31.2827234346       29.9044245250      -54.9132516100  TIP3      15614           0.0000000000
     69094     15806  TIP3      H2            -30.3276830545       29.6042415941      -53.7517456883  TIP3      15614           0.0000000000
     69095     15807  TIP3      OH2           -29.6239054709       33.6979085148      -51.4197247326  TIP3      15615           0.0000000000
     69096     15807  TIP3      H1            -29.6240275790       33.1530382987      -52.2144259834  TIP3      15615           0.0000000000
     69097     15807  TIP3      H2            -28.8574891863       33.3308656497      -50.9409465323  TIP3      15615           0.0000000000
     69098     15808  TIP3      OH2           -30.5919024684       29.0372985113      -50.4255116216  TIP3      15616           0.0000000000
     69099     15808  TIP3      H1            -30.0573408177       29.1498371906      -51.2328930489  TIP3      15616           0.0000000000
     69100     15808  TIP3      H2            -30.2321281506       29.7178599537      -49.8129112959  TIP3      15616           0.0000000000
     69101     15809  TIP3      OH2           -24.1735204863       34.6105006389      -49.6968070402  TIP3      15617           0.0000000000
     69102     15809  TIP3      H1            -24.5414293125       35.2417590438      -49.0835245994  TIP3      15617           0.0000000000
     69103     15809  TIP3      H2            -24.4715681983       33.7545441695      -49.3019009173  TIP3      15617           0.0000000000
     69104     15810  TIP3      OH2           -29.6720892548       33.4771255376      -45.7246750869  TIP3      15618           0.0000000000
     69105     15810  TIP3      H1            -30.1038728034       34.2236079121      -45.2502649335  TIP3      15618           0.0000000000
     69106     15810  TIP3      H2            -30.3329168366       33.2489389775      -46.4287934796  TIP3      15618           0.0000000000
     69107     15811  TIP3      OH2           -23.6871446211       28.8380985375      -58.3389133022  TIP3      15619           0.0000000000
     69108     15811  TIP3      H1            -23.1303609166       29.0070414320      -57.5387051172  TIP3      15619           0.0000000000
     69109     15811  TIP3      H2            -23.2340737888       29.3286373214      -59.0610708603  TIP3      15619           0.0000000000
     69110     15812  TIP3      OH2           -32.7327705395       29.6459252055      -46.5479309398  TIP3      15620           0.0000000000
     69111     15812  TIP3      H1            -32.6838189937       30.3289138132      -45.8570789452  TIP3      15620           0.0000000000
     69112     15812  TIP3      H2            -33.6721786768       29.7338439669      -46.7813625519  TIP3      15620           0.0000000000
     69113     15813  TIP3      OH2           -26.0166633353       35.5297738476      -54.8569599384  TIP3      15621           0.0000000000
     69114     15813  TIP3      H1            -25.5213370619       35.8508702308      -54.0956882589  TIP3      15621           0.0000000000
     69115     15813  TIP3      H2            -26.5250339344       36.3008157970      -55.1277998132  TIP3      15621           0.0000000000
     69116     15814  TIP3      OH2           -31.4435488093       35.4273612554      -45.0012480220  TIP3      15622           0.0000000000
     69117     15814  TIP3      H1            -31.5262117763       35.3982064581      -45.9757165709  TIP3      15622           0.0000000000
     69118     15814  TIP3      H2            -32.3824755447       35.3545253528      -44.7360632593  TIP3      15622           0.0000000000
     69119     15815  TIP3      OH2           -19.9606170192       20.5701782328      -58.4329484792  TIP3      15623           0.0000000000
     69120     15815  TIP3      H1            -20.9073265651       20.6855997907      -58.1935161280  TIP3      15623           0.0000000000
     69121     15815  TIP3      H2            -19.7579476086       21.4107333319      -58.8778507440  TIP3      15623           0.0000000000
     69122     15816  TIP3      OH2           -31.9680509350       29.3111145680      -56.4566611305  TIP3      15624           0.0000000000
     69123     15816  TIP3      H1            -32.2533588889       30.0928299326      -56.9728500602  TIP3      15624           0.0000000000
     69124     15816  TIP3      H2            -32.6220580070       28.6497758662      -56.6939321573  TIP3      15624           0.0000000000
     69125     15817  TIP3      OH2           -18.8026986096       34.8918855950      -60.0936275873  TIP3      15625           0.0000000000
     69126     15817  TIP3      H1            -18.7164329367       35.8509044722      -59.9373486142  TIP3      15625           0.0000000000
     69127     15817  TIP3      H2            -17.8696283798       34.6144098773      -60.0744784236  TIP3      15625           0.0000000000
     69128     15818  TIP3      OH2           -35.2932669873       31.6117635080      -47.8191539800  TIP3      15626           0.0000000000
     69129     15818  TIP3      H1            -36.0588912242       31.7354400864      -48.4201780396  TIP3      15626           0.0000000000
     69130     15818  TIP3      H2            -35.6701424571       30.8268382390      -47.3608369229  TIP3      15626           0.0000000000
     69131     15819  TIP3      OH2           -35.8368091058       34.6845509610      -51.0262118051  TIP3      15627           0.0000000000
     69132     15819  TIP3      H1            -34.9853888593       34.3509053891      -50.7541656585  TIP3      15627           0.0000000000
     69133     15819  TIP3      H2            -36.0705463980       35.2561521334      -50.2867264730  TIP3      15627           0.0000000000
     69134     15820  TIP3      OH2           -17.9141089399       35.1803344641      -45.0328044410  TIP3      15628           0.0000000000
     69135     15820  TIP3      H1            -18.0169262104       34.2242465269      -45.1579212635  TIP3      15628           0.0000000000
     69136     15820  TIP3      H2            -18.8029919939       35.4440352391      -44.7134924352  TIP3      15628           0.0000000000
     69137     15821  TIP3      OH2           -26.9521806902       34.7463264082      -46.2569115991  TIP3      15629           0.0000000000
     69138     15821  TIP3      H1            -26.8490129778       35.5538274903      -45.7429153755  TIP3      15629           0.0000000000
     69139     15821  TIP3      H2            -27.7937545639       34.3464496357      -45.9698330160  TIP3      15629           0.0000000000
     69140     15822  TIP3      OH2           -20.7449839978       26.6564180551      -44.6375339949  TIP3      15630           0.0000000000
     69141     15822  TIP3      H1            -21.2204917018       27.1064641796      -45.3543895298  TIP3      15630           0.0000000000
     69142     15822  TIP3      H2            -20.7564646399       25.7368712618      -44.9426173210  TIP3      15630           0.0000000000
     69143     15823  TIP3      OH2           -33.5616357823       33.1306022815      -46.5672013190  TIP3      15631           0.0000000000
     69144     15823  TIP3      H1            -33.4087731876       32.6888789960      -45.7102131637  TIP3      15631           0.0000000000
     69145     15823  TIP3      H2            -34.4012645878       32.7144551675      -46.8679774270  TIP3      15631           0.0000000000
     69146     15824  TIP3      OH2           -30.9166176279       21.5490934247      -50.6824852851  TIP3      15632           0.0000000000
     69147     15824  TIP3      H1            -31.8184588926       21.4253721991      -51.0539079305  TIP3      15632           0.0000000000
     69148     15824  TIP3      H2            -31.0569730834       22.3748293210      -50.1908354733  TIP3      15632           0.0000000000
     69149     15825  TIP3      OH2           -26.2788160494       21.2036609223      -47.3189286619  TIP3      15633           0.0000000000
     69150     15825  TIP3      H1            -25.8899552212       20.7923578583      -46.5231816125  TIP3      15633           0.0000000000
     69151     15825  TIP3      H2            -27.2512827223       21.0857163170      -47.1808872853  TIP3      15633           0.0000000000
     69152     15826  TIP3      OH2           -22.9843239875       25.0576218376      -46.4335083676  TIP3      15634           0.0000000000
     69153     15826  TIP3      H1            -23.5476593779       24.8390043524      -45.6492516196  TIP3      15634           0.0000000000
     69154     15826  TIP3      H2            -23.1764622082       25.9845105439      -46.6517872995  TIP3      15634           0.0000000000
     69155     15827  TIP3      OH2           -22.2287716005       29.8592929560      -60.5183017408  TIP3      15635           0.0000000000
     69156     15827  TIP3      H1            -22.2545119846       29.6793679674      -61.4856900321  TIP3      15635           0.0000000000
     69157     15827  TIP3      H2            -21.3774419880       30.3151806803      -60.4687219335  TIP3      15635           0.0000000000
     69158     15828  TIP3      OH2           -26.6402609871       23.7933616632      -60.0128332987  TIP3      15636           0.0000000000
     69159     15828  TIP3      H1            -26.9588456267       23.7315926751      -59.0940807604  TIP3      15636           0.0000000000
     69160     15828  TIP3      H2            -26.9482533654       22.9158777371      -60.3185340998  TIP3      15636           0.0000000000
     69161     15829  TIP3      OH2           -30.8376641322       26.5137297047      -49.4331566091  TIP3      15637           0.0000000000
     69162     15829  TIP3      H1            -31.5634509950       26.5126443750      -48.7787506099  TIP3      15637           0.0000000000
     69163     15829  TIP3      H2            -30.8568005669       27.4257328297      -49.7983289084  TIP3      15637           0.0000000000
     69164     15830  TIP3      OH2           -30.8409009608       26.6364764062      -54.5655334480  TIP3      15638           0.0000000000
     69165     15830  TIP3      H1            -31.7806010617       26.3889075571      -54.7048083436  TIP3      15638           0.0000000000
     69166     15830  TIP3      H2            -30.4678821178       26.3365849331      -55.4160303568  TIP3      15638           0.0000000000
     69167     15831  TIP3      OH2           -25.3446474331       27.1343123552      -55.7870568704  TIP3      15639           0.0000000000
     69168     15831  TIP3      H1            -25.7364468058       27.9572040173      -56.1570808440  TIP3      15639           0.0000000000
     69169     15831  TIP3      H2            -24.6558349228       26.9638961838      -56.4520613323  TIP3      15639           0.0000000000
     69170     15832  TIP3      OH2           -26.2946470550       27.3398190081      -44.3488615921  TIP3      15640           0.0000000000
     69171     15832  TIP3      H1            -26.8214291644       26.5626462661      -44.0412297029  TIP3      15640           0.0000000000
     69172     15832  TIP3      H2            -25.4615894546       27.2074573473      -43.8690490660  TIP3      15640           0.0000000000
     69173     15833  TIP3      OH2           -24.3067961853       26.6252052455      -52.9493071584  TIP3      15641           0.0000000000
     69174     15833  TIP3      H1            -24.5921160748       27.1870779117      -53.6891439277  TIP3      15641           0.0000000000
     69175     15833  TIP3      H2            -24.2130280024       25.7741824220      -53.4177472503  TIP3      15641           0.0000000000
     69176     15834  TIP3      OH2           -33.1784476380       26.7444467149      -47.7421106858  TIP3      15642           0.0000000000
     69177     15834  TIP3      H1            -33.1674442623       27.1696590295      -46.8701612985  TIP3      15642           0.0000000000
     69178     15834  TIP3      H2            -33.6761251633       25.9354289185      -47.5560956492  TIP3      15642           0.0000000000
     69179     15835  TIP3      OH2           -29.8281134397       24.1613881176      -60.8974660372  TIP3      15643           0.0000000000
     69180     15835  TIP3      H1            -30.2769469069       23.7388510730      -60.1378023458  TIP3      15643           0.0000000000
     69181     15835  TIP3      H2            -30.5414623565       24.5895432497      -61.3863849903  TIP3      15643           0.0000000000
     69182     15836  TIP3      OH2           -36.1627596182       24.1965403278      -53.9522061376  TIP3      15644           0.0000000000
     69183     15836  TIP3      H1            -35.8333595128       23.8473537363      -53.0962663925  TIP3      15644           0.0000000000
     69184     15836  TIP3      H2            -36.0311968026       23.4391747265      -54.5214690590  TIP3      15644           0.0000000000
     69185     15837  TIP3      OH2           -35.2888730902       24.7380011900      -58.4399633116  TIP3      15645           0.0000000000
     69186     15837  TIP3      H1            -34.7313077421       25.2944106529      -59.0230789411  TIP3      15645           0.0000000000
     69187     15837  TIP3      H2            -36.0159012943       25.2981964880      -58.1951802860  TIP3      15645           0.0000000000
     69188     15838  TIP3      OH2           -25.1105924453       28.2065189503      -48.3960439853  TIP3      15646           0.0000000000
     69189     15838  TIP3      H1            -24.7303200867       27.5193766272      -48.9799805532  TIP3      15646           0.0000000000
     69190     15838  TIP3      H2            -25.5790062496       27.6776661249      -47.7242182565  TIP3      15646           0.0000000000
     69191     15839  TIP3      OH2           -28.3079410806       24.1883238086      -53.5588983205  TIP3      15647           0.0000000000
     69192     15839  TIP3      H1            -29.2415226427       24.1878397427      -53.2652048299  TIP3      15647           0.0000000000
     69193     15839  TIP3      H2            -27.8258805139       24.0130759164      -52.7364186097  TIP3      15647           0.0000000000
     69194     15840  TIP3      OH2           -33.4853891421       25.7265101620      -54.6957816521  TIP3      15648           0.0000000000
     69195     15840  TIP3      H1            -34.3564789031       25.9032352872      -55.0939660775  TIP3      15648           0.0000000000
     69196     15840  TIP3      H2            -33.2481212634       24.8786192160      -55.1111066273  TIP3      15648           0.0000000000
     69197     15841  TIP3      OH2           -29.8575690431       25.7793595247      -57.0633582288  TIP3      15649           0.0000000000
     69198     15841  TIP3      H1            -28.9011077984       25.8950375982      -56.9064306210  TIP3      15649           0.0000000000
     69199     15841  TIP3      H2            -30.1090229445       26.4658334842      -57.7106950540  TIP3      15649           0.0000000000
     69200     15842  TIP3      OH2           -23.9037984772       23.4185055059      -50.3201892770  TIP3      15650           0.0000000000
     69201     15842  TIP3      H1            -24.5859975789       23.4675838863      -49.6142634501  TIP3      15650           0.0000000000
     69202     15842  TIP3      H2            -24.4123906900       23.1631131766      -51.1024528813  TIP3      15650           0.0000000000
     69203     15843  TIP3      OH2           -31.1363488350       26.9494903262      -59.4869778676  TIP3      15651           0.0000000000
     69204     15843  TIP3      H1            -31.6760015290       26.5867679397      -60.2075195772  TIP3      15651           0.0000000000
     69205     15843  TIP3      H2            -30.3157136629       27.1685064822      -59.9541743826  TIP3      15651           0.0000000000
     69206     15844  TIP3      OH2           -33.0471358408       31.5416141654      -44.4158731843  TIP3      15652           0.0000000000
     69207     15844  TIP3      H1            -32.3056721495       31.7621274632      -43.8190900632  TIP3      15652           0.0000000000
     69208     15844  TIP3      H2            -33.7962530834       31.6218807971      -43.8011637927  TIP3      15652           0.0000000000
     69209     15845  TIP3      OH2           -27.0337733361       26.9371733519      -51.6675204654  TIP3      15653           0.0000000000
     69210     15845  TIP3      H1            -26.4268153302       26.4087520059      -52.1991420437  TIP3      15653           0.0000000000
     69211     15845  TIP3      H2            -27.1709610338       26.3901602819      -50.8822395511  TIP3      15653           0.0000000000
     69212     15846  TIP3      OH2           -32.0263085826       23.0950543152      -55.2352679714  TIP3      15654           0.0000000000
     69213     15846  TIP3      H1            -32.3359660712       22.1732749852      -55.2354021944  TIP3      15654           0.0000000000
     69214     15846  TIP3      H2            -31.2280522350       23.0136163798      -55.7717822887  TIP3      15654           0.0000000000
     69215     15847  TIP3      OH2           -28.3882258401       25.2676242436      -49.2524044085  TIP3      15655           0.0000000000
     69216     15847  TIP3      H1            -29.2129272671       25.7862668791      -49.1633132671  TIP3      15655           0.0000000000
     69217     15847  TIP3      H2            -27.8305491390       25.6237019946      -48.5330258356  TIP3      15655           0.0000000000
     69218     15848  TIP3      OH2           -27.8051890666       31.4747748099      -57.5470476923  TIP3      15656           0.0000000000
     69219     15848  TIP3      H1            -28.6047477523       31.0127024625      -57.8830440962  TIP3      15656           0.0000000000
     69220     15848  TIP3      H2            -28.0242702626       31.6008287649      -56.6034446991  TIP3      15656           0.0000000000
     69221     15849  TIP3      OH2           -20.6068780836       30.6892933403      -48.7502207864  TIP3      15657           0.0000000000
     69222     15849  TIP3      H1            -20.0476704656       31.1878133771      -49.3757574556  TIP3      15657           0.0000000000
     69223     15849  TIP3      H2            -21.4683203856       30.7386367015      -49.2132812781  TIP3      15657           0.0000000000
     69224     15850  TIP3      OH2           -23.9694798734       24.3035568888      -59.3805919501  TIP3      15658           0.0000000000
     69225     15850  TIP3      H1            -24.9213093124       24.4576476496      -59.5144118801  TIP3      15658           0.0000000000
     69226     15850  TIP3      H2            -23.6294699374       25.1544948866      -59.0286237112  TIP3      15658           0.0000000000
     69227     15851  TIP3      OH2           -26.3326635307       31.7800471994      -46.3215154455  TIP3      15659           0.0000000000
     69228     15851  TIP3      H1            -26.6591744318       31.3400493993      -45.5290041349  TIP3      15659           0.0000000000
     69229     15851  TIP3      H2            -26.5542615664       32.7047855040      -46.1957940966  TIP3      15659           0.0000000000
     69230     15852  TIP3      OH2           -23.2316858304       26.2253606650      -57.7565703511  TIP3      15660           0.0000000000
     69231     15852  TIP3      H1            -22.3502051280       26.0911807043      -57.3463389652  TIP3      15660           0.0000000000
     69232     15852  TIP3      H2            -23.1275625362       27.0468430128      -58.2651522281  TIP3      15660           0.0000000000
     69233     15853  TIP3      OH2           -32.7027895645       30.8808410971      -51.7688037509  TIP3      15661           0.0000000000
     69234     15853  TIP3      H1            -32.0136943435       30.8141405234      -52.4516901241  TIP3      15661           0.0000000000
     69235     15853  TIP3      H2            -32.5974703017       30.0430596222      -51.2868401441  TIP3      15661           0.0000000000
     69236     15854  TIP3      OH2           -25.7121436471       32.9397949092      -58.5288046680  TIP3      15662           0.0000000000
     69237     15854  TIP3      H1            -26.0385600410       33.7985255406      -58.1930408487  TIP3      15662           0.0000000000
     69238     15854  TIP3      H2            -26.4451185332       32.3390140435      -58.2911512167  TIP3      15662           0.0000000000
     69239     15855  TIP3      OH2           -35.7306854048       29.2666576360      -46.4904756399  TIP3      15663           0.0000000000
     69240     15855  TIP3      H1            -35.4704534823       28.8272050047      -45.6580321686  TIP3      15663           0.0000000000
     69241     15855  TIP3      H2            -36.3182017963       28.6259918928      -46.9150148936  TIP3      15663           0.0000000000
     69242     15856  TIP3      OH2           -28.6892570006       28.8459574786      -44.3175997348  TIP3      15664           0.0000000000
     69243     15856  TIP3      H1            -29.0080101468       28.5340359634      -45.1765789432  TIP3      15664           0.0000000000
     69244     15856  TIP3      H2            -27.7633842077       28.5280202000      -44.3216160708  TIP3      15664           0.0000000000
     69245     15857  TIP3      OH2           -24.0144777635       34.2432449101      -46.4381377106  TIP3      15665           0.0000000000
     69246     15857  TIP3      H1            -24.9557605046       34.3152872585      -46.6129544177  TIP3      15665           0.0000000000
     69247     15857  TIP3      H2            -24.0375594693       34.4252176654      -45.4655879606  TIP3      15665           0.0000000000
     69248     15858  TIP3      OH2           -18.3044236099       26.3617876397      -57.9989296267  TIP3      15666           0.0000000000
     69249     15858  TIP3      H1            -18.9158901034       26.0796445058      -58.7050953530  TIP3      15666           0.0000000000
     69250     15858  TIP3      H2            -18.2663357138       27.3184363615      -58.2227616869  TIP3      15666           0.0000000000
     69251     15859  TIP3      OH2           -18.3242809303       32.2020763835      -45.1766346021  TIP3      15667           0.0000000000
     69252     15859  TIP3      H1            -19.2180504857       32.4460051589      -45.5224232914  TIP3      15667           0.0000000000
     69253     15859  TIP3      H2            -17.7952641259       32.1563670529      -45.9990842968  TIP3      15667           0.0000000000
     69254     15860  TIP3      OH2           -19.9020387352       34.9451846432      -57.3657598558  TIP3      15668           0.0000000000
     69255     15860  TIP3      H1            -20.4697867816       34.2016365722      -57.2398194893  TIP3      15668           0.0000000000
     69256     15860  TIP3      H2            -19.7959453128       35.0343942876      -58.3294527332  TIP3      15668           0.0000000000
     69257     15861  TIP3      OH2           -22.8335016405       30.0047988504      -50.4640984880  TIP3      15669           0.0000000000
     69258     15861  TIP3      H1            -23.7750384265       29.7973159077      -50.5783910605  TIP3      15669           0.0000000000
     69259     15861  TIP3      H2            -22.4018675308       29.2495175233      -50.9055209901  TIP3      15669           0.0000000000
     69260     15862  TIP3      OH2           -30.2880694468       34.3034400611      -54.4492532443  TIP3      15670           0.0000000000
     69261     15862  TIP3      H1            -29.8188611006       35.1425329788      -54.5362734501  TIP3      15670           0.0000000000
     69262     15862  TIP3      H2            -31.2021818981       34.5411179285      -54.6465413872  TIP3      15670           0.0000000000
     69263     15863  TIP3      OH2           -34.6015822167       29.1774280034      -59.7603404891  TIP3      15671           0.0000000000
     69264     15863  TIP3      H1            -33.9555652831       29.8272129768      -59.3966562348  TIP3      15671           0.0000000000
     69265     15863  TIP3      H2            -35.4530306109       29.5400568823      -59.4984889449  TIP3      15671           0.0000000000
     69266     15864  TIP3      OH2           -28.8775814333       31.9951909445      -54.8528044023  TIP3      15672           0.0000000000
     69267     15864  TIP3      H1            -29.1966990762       32.9147984041      -54.7624066183  TIP3      15672           0.0000000000
     69268     15864  TIP3      H2            -29.6108599978       31.5131802423      -54.4183517730  TIP3      15672           0.0000000000
     69269     15865  TIP3      OH2           -28.1405629515       35.8677286079      -48.7574493695  TIP3      15673           0.0000000000
     69270     15865  TIP3      H1            -27.9975112475       36.8199533833      -48.8282126061  TIP3      15673           0.0000000000
     69271     15865  TIP3      H2            -27.8324858029       35.7161170890      -47.8518399815  TIP3      15673           0.0000000000
     69272     15866  TIP3      OH2           -24.9235477062       32.1882965315      -48.8203727774  TIP3      15674           0.0000000000
     69273     15866  TIP3      H1            -25.2645841514       31.9694050579      -47.9304159696  TIP3      15674           0.0000000000
     69274     15866  TIP3      H2            -24.2893083398       31.4766745740      -48.9934768304  TIP3      15674           0.0000000000
     69275     15867  TIP3      OH2           -22.5819929091       33.2330283162      -59.7484935981  TIP3      15675           0.0000000000
     69276     15867  TIP3      H1            -22.2892953698       32.8014838116      -58.9199458901  TIP3      15675           0.0000000000
     69277     15867  TIP3      H2            -23.5390222738       33.0876152391      -59.6513792844  TIP3      15675           0.0000000000
     69278     15868  TIP3      OH2           -34.0470989275       24.0275997729      -46.9793674172  TIP3      15676           0.0000000000
     69279     15868  TIP3      H1            -34.9379441947       24.3958768584      -46.8999860744  TIP3      15676           0.0000000000
     69280     15868  TIP3      H2            -34.1520366003       23.1934537088      -46.4900395290  TIP3      15676           0.0000000000
     69281     15869  TIP3      OH2           -21.8173702765       31.8340223648      -57.5105251868  TIP3      15677           0.0000000000
     69282     15869  TIP3      H1            -22.0454958783       31.0839886830      -56.9256725519  TIP3      15677           0.0000000000
     69283     15869  TIP3      H2            -20.8740381412       31.9535279667      -57.3101377348  TIP3      15677           0.0000000000
     69284     15870  TIP3      OH2           -34.1888190166       35.8142592548      -48.5950802752  TIP3      15678           0.0000000000
     69285     15870  TIP3      H1            -34.1554989066       34.8630749357      -48.4950590459  TIP3      15678           0.0000000000
     69286     15870  TIP3      H2            -34.2553033722       36.1197383106      -47.6775211232  TIP3      15678           0.0000000000
     69287     15871  TIP3      OH2           -28.4506551934       34.3118543075      -61.2553242280  TIP3      15679           0.0000000000
     69288     15871  TIP3      H1            -28.3695541643       33.5389187008      -61.8327351198  TIP3      15679           0.0000000000
     69289     15871  TIP3      H2            -28.8878896482       33.8996414952      -60.4764600715  TIP3      15679           0.0000000000
     69290     15872  TIP3      OH2           -29.7089151503       33.8166479729      -58.7991522180  TIP3      15680           0.0000000000
     69291     15872  TIP3      H1            -29.4284930715       33.3282276893      -58.0140760789  TIP3      15680           0.0000000000
     69292     15872  TIP3      H2            -29.5846118428       34.7526091331      -58.5264877522  TIP3      15680           0.0000000000
     69293     15873  TIP3      OH2           -33.1960007277       31.1114849219      -58.3136563035  TIP3      15681           0.0000000000
     69294     15873  TIP3      H1            -33.9061992762       31.5044933855      -57.7627905639  TIP3      15681           0.0000000000
     69295     15873  TIP3      H2            -32.6741841500       31.8960007753      -58.5823100808  TIP3      15681           0.0000000000
     69296     15874  TIP3      OH2           -25.3244488075       23.7934210841      -47.9708454269  TIP3      15682           0.0000000000
     69297     15874  TIP3      H1            -24.6010579385       23.8548213934      -47.3376395519  TIP3      15682           0.0000000000
     69298     15874  TIP3      H2            -25.7002239142       22.9137628396      -47.7730923433  TIP3      15682           0.0000000000
     69299     15875  TIP3      OH2           -24.5742959681       23.3626444819      -56.8953796536  TIP3      15683           0.0000000000
     69300     15875  TIP3      H1            -24.3418466763       23.8265871320      -57.7243413797  TIP3      15683           0.0000000000
     69301     15875  TIP3      H2            -23.9959071339       23.8061656893      -56.2619973858  TIP3      15683           0.0000000000
     69302     15876  TIP3      OH2           -26.8395886959       35.5568127469      -58.0656712175  TIP3      15684           0.0000000000
     69303     15876  TIP3      H1            -27.6924733457       36.0291111749      -58.0221245895  TIP3      15684           0.0000000000
     69304     15876  TIP3      H2            -26.3682531857       36.0615411926      -58.7447326757  TIP3      15684           0.0000000000
     69305     15877  TIP3      OH2           -27.3403832144       25.1155577712      -56.0752140237  TIP3      15685           0.0000000000
     69306     15877  TIP3      H1            -26.5591341091       25.6994331047      -56.0287961065  TIP3      15685           0.0000000000
     69307     15877  TIP3      H2            -27.6057647019       24.9971403545      -55.1440773305  TIP3      15685           0.0000000000
     69308     15878  TIP3      OH2           -26.7584987495       26.1620506620      -46.9243757439  TIP3      15686           0.0000000000
     69309     15878  TIP3      H1            -26.7178989183       26.7020213747      -46.1087564315  TIP3      15686           0.0000000000
     69310     15878  TIP3      H2            -26.1243728020       25.4450273803      -46.7949183395  TIP3      15686           0.0000000000
     69311     15879  TIP3      OH2           -26.4952329965       22.1720469139      -55.1964208802  TIP3      15687           0.0000000000
     69312     15879  TIP3      H1            -26.8164122763       22.8195621352      -54.5448436139  TIP3      15687           0.0000000000
     69313     15879  TIP3      H2            -25.7996344328       22.7188512943      -55.6359288026  TIP3      15687           0.0000000000
     69314     15880  TIP3      OH2           -29.4360079889      -36.4712326243      -58.0341449839  TIP3      15688           0.0000000000
     69315     15880  TIP3      H1            -29.4032653023      -35.6817762317      -58.6073992741  TIP3      15688           0.0000000000
     69316     15880  TIP3      H2            -29.7271200706      -36.0992465118      -57.1874438581  TIP3      15688           0.0000000000
     69317     15881  TIP3      OH2           -30.8236008109       23.2790517628      -58.4860638489  TIP3      15689           0.0000000000
     69318     15881  TIP3      H1            -30.8837265931       24.1751066749      -58.0971913892  TIP3      15689           0.0000000000
     69319     15881  TIP3      H2            -29.9183027782       23.0362603870      -58.2189749037  TIP3      15689           0.0000000000
     69320     15882  TIP3      OH2           -20.6112132479       24.0088950757      -46.0398097765  TIP3      15690           0.0000000000
     69321     15882  TIP3      H1            -21.5378072821       24.3267572289      -46.1684503280  TIP3      15690           0.0000000000
     69322     15882  TIP3      H2            -20.3095154447       23.9967358579      -46.9633865698  TIP3      15690           0.0000000000
     69323     15883  TIP3      OH2           -21.9938767623       27.7967941080      -52.0355948037  TIP3      15691           0.0000000000
     69324     15883  TIP3      H1            -22.8208716824       27.3494022953      -52.3007893903  TIP3      15691           0.0000000000
     69325     15883  TIP3      H2            -21.5146433347       27.1122502583      -51.5161176436  TIP3      15691           0.0000000000
     69326     15884  TIP3      OH2           -32.6100914452       33.7451741645      -59.4631827269  TIP3      15692           0.0000000000
     69327     15884  TIP3      H1            -31.9259589835       34.3651525130      -59.1672590613  TIP3      15692           0.0000000000
     69328     15884  TIP3      H2            -32.0870859812       33.2504368302      -60.1216314477  TIP3      15692           0.0000000000
     69329     15885  TIP3      OH2           -34.3034301959       26.3815111081      -60.3095864301  TIP3      15693           0.0000000000
     69330     15885  TIP3      H1            -34.2330906518       27.3370225376      -60.1077847605  TIP3      15693           0.0000000000
     69331     15885  TIP3      H2            -35.1871473240       26.2118907941      -60.6506031108  TIP3      15693           0.0000000000
     69332     15886  TIP3      OH2           -33.4150021593       21.1638586237      -51.5740655004  TIP3      15694           0.0000000000
     69333     15886  TIP3      H1            -33.6339113915       21.1984943597      -52.5324569444  TIP3      15694           0.0000000000
     69334     15886  TIP3      H2            -33.8618321359       20.3354196310      -51.3074974961  TIP3      15694           0.0000000000
     69335     15887  TIP3      OH2           -34.4520867552       35.1009332095      -55.4628217024  TIP3      15695           0.0000000000
     69336     15887  TIP3      H1            -35.3181022531       35.5120590854      -55.4440773175  TIP3      15695           0.0000000000
     69337     15887  TIP3      H2            -33.9662443445       35.6115740059      -56.1138107694  TIP3      15695           0.0000000000
     69338     15888  TIP3      OH2           -30.3159543951       36.3507324823      -42.2985948385  TIP3      15696           0.0000000000
     69339     15888  TIP3      H1            -29.4619218425       35.9479193073      -42.1281426835  TIP3      15696           0.0000000000
     69340     15888  TIP3      H2            -30.3917465674       36.2118573602      -43.2594680309  TIP3      15696           0.0000000000
     69341     15889  TIP3      OH2           -26.4432348365       36.1154362003      -61.0103598011  TIP3      15697           0.0000000000
     69342     15889  TIP3      H1            -27.1853251071       35.4918351463      -60.9288388321  TIP3      15697           0.0000000000
     69343     15889  TIP3      H2            -25.7395124794       35.5840132233      -61.3851519586  TIP3      15697           0.0000000000
     69344     15890  TIP3      OH2           -24.0054818203       34.6748709143      -43.9154163215  TIP3      15698           0.0000000000
     69345     15890  TIP3      H1            -24.4844903591       34.0014375724      -43.4015642877  TIP3      15698           0.0000000000
     69346     15890  TIP3      H2            -23.3983789036       35.0454717860      -43.2588160875  TIP3      15698           0.0000000000
     69347     15891  TIP3      OH2           -21.7628243512       35.8727296406      -60.7934502405  TIP3      15699           0.0000000000
     69348     15891  TIP3      H1            -21.4911873479       35.0392818255      -60.3971038531  TIP3      15699           0.0000000000
     69349     15891  TIP3      H2            -21.0404573015       36.0918287524      -61.4150244459  TIP3      15699           0.0000000000
     69350     15892  TIP3      OH2           -35.3999054921       31.5225878259      -43.1382425458  TIP3      15700           0.0000000000
     69351     15892  TIP3      H1            -35.1897437576       30.6282000492      -43.4631153648  TIP3      15700           0.0000000000
     69352     15892  TIP3      H2            -36.1152773863       31.8065886379      -43.7204934501  TIP3      15700           0.0000000000
     69353     15893  TIP3      OH2           -31.0232528417       31.8439390671      -61.1142824940  TIP3      15701           0.0000000000
     69354     15893  TIP3      H1            -30.8772309702       31.0890127758      -60.5262188183  TIP3      15701           0.0000000000
     69355     15893  TIP3      H2            -30.2667053074       31.7441890181      -61.7237735285  TIP3      15701           0.0000000000
     69356     15894  TIP3      OH2           -28.6352146753       31.5114642567      -43.7544960817  TIP3      15702           0.0000000000
     69357     15894  TIP3      H1            -28.9960305634       31.8131503821      -44.6094968145  TIP3      15702           0.0000000000
     69358     15894  TIP3      H2            -28.5802353043       30.5274891166      -43.8502284325  TIP3      15702           0.0000000000
     69359     15895  TIP3      OH2           -25.5767432281       32.9964187743      -61.3333891508  TIP3      15703           0.0000000000
     69360     15895  TIP3      H1            -25.8807685728       33.0828510005      -60.4159970454  TIP3      15703           0.0000000000
     69361     15895  TIP3      H2            -25.7769666508       32.0417756009      -61.4768677823  TIP3      15703           0.0000000000
     69362     15896  TIP3      OH2           -22.9533510940       31.3751347619      -46.3513917258  TIP3      15704           0.0000000000
     69363     15896  TIP3      H1            -22.1680849340       31.9572965473      -46.4229326578  TIP3      15704           0.0000000000
     69364     15896  TIP3      H2            -23.6554919628       32.0379340351      -46.3077971510  TIP3      15704           0.0000000000
     69365     15897  TIP3      OH2           -34.5055810204       28.7613822476      -43.7550583265  TIP3      15705           0.0000000000
     69366     15897  TIP3      H1            -34.0315140760       27.9127034884      -43.8436563699  TIP3      15705           0.0000000000
     69367     15897  TIP3      H2            -34.6889846029       28.7529060380      -42.8036933345  TIP3      15705           0.0000000000
     69368     15898  TIP3      OH2           -29.8183228679       29.8861751230      -58.6798186513  TIP3      15706           0.0000000000
     69369     15898  TIP3      H1            -30.3213126078       29.3475974712      -58.0519816965  TIP3      15706           0.0000000000
     69370     15898  TIP3      H2            -29.5194873890       29.2140162488      -59.3352457087  TIP3      15706           0.0000000000
     69371     15899  TIP3      OH2           -30.5470472899       27.6893510967      -46.3948018107  TIP3      15707           0.0000000000
     69372     15899  TIP3      H1            -31.1554648835       28.3911563828      -46.1148426412  TIP3      15707           0.0000000000
     69373     15899  TIP3      H2            -30.1579829103       28.0687642599      -47.2012576202  TIP3      15707           0.0000000000
     69374     15900  TIP3      OH2           -28.7440367020       28.1118416241      -60.4810245246  TIP3      15708           0.0000000000
     69375     15900  TIP3      H1            -28.8946548387       28.0217062035      -61.4425188731  TIP3      15708           0.0000000000
     69376     15900  TIP3      H2            -27.7656141385       28.1623593860      -60.4158319045  TIP3      15708           0.0000000000
     69377     15901  TIP3      OH2           -25.4784715405       30.2635740791      -43.0589284358  TIP3      15709           0.0000000000
     69378     15901  TIP3      H1            -24.5206927214       30.2524063351      -43.1819473695  TIP3      15709           0.0000000000
     69379     15901  TIP3      H2            -25.6457859208       29.4952490988      -42.4898910696  TIP3      15709           0.0000000000
     69380     15902  TIP3      OH2           -19.3977218598       30.4248520684      -61.0727475868  TIP3      15710           0.0000000000
     69381     15902  TIP3      H1            -19.6278173712       30.0655167111      -61.9436372366  TIP3      15710           0.0000000000
     69382     15902  TIP3      H2            -19.3311805105       31.3920299933      -61.2545920708  TIP3      15710           0.0000000000
     69383     15903  TIP3      OH2           -30.1448326858       25.0888302000      -45.3639192569  TIP3      15711           0.0000000000
     69384     15903  TIP3      H1            -30.0348169704       24.3621593303      -46.0013462313  TIP3      15711           0.0000000000
     69385     15903  TIP3      H2            -30.2164936217       25.8976895460      -45.9067895021  TIP3      15711           0.0000000000
     69386     15904  TIP3      OH2           -29.7333032784       23.4530600937      -47.7811502464  TIP3      15712           0.0000000000
     69387     15904  TIP3      H1            -29.2284423901       23.9212482981      -48.4887526487  TIP3      15712           0.0000000000
     69388     15904  TIP3      H2            -30.6320964974       23.3787165931      -48.1781248827  TIP3      15712           0.0000000000
     69389     15905  TIP3      OH2           -28.1943127110       28.9480454696      -47.5388911052  TIP3      15713           0.0000000000
     69390     15905  TIP3      H1            -27.4458561431       28.7780367845      -48.1164815427  TIP3      15713           0.0000000000
     69391     15905  TIP3      H2            -28.5676790034       29.7767838182      -47.8793333882  TIP3      15713           0.0000000000
     69392     15906  TIP3      OH2           -23.8120875096       26.6965910450      -42.5810040762  TIP3      15714           0.0000000000
     69393     15906  TIP3      H1            -23.5934312965       25.7544286810      -42.6537211466  TIP3      15714           0.0000000000
     69394     15906  TIP3      H2            -22.9404636232       27.1294616656      -42.5467143407  TIP3      15714           0.0000000000
     69395     15907  TIP3      OH2           -22.4602560021       29.5002269390      -44.4041079815  TIP3      15715           0.0000000000
     69396     15907  TIP3      H1            -22.7183053455       30.2136210710      -45.0276361568  TIP3      15715           0.0000000000
     69397     15907  TIP3      H2            -21.5067677431       29.4746499649      -44.5989985161  TIP3      15715           0.0000000000
     69398     15908  TIP3      OH2           -31.7495722652       26.3748730384      -43.4654214485  TIP3      15716           0.0000000000
     69399     15908  TIP3      H1            -32.4734633692       25.7241740575      -43.5845289416  TIP3      15716           0.0000000000
     69400     15908  TIP3      H2            -31.0497774549       25.9559062620      -44.0097501083  TIP3      15716           0.0000000000
     69401     15909  TIP3      OH2           -28.9501634009       20.8940874608      -47.3998083887  TIP3      15717           0.0000000000
     69402     15909  TIP3      H1            -29.1385630474       21.8556880362      -47.4926222677  TIP3      15717           0.0000000000
     69403     15909  TIP3      H2            -29.7024628335       20.5229534766      -47.8953637605  TIP3      15717           0.0000000000
     69404     15910  TIP3      OH2           -27.6956169852       25.2243041234      -43.7470787261  TIP3      15718           0.0000000000
     69405     15910  TIP3      H1            -28.0176279337       24.9635878159      -42.8630118264  TIP3      15718           0.0000000000
     69406     15910  TIP3      H2            -28.4792134057       25.0108236927      -44.2942656495  TIP3      15718           0.0000000000
     69407     15911  TIP3      OH2           -24.9526363766       24.3486714302      -44.6972763757  TIP3      15719           0.0000000000
     69408     15911  TIP3      H1            -25.9156129048       24.4192319042      -44.5580272237  TIP3      15719           0.0000000000
     69409     15911  TIP3      H2            -24.7051015603       23.7362954482      -43.9781166069  TIP3      15719           0.0000000000
     69410     15912  TIP3      OH2           -23.3193589905       22.9816599671      -42.7698250967  TIP3      15720           0.0000000000
     69411     15912  TIP3      H1            -23.4402810675       22.0131889747      -42.7391878572  TIP3      15720           0.0000000000
     69412     15912  TIP3      H2            -23.6440260341       23.2851832873      -41.8993557580  TIP3      15720           0.0000000000
     69413     15913  TIP3      OH2           -33.4396686818       24.2371436545      -43.6191469080  TIP3      15721           0.0000000000
     69414     15913  TIP3      H1            -33.3550255696       23.5068020187      -44.2603685238  TIP3      15721           0.0000000000
     69415     15913  TIP3      H2            -33.6470205940       23.7730520438      -42.7866467509  TIP3      15721           0.0000000000
     69416     15914  TIP3      OH2           -28.8523740118       20.1420890187      -44.7916689930  TIP3      15722           0.0000000000
     69417     15914  TIP3      H1            -28.0489680507       19.5879593517      -44.7293247886  TIP3      15722           0.0000000000
     69418     15914  TIP3      H2            -28.8413734469       20.4152903282      -45.7206699916  TIP3      15722           0.0000000000
     69419     15915  TIP3      OH2           -28.3037268414       21.7239021731      -42.8769485832  TIP3      15723           0.0000000000
     69420     15915  TIP3      H1            -28.6684647300       21.3029195502      -43.6737946319  TIP3      15723           0.0000000000
     69421     15915  TIP3      H2            -28.8781762301       22.4995209863      -42.6899545131  TIP3      15723           0.0000000000
     69422     15916  TIP3      OH2           -35.3064366295       33.3907616610      -59.9304084037  TIP3      15724           0.0000000000
     69423     15916  TIP3      H1            -34.3546844960       33.5091634583      -59.7310041567  TIP3      15724           0.0000000000
     69424     15916  TIP3      H2            -35.2637019154       32.7394137848      -60.6523920419  TIP3      15724           0.0000000000
     69425     15917  TIP3      OH2           -20.1991379505       33.0223479321      -42.5591982109  TIP3      15725           0.0000000000
     69426     15917  TIP3      H1            -21.0947121259       32.9755420591      -42.1695558800  TIP3      15725           0.0000000000
     69427     15917  TIP3      H2            -19.8049563080       33.8094374453      -42.1143214454  TIP3      15725           0.0000000000
     69428     15918  TIP3      OH2           -18.8682503593       31.3090019557      -57.1360045766  TIP3      15726           0.0000000000
     69429     15918  TIP3      H1            -18.0345968072       31.7545770692      -56.9136600608  TIP3      15726           0.0000000000
     69430     15918  TIP3      H2            -18.8956149857       30.6220187401      -56.4374891148  TIP3      15726           0.0000000000
     69431     15919  TIP3      OH2           -18.5203612083       29.4238279481      -55.2231290667  TIP3      15727           0.0000000000
     69432     15919  TIP3      H1            -19.2692427783       28.9188026235      -54.8311385681  TIP3      15727           0.0000000000
     69433     15919  TIP3      H2            -17.9182963661       29.5487173956      -54.4600930951  TIP3      15727           0.0000000000
     69434     15920  TIP3      OH2           -18.7549205812       32.1121152980      -50.2165437030  TIP3      15728           0.0000000000
     69435     15920  TIP3      H1            -17.9528243676       31.7400045101      -50.6201220688  TIP3      15728           0.0000000000
     69436     15920  TIP3      H2            -18.6162584717       33.0668314708      -50.3939171017  TIP3      15728           0.0000000000
     69437     15921  TIP3      OH2           -20.2679679141       34.9986883027      -47.9218145247  TIP3      15729           0.0000000000
     69438     15921  TIP3      H1            -20.9642502303       35.3801919149      -47.3883697169  TIP3      15729           0.0000000000
     69439     15921  TIP3      H2            -20.7670192137       34.6425776280      -48.6944669505  TIP3      15729           0.0000000000
     69440     15922  TIP3      OH2           -18.1933747811       29.2453453661      -58.8563386394  TIP3      15730           0.0000000000
     69441     15922  TIP3      H1            -18.7933860939       29.6044085943      -59.5463936211  TIP3      15730           0.0000000000
     69442     15922  TIP3      H2            -18.3057105757       29.9415069886      -58.1816735240  TIP3      15730           0.0000000000
     69443     15923  TIP3      OH2           -19.8118325143       26.4720529193      -60.3281697337  TIP3      15731           0.0000000000
     69444     15923  TIP3      H1            -19.8019965236       27.1485902154      -61.0144653144  TIP3      15731           0.0000000000
     69445     15923  TIP3      H2            -20.0533876990       25.6548406638      -60.8100449357  TIP3      15731           0.0000000000
     69446     15924  TIP3      OH2           -20.6985282917       27.8946210200      -54.6592610881  TIP3      15732           0.0000000000
     69447     15924  TIP3      H1            -20.8475444839       26.9404725850      -54.6971793980  TIP3      15732           0.0000000000
     69448     15924  TIP3      H2            -21.0306734785       28.1130867678      -53.7697708739  TIP3      15732           0.0000000000
     69449     15925  TIP3      OH2           -35.6754666907       29.9711917781      -50.6784290626  TIP3      15733           0.0000000000
     69450     15925  TIP3      H1            -35.4730586250       29.9258152579      -51.6368225023  TIP3      15733           0.0000000000
     69451     15925  TIP3      H2            -34.7943660370       29.8560853594      -50.2589926310  TIP3      15733           0.0000000000
     69452     15926  TIP3      OH2           -19.8389196891       29.8650142638      -44.9696897432  TIP3      15734           0.0000000000
     69453     15926  TIP3      H1            -19.2285993087       29.1086515574      -44.8356781542  TIP3      15734           0.0000000000
     69454     15926  TIP3      H2            -19.2337237491       30.6373637688      -44.9638085547  TIP3      15734           0.0000000000
     69455     15927  TIP3      OH2           -18.3364268078       27.7436821029      -44.3180390781  TIP3      15735           0.0000000000
     69456     15927  TIP3      H1            -19.2197580415       27.3455026852      -44.4731329453  TIP3      15735           0.0000000000
     69457     15927  TIP3      H2            -17.7669195630       26.9604063411      -44.3951119218  TIP3      15735           0.0000000000
     69458     15928  TIP3      OH2           -20.5978759046       23.9518374920      -61.1882979380  TIP3      15736           0.0000000000
     69459     15928  TIP3      H1            -20.0082017063       23.5121449717      -60.5463291369  TIP3      15736           0.0000000000
     69460     15928  TIP3      H2            -21.4620696839       23.5319917544      -61.0352861475  TIP3      15736           0.0000000000
     69461     15929  TIP3      OH2           -21.0546076875       25.4766535683      -56.2452578549  TIP3      15737           0.0000000000
     69462     15929  TIP3      H1            -20.7383106357       24.5556569383      -56.0811287562  TIP3      15737           0.0000000000
     69463     15929  TIP3      H2            -20.2360279222       25.8902067198      -56.5527974500  TIP3      15737           0.0000000000
     69464     15930  TIP3      OH2           -20.3925525511       26.0243225400      -50.7565993076  TIP3      15738           0.0000000000
     69465     15930  TIP3      H1            -19.4321400317       26.2545154524      -50.7712260509  TIP3      15738           0.0000000000
     69466     15930  TIP3      H2            -20.5802172705       26.1643425970      -49.8168746433  TIP3      15738           0.0000000000
     69467     15931  TIP3      OH2           -20.3233262026       26.7446250842      -47.9682477077  TIP3      15739           0.0000000000
     69468     15931  TIP3      H1            -21.2082868727       27.0330946914      -47.6590226568  TIP3      15739           0.0000000000
     69469     15931  TIP3      H2            -19.8924509532       27.6047089224      -48.1979565893  TIP3      15739           0.0000000000
     69470     15932  TIP3      OH2           -35.8020080418       25.1531415992      -44.4671339246  TIP3      15740           0.0000000000
     69471     15932  TIP3      H1            -34.9171998859       24.9671598623      -44.1273390326  TIP3      15740           0.0000000000
     69472     15932  TIP3      H2            -36.3859200248       24.4712486886      -44.0501895649  TIP3      15740           0.0000000000
     69473     15933  TIP3      OH2           -18.0632861743       20.8096559526      -42.6432597142  TIP3      15741           0.0000000000
     69474     15933  TIP3      H1            -17.7019019980       20.1485965647      -43.2572682476  TIP3      15741           0.0000000000
     69475     15933  TIP3      H2            -17.9464553366       21.6253715795      -43.1635152953  TIP3      15741           0.0000000000
     69476     15934  TIP3      OH2           -20.3580801521       22.7689244081      -56.1545228569  TIP3      15742           0.0000000000
     69477     15934  TIP3      H1            -20.1458274466       22.3319567395      -55.3015138982  TIP3      15742           0.0000000000
     69478     15934  TIP3      H2            -20.9583949870       22.1290089975      -56.5918096175  TIP3      15742           0.0000000000
     69479     15935  TIP3      OH2           -34.8329101136       23.5282345467      -51.6377720026  TIP3      15743           0.0000000000
     69480     15935  TIP3      H1            -34.3743819774       22.7338703329      -51.3102405303  TIP3      15743           0.0000000000
     69481     15935  TIP3      H2            -34.3333254446       24.2360054564      -51.1931916663  TIP3      15743           0.0000000000
     69482     15936  TIP3      OH2           -36.0167394049       27.3307529845      -50.1999660282  TIP3      15744           0.0000000000
     69483     15936  TIP3      H1            -35.9822691378       26.9012109658      -51.0805304514  TIP3      15744           0.0000000000
     69484     15936  TIP3      H2            -35.9406937925       28.2458528961      -50.4795999479  TIP3      15744           0.0000000000
     69485     15937  TIP3      OH2           -18.5289213868       22.9133154158      -44.2807740139  TIP3      15745           0.0000000000
     69486     15937  TIP3      H1            -19.4693312175       23.1757366019      -44.3237788606  TIP3      15745           0.0000000000
     69487     15937  TIP3      H2            -18.4963885160       22.3510227120      -45.0677190770  TIP3      15745           0.0000000000
     69488     15938  TIP3      OH2           -18.5518502444       22.7937204336      -59.5971754413  TIP3      15746           0.0000000000
     69489     15938  TIP3      H1            -18.1313638061       22.0897039775      -60.1394393097  TIP3      15746           0.0000000000
     69490     15938  TIP3      H2            -17.8520721678       23.4579221819      -59.5327797038  TIP3      15746           0.0000000000
     69491     15939  TIP3      OH2           -35.7601023292       22.7887397209      -56.9202684468  TIP3      15747           0.0000000000
     69492     15939  TIP3      H1            -36.7051041459       22.9749411769      -56.7937156348  TIP3      15747           0.0000000000
     69493     15939  TIP3      H2            -35.5363672933       23.5486790799      -57.4953677699  TIP3      15747           0.0000000000
     69494     15940  TIP3      OH2            37.0294158517       21.4556072772      -47.9774452549  TIP3      15748           0.0000000000
     69495     15940  TIP3      H1             36.2416388800       21.2455384531      -47.4515784973  TIP3      15748           0.0000000000
     69496     15940  TIP3      H2             36.5481457465       21.9704510765      -48.6486206592  TIP3      15748           0.0000000000
     69497     15941  TIP3      OH2           -34.0974171069       34.7588871483      -44.0204422683  TIP3      15749           0.0000000000
     69498     15941  TIP3      H1            -34.9609361328       34.8922466987      -44.4254735819  TIP3      15749           0.0000000000
     69499     15941  TIP3      H2            -34.3177325929       34.5816632215      -43.0999802567  TIP3      15749           0.0000000000
     69500     15942  TIP3      OH2           -31.0486848730       35.7137714610      -47.6470239193  TIP3      15750           0.0000000000
     69501     15942  TIP3      H1            -31.5539703591       36.4403305468      -48.0502858567  TIP3      15750           0.0000000000
     69502     15942  TIP3      H2            -30.2198753936       35.6765023779      -48.1376524064  TIP3      15750           0.0000000000
     69503     15943  TIP3      OH2           -19.5130038793       20.9979681516      -46.4285789335  TIP3      15751           0.0000000000
     69504     15943  TIP3      H1            -20.3415274375       21.2973861797      -46.8406581857  TIP3      15751           0.0000000000
     69505     15943  TIP3      H2            -19.3451965738       20.1753459816      -46.9464252745  TIP3      15751           0.0000000000
     69506     15944  TIP3      OH2           -31.9149016335       36.0160744750      -52.3888258691  TIP3      15752           0.0000000000
     69507     15944  TIP3      H1            -32.3481548985       35.2854335854      -51.9157298467  TIP3      15752           0.0000000000
     69508     15944  TIP3      H2            -31.3534137972       36.3940677521      -51.6886245849  TIP3      15752           0.0000000000
     69509     15945  TIP3      OH2           -26.1235856481       22.4240795340      -52.1430694647  TIP3      15753           0.0000000000
     69510     15945  TIP3      H1            -26.8004356581       21.7840651126      -51.8635260880  TIP3      15753           0.0000000000
     69511     15945  TIP3      H2            -25.5717777982       21.8910155950      -52.7277183606  TIP3      15753           0.0000000000
     69512     15946  TIP3      OH2           -20.9871256588       20.4726751229      -52.0830635278  TIP3      15754           0.0000000000
     69513     15946  TIP3      H1            -20.3755718212       21.0655658576      -52.5883733792  TIP3      15754           0.0000000000
     69514     15946  TIP3      H2            -21.8692764206       20.8339193938      -52.3110746936  TIP3      15754           0.0000000000
     69515     15947  TIP3      OH2           -19.3211020492       21.7237891073      -53.8045222860  TIP3      15755           0.0000000000
     69516     15947  TIP3      H1            -18.6327415285       21.1478750019      -54.2185351198  TIP3      15755           0.0000000000
     69517     15947  TIP3      H2            -18.8123207873       22.5589396167      -53.6928385855  TIP3      15755           0.0000000000
     69518     15948  TIP3      OH2           -33.7433424779       21.0419161967      -54.2686705624  TIP3      15756           0.0000000000
     69519     15948  TIP3      H1            -34.5229086696       20.8425604218      -54.8330203921  TIP3      15756           0.0000000000
     69520     15948  TIP3      H2            -33.2536942551       20.2031035693      -54.3692090257  TIP3      15756           0.0000000000
     69521     15949  TIP3      OH2           -34.9684024614       20.7817728012      -58.6204441759  TIP3      15757           0.0000000000
     69522     15949  TIP3      H1            -34.4553005322       21.4526619552      -59.1029247513  TIP3      15757           0.0000000000
     69523     15949  TIP3      H2            -35.5285154728       21.3512589323      -58.0575337483  TIP3      15757           0.0000000000
     69524     15950  TIP3      OH2           -29.2829082553       20.9770096999      -54.5108632986  TIP3      15758           0.0000000000
     69525     15950  TIP3      H1            -28.3816416946       21.3341515130      -54.5881998277  TIP3      15758           0.0000000000
     69526     15950  TIP3      H2            -29.3154088023       20.7576714500      -53.5803757449  TIP3      15758           0.0000000000
     69527     15951  TIP3      OH2           -23.5663878592       20.9946248002      -52.8869703075  TIP3      15759           0.0000000000
     69528     15951  TIP3      H1            -23.6188654486       21.1084321765      -53.8447574089  TIP3      15759           0.0000000000
     69529     15951  TIP3      H2            -23.9467474911       20.0911385735      -52.7583791270  TIP3      15759           0.0000000000
     69530     15952  TIP3      OH2           -22.3006763248       21.0243883267      -57.2018211495  TIP3      15760           0.0000000000
     69531     15952  TIP3      H1            -23.0495726107       21.6182992799      -57.3604734007  TIP3      15760           0.0000000000
     69532     15952  TIP3      H2            -22.7404934126       20.1722261600      -56.9683887779  TIP3      15760           0.0000000000
     69533     15953  TIP3      OH2           -33.1653120919       22.7514024074      -60.0319924411  TIP3      15761           0.0000000000
     69534     15953  TIP3      H1            -32.6400883451       22.1482849052      -60.5891210094  TIP3      15761           0.0000000000
     69535     15953  TIP3      H2            -32.4633827593       23.0611816720      -59.4304622144  TIP3      15761           0.0000000000
     69536     15954  TIP3      OH2           -28.1297299535       22.9900656147      -57.6609847936  TIP3      15762           0.0000000000
     69537     15954  TIP3      H1            -27.8771730937       22.4105795486      -56.9229881289  TIP3      15762           0.0000000000
     69538     15954  TIP3      H2            -28.0595726939       23.8564840410      -57.2023767470  TIP3      15762           0.0000000000
     69539     15955  TIP3      OH2           -33.9227103162       21.6199048037      -44.8074446129  TIP3      15763           0.0000000000
     69540     15955  TIP3      H1            -34.2465870350       20.7726442635      -44.4493602954  TIP3      15763           0.0000000000
     69541     15955  TIP3      H2            -32.9923636431       21.5540393439      -44.4763855059  TIP3      15763           0.0000000000
     69542     15956  TIP3      OH2           -31.8812654796       20.9556873942      -43.2464047530  TIP3      15764           0.0000000000
     69543     15956  TIP3      H1            -30.9773067784       20.6314928828      -43.4263329450  TIP3      15764           0.0000000000
     69544     15956  TIP3      H2            -32.2420853580       20.1707508855      -42.7971381393  TIP3      15764           0.0000000000
     69545     15957  TIP3      OH2           -23.4790425247       20.2644125034      -43.0569714952  TIP3      15765           0.0000000000
     69546     15957  TIP3      H1            -23.3664146068       19.7944565490      -42.2042246837  TIP3      15765           0.0000000000
     69547     15957  TIP3      H2            -22.5599897791       20.2447330102      -43.3929497869  TIP3      15765           0.0000000000
     69548     15958  TIP3      OH2           -20.4332982351      -36.7602388002      -44.2529227434  TIP3      15766           0.0000000000
     69549     15958  TIP3      H1            -21.0569960955      -36.8882274966      -44.9715320248  TIP3      15766           0.0000000000
     69550     15958  TIP3      H2            -20.2936062434      -35.8007423570      -44.2582725724  TIP3      15766           0.0000000000
     69551     15959  TIP3      OH2            -5.8137308297       30.1734828236      -54.4209065302  TIP3      15767           0.0000000000
     69552     15959  TIP3      H1             -5.8269782828       31.1553428906      -54.4649433072  TIP3      15767           0.0000000000
     69553     15959  TIP3      H2             -6.5345207310       29.9504565123      -55.0320984846  TIP3      15767           0.0000000000
     69554     15960  TIP3      OH2            -6.9519407471       29.4439710981      -50.9399665121  TIP3      15768           0.0000000000
     69555     15960  TIP3      H1             -6.9644734575       28.7951658470      -50.2222957001  TIP3      15768           0.0000000000
     69556     15960  TIP3      H2             -7.3035485526       28.9344475857      -51.6905830719  TIP3      15768           0.0000000000
     69557     15961  TIP3      OH2           -14.6024949662       29.1225223626      -49.3864738561  TIP3      15769           0.0000000000
     69558     15961  TIP3      H1            -14.5182108010       28.4349568527      -48.6929995503  TIP3      15769           0.0000000000
     69559     15961  TIP3      H2            -13.8523818739       29.6923307125      -49.1636351475  TIP3      15769           0.0000000000
     69560     15962  TIP3      OH2            -3.2703109635       32.3797843504      -52.6442492368  TIP3      15770           0.0000000000
     69561     15962  TIP3      H1             -3.6895003034       31.6668667408      -52.1545650607  TIP3      15770           0.0000000000
     69562     15962  TIP3      H2             -3.2295229863       33.0986115518      -51.9879172778  TIP3      15770           0.0000000000
     69563     15963  TIP3      OH2           -13.6579158532       33.5749007024      -50.8564768837  TIP3      15771           0.0000000000
     69564     15963  TIP3      H1            -13.9910610389       32.7183808280      -51.1947665804  TIP3      15771           0.0000000000
     69565     15963  TIP3      H2            -12.7055512787       33.3820912340      -50.8523216501  TIP3      15771           0.0000000000
     69566     15964  TIP3      OH2           -17.0374306989       27.1252565708      -55.3957461847  TIP3      15772           0.0000000000
     69567     15964  TIP3      H1            -17.4738078345       27.9961851187      -55.4593617484  TIP3      15772           0.0000000000
     69568     15964  TIP3      H2            -17.5999754253       26.5845773024      -55.9645930812  TIP3      15772           0.0000000000
     69569     15965  TIP3      OH2           -16.3255880629       29.3514756051      -53.2468031811  TIP3      15773           0.0000000000
     69570     15965  TIP3      H1            -16.0501684508       28.5299033868      -52.7979846374  TIP3      15773           0.0000000000
     69571     15965  TIP3      H2            -15.6313641868       29.4587317240      -53.9147081087  TIP3      15773           0.0000000000
     69572     15966  TIP3      OH2            -8.5968350831       31.8210032577      -50.4553357653  TIP3      15774           0.0000000000
     69573     15966  TIP3      H1             -8.2439522089       31.2151319694      -51.1262055613  TIP3      15774           0.0000000000
     69574     15966  TIP3      H2             -7.7813986401       32.0207970884      -49.9623798530  TIP3      15774           0.0000000000
     69575     15967  TIP3      OH2             0.0136885147       23.5092807667      -49.7446971403  TIP3      15775           0.0000000000
     69576     15967  TIP3      H1              0.1936138976       24.0934126776      -48.9765874670  TIP3      15775           0.0000000000
     69577     15967  TIP3      H2              0.5852910542       23.9275476934      -50.4042612073  TIP3      15775           0.0000000000
     69578     15968  TIP3      OH2            -5.4116336725       26.3141369964      -50.1527480721  TIP3      15776           0.0000000000
     69579     15968  TIP3      H1             -5.2445357148       25.3550785322      -50.1477864548  TIP3      15776           0.0000000000
     69580     15968  TIP3      H2             -5.5154286779       26.4540484851      -51.1138054427  TIP3      15776           0.0000000000
     69581     15969  TIP3      OH2           -12.2996684610       24.4036681076      -52.9387657859  TIP3      15777           0.0000000000
     69582     15969  TIP3      H1            -12.1903095567       25.2373992904      -53.4322199136  TIP3      15777           0.0000000000
     69583     15969  TIP3      H2            -12.6965704226       23.8294491889      -53.6287948897  TIP3      15777           0.0000000000
     69584     15970  TIP3      OH2            -4.5690148424       24.4751426840      -54.5579284590  TIP3      15778           0.0000000000
     69585     15970  TIP3      H1             -3.9116975265       24.1637779619      -53.8942476429  TIP3      15778           0.0000000000
     69586     15970  TIP3      H2             -4.0167972415       25.0668658684      -55.0864209376  TIP3      15778           0.0000000000
     69587     15971  TIP3      OH2           -15.6748029774       26.8145575044      -52.2025123215  TIP3      15779           0.0000000000
     69588     15971  TIP3      H1            -15.0045150077       26.2696158739      -51.7487253042  TIP3      15779           0.0000000000
     69589     15971  TIP3      H2            -15.5680721091       26.4996829700      -53.1125646612  TIP3      15779           0.0000000000
     69590     15972  TIP3      OH2           -10.5181088317       28.3694454591      -52.8806132838  TIP3      15780           0.0000000000
     69591     15972  TIP3      H1             -9.8435998643       27.7881220700      -52.4889700160  TIP3      15780           0.0000000000
     69592     15972  TIP3      H2            -11.0315067482       27.7133746815      -53.3920725855  TIP3      15780           0.0000000000
     69593     15973  TIP3      OH2             0.4567788172       24.9102284873      -47.4651904639  TIP3      15781           0.0000000000
     69594     15973  TIP3      H1             -0.1476375486       25.6764520942      -47.5780897445  TIP3      15781           0.0000000000
     69595     15973  TIP3      H2              0.4903269648       24.8314858426      -46.5053348926  TIP3      15781           0.0000000000
     69596     15974  TIP3      OH2           -13.3882951798       23.3027640837      -48.8988137913  TIP3      15782           0.0000000000
     69597     15974  TIP3      H1            -13.6711255118       23.8741723099      -49.6441346178  TIP3      15782           0.0000000000
     69598     15974  TIP3      H2            -14.0659522503       23.5305184825      -48.2164508449  TIP3      15782           0.0000000000
     69599     15975  TIP3      OH2            -6.1107304133       32.7566584377      -55.3537135790  TIP3      15783           0.0000000000
     69600     15975  TIP3      H1             -6.3536996025       32.5142333567      -56.2568941340  TIP3      15783           0.0000000000
     69601     15975  TIP3      H2             -6.4172349349       33.6815152119      -55.2860118357  TIP3      15783           0.0000000000
     69602     15976  TIP3      OH2           -10.8800930999       30.9239623519      -48.6473854832  TIP3      15784           0.0000000000
     69603     15976  TIP3      H1            -11.5819847488       31.5727994452      -48.4331394430  TIP3      15784           0.0000000000
     69604     15976  TIP3      H2            -10.1702166865       31.5178852030      -48.9452035874  TIP3      15784           0.0000000000
     69605     15977  TIP3      OH2            -2.7468707528       23.8305518617      -52.5762294752  TIP3      15785           0.0000000000
     69606     15977  TIP3      H1             -2.9701218316       23.0616660432      -52.0431648399  TIP3      15785           0.0000000000
     69607     15977  TIP3      H2             -2.0784273814       24.2657836867      -52.0203366333  TIP3      15785           0.0000000000
     69608     15978  TIP3      OH2           -13.8205548828       25.1584925836      -50.8623961370  TIP3      15786           0.0000000000
     69609     15978  TIP3      H1            -13.1924265454       25.8478304811      -50.5519418149  TIP3      15786           0.0000000000
     69610     15978  TIP3      H2            -13.3047624112       24.7483655876      -51.6013981331  TIP3      15786           0.0000000000
     69611     15979  TIP3      OH2           -12.4135152678       32.9517108155      -47.8530326213  TIP3      15787           0.0000000000
     69612     15979  TIP3      H1            -12.4780781955       33.8542279740      -48.2022236797  TIP3      15787           0.0000000000
     69613     15979  TIP3      H2            -13.3009711350       32.8639476007      -47.4205422243  TIP3      15787           0.0000000000
     69614     15980  TIP3      OH2           -16.3518799865       32.6109803865      -57.0488342388  TIP3      15788           0.0000000000
     69615     15980  TIP3      H1            -16.6138972106       32.9311290463      -57.9286383764  TIP3      15788           0.0000000000
     69616     15980  TIP3      H2            -16.2690076761       33.4378135388      -56.5351148867  TIP3      15788           0.0000000000
     69617     15981  TIP3      OH2            -2.7374739076       34.2457260407      -50.2422581235  TIP3      15789           0.0000000000
     69618     15981  TIP3      H1             -3.7170865612       34.3311276413      -50.1463077366  TIP3      15789           0.0000000000
     69619     15981  TIP3      H2             -2.4508483891       35.1386292654      -50.5071273528  TIP3      15789           0.0000000000
     69620     15982  TIP3      OH2            -2.4168950074       22.5141800364      -48.8991182556  TIP3      15790           0.0000000000
     69621     15982  TIP3      H1             -3.1411712738       23.1479885488      -48.9913718016  TIP3      15790           0.0000000000
     69622     15982  TIP3      H2             -1.7032660272       22.9329023540      -49.4209489057  TIP3      15790           0.0000000000
     69623     15983  TIP3      OH2            -9.4514170727       20.6377297583      -51.4336180163  TIP3      15791           0.0000000000
     69624     15983  TIP3      H1             -9.5950099612       19.6730735860      -51.5101729857  TIP3      15791           0.0000000000
     69625     15983  TIP3      H2            -10.3304353031       20.9423706985      -51.1262019927  TIP3      15791           0.0000000000
     69626     15984  TIP3      OH2            -4.4713568348       35.7230876847      -53.9060672030  TIP3      15792           0.0000000000
     69627     15984  TIP3      H1             -3.8942927557       35.0749828483      -54.3622534019  TIP3      15792           0.0000000000
     69628     15984  TIP3      H2             -4.0007588804       36.5233040250      -54.0749049177  TIP3      15792           0.0000000000
     69629     15985  TIP3      OH2            -3.2449797468       33.8554811401      -55.1863536528  TIP3      15793           0.0000000000
     69630     15985  TIP3      H1             -3.5778584075       33.1805356564      -55.7890769992  TIP3      15793           0.0000000000
     69631     15985  TIP3      H2             -3.2274556661       33.3852801994      -54.3294674068  TIP3      15793           0.0000000000
     69632     15986  TIP3      OH2            -1.6428853436       32.5761621409      -46.6751947281  TIP3      15794           0.0000000000
     69633     15986  TIP3      H1             -1.5178816777       31.8979269308      -47.3758876149  TIP3      15794           0.0000000000
     69634     15986  TIP3      H2             -1.4209550863       33.3983669353      -47.1458115697  TIP3      15794           0.0000000000
     69635     15987  TIP3      OH2            -7.1326108346       29.4524711883      -56.8974737092  TIP3      15795           0.0000000000
     69636     15987  TIP3      H1             -7.8459322115       29.9729380160      -57.3052285976  TIP3      15795           0.0000000000
     69637     15987  TIP3      H2             -6.4588233066       29.4948503858      -57.6059802938  TIP3      15795           0.0000000000
     69638     15988  TIP3      OH2            -7.1136337809       28.4670593158      -59.6480640829  TIP3      15796           0.0000000000
     69639     15988  TIP3      H1             -6.3916627291       28.0630689996      -59.1361599066  TIP3      15796           0.0000000000
     69640     15988  TIP3      H2             -7.0767544656       27.7131668994      -60.2854157057  TIP3      15796           0.0000000000
     69641     15989  TIP3      OH2             0.2360877957       28.8493201028      -48.6446739143  TIP3      15797           0.0000000000
     69642     15989  TIP3      H1             -0.4209114712       29.5729074111      -48.6047064409  TIP3      15797           0.0000000000
     69643     15989  TIP3      H2              0.7312990173       29.0839073845      -49.4504680110  TIP3      15797           0.0000000000
     69644     15990  TIP3      OH2            -3.6915469213       29.6358982982      -55.9977433744  TIP3      15798           0.0000000000
     69645     15990  TIP3      H1             -4.4427576940       29.8809233770      -55.4019039583  TIP3      15798           0.0000000000
     69646     15990  TIP3      H2             -3.2303504510       28.9549935867      -55.4801264109  TIP3      15798           0.0000000000
     69647     15991  TIP3      OH2            -3.7763192503       27.8025954409      -46.8771727325  TIP3      15799           0.0000000000
     69648     15991  TIP3      H1             -3.7703505345       28.6215766491      -46.3553591710  TIP3      15799           0.0000000000
     69649     15991  TIP3      H2             -4.4057842904       28.0941209523      -47.5692243905  TIP3      15799           0.0000000000
     69650     15992  TIP3      OH2           -12.0954597140       30.2950067774      -54.0840782689  TIP3      15800           0.0000000000
     69651     15992  TIP3      H1            -12.4142237850       29.9064866660      -54.9347387689  TIP3      15800           0.0000000000
     69652     15992  TIP3      H2            -11.4792519698       29.6049853746      -53.7517005059  TIP3      15800           0.0000000000
     69653     15993  TIP3      OH2           -10.7697795681       33.6995516834      -51.4188479701  TIP3      15801           0.0000000000
     69654     15993  TIP3      H1            -10.7706500849       33.1539557692      -52.2128506808  TIP3      15801           0.0000000000
     69655     15993  TIP3      H2            -10.0029602094       33.3319566147      -50.9411040027  TIP3      15801           0.0000000000
     69656     15994  TIP3      OH2           -11.7679610024       29.0435627555      -50.4238879476  TIP3      15802           0.0000000000
     69657     15994  TIP3      H1            -11.2169826509       29.1413416569      -51.2253239210  TIP3      15802           0.0000000000
     69658     15994  TIP3      H2            -11.3755696568       29.7067646264      -49.8133426317  TIP3      15802           0.0000000000
     69659     15995  TIP3      OH2            -5.3183915318       34.6115388575      -49.6991962494  TIP3      15803           0.0000000000
     69660     15995  TIP3      H1             -5.6853621951       35.2409129808      -49.0835345244  TIP3      15803           0.0000000000
     69661     15995  TIP3      H2             -5.6110781821       33.7553462852      -49.3015614972  TIP3      15803           0.0000000000
     69662     15996  TIP3      OH2           -10.8147734846       33.4792104183      -45.7252138643  TIP3      15804           0.0000000000
     69663     15996  TIP3      H1            -11.2477705713       34.2224799883      -45.2472581519  TIP3      15804           0.0000000000
     69664     15996  TIP3      H2            -11.4787610368       33.2467358840      -46.4268238749  TIP3      15804           0.0000000000
     69665     15997  TIP3      OH2            -4.7988063942       28.8369523199      -58.3159810722  TIP3      15805           0.0000000000
     69666     15997  TIP3      H1             -4.2446907938       29.0147119193      -57.5285519896  TIP3      15805           0.0000000000
     69667     15997  TIP3      H2             -4.3834848397       29.3219164636      -59.0637096499  TIP3      15805           0.0000000000
     69668     15998  TIP3      OH2           -13.8699274800       29.6343969000      -46.5735532362  TIP3      15806           0.0000000000
     69669     15998  TIP3      H1            -13.8159984762       30.3036053226      -45.8667949293  TIP3      15806           0.0000000000
     69670     15998  TIP3      H2            -14.8125590278       29.7218945474      -46.7851419774  TIP3      15806           0.0000000000
     69671     15999  TIP3      OH2            -7.1272698681       35.5449373397      -54.8851369479  TIP3      15807           0.0000000000
     69672     15999  TIP3      H1             -6.6898129649       35.8340702329      -54.0779741062  TIP3      15807           0.0000000000
     69673     15999  TIP3      H2             -7.6995397793       36.2821098125      -55.1151707108  TIP3      15807           0.0000000000
     69674     16000  TIP3      OH2           -12.5828806853       35.4239292560      -44.9938570899  TIP3      15808           0.0000000000
     69675     16000  TIP3      H1            -12.6568683016       35.3954947202      -45.9708101522  TIP3      15808           0.0000000000
     69676     16000  TIP3      H2            -13.5222094870       35.3577556163      -44.7252942214  TIP3      15808           0.0000000000
     69677     16001  TIP3      OH2            -1.0950968358       20.5725714372      -58.4210000498  TIP3      15809           0.0000000000
     69678     16001  TIP3      H1             -2.0499944620       20.6645621179      -58.1906890443  TIP3      15809           0.0000000000
     69679     16001  TIP3      H2             -0.9099214155       21.3944267884      -58.8887199489  TIP3      15809           0.0000000000
     69680     16002  TIP3      OH2           -13.1258034172       29.3159340887      -56.4540183661  TIP3      15810           0.0000000000
     69681     16002  TIP3      H1            -13.4067356032       30.0991208316      -56.9747032282  TIP3      15810           0.0000000000
     69682     16002  TIP3      H2            -13.7749225357       28.6531312837      -56.7009251932  TIP3      15810           0.0000000000
     69683     16003  TIP3      OH2             0.0481592616       34.8944418369      -60.0882184309  TIP3      15811           0.0000000000
     69684     16003  TIP3      H1              0.1338465942       35.8548064222      -59.9423910175  TIP3      15811           0.0000000000
     69685     16003  TIP3      H2              0.9801115949       34.6191691332      -60.0683651658  TIP3      15811           0.0000000000
     69686     16004  TIP3      OH2           -17.0439256625       31.7556515877      -47.5707342441  TIP3      15812           0.0000000000
     69687     16004  TIP3      H1            -17.4758480930       31.6660420492      -48.4393921746  TIP3      15812           0.0000000000
     69688     16004  TIP3      H2            -16.9544236908       30.8059122266      -47.3553475181  TIP3      15812           0.0000000000
     69689     16005  TIP3      OH2           -17.2409988010       34.4416457144      -50.7547533789  TIP3      15813           0.0000000000
     69690     16005  TIP3      H1            -16.2857823187       34.3957524958      -50.8457203041  TIP3      15813           0.0000000000
     69691     16005  TIP3      H2            -17.3360796803       35.2733278481      -50.2659387478  TIP3      15813           0.0000000000
     69692     16006  TIP3      OH2             0.9419803662       35.1803698651      -45.0377069530  TIP3      15814           0.0000000000
     69693     16006  TIP3      H1              0.8391561574       34.2233139274      -45.1580988209  TIP3      15814           0.0000000000
     69694     16006  TIP3      H2              0.0542405483       35.4437863234      -44.7144179470  TIP3      15814           0.0000000000
     69695     16007  TIP3      OH2            -8.0956081039       34.7463923744      -46.2569874826  TIP3      15815           0.0000000000
     69696     16007  TIP3      H1             -7.9921792459       35.5538055017      -45.7425409614  TIP3      15815           0.0000000000
     69697     16007  TIP3      H2             -8.9365517669       34.3452603152      -45.9696558202  TIP3      15815           0.0000000000
     69698     16008  TIP3      OH2            -1.8884727588       26.6555352153      -44.6367507219  TIP3      15816           0.0000000000
     69699     16008  TIP3      H1             -2.3641627144       27.1066437324      -45.3532524900  TIP3      15816           0.0000000000
     69700     16008  TIP3      H2             -1.9036414484       25.7361475650      -44.9417104303  TIP3      15816           0.0000000000
     69701     16009  TIP3      OH2           -14.7422584738       33.0777460405      -46.6320456209  TIP3      15817           0.0000000000
     69702     16009  TIP3      H1            -14.5332855635       32.6970366796      -45.7544297593  TIP3      15817           0.0000000000
     69703     16009  TIP3      H2            -15.6116519849       32.6866603300      -46.8560271740  TIP3      15817           0.0000000000
     69704     16010  TIP3      OH2           -12.0677675365       21.5390534269      -50.6822975409  TIP3      15818           0.0000000000
     69705     16010  TIP3      H1            -12.9709357147       21.4125803572      -51.0492263592  TIP3      15818           0.0000000000
     69706     16010  TIP3      H2            -12.2021535655       22.3695162948      -50.1964496087  TIP3      15818           0.0000000000
     69707     16011  TIP3      OH2            -7.4234322255       21.2045155867      -47.3216647633  TIP3      15819           0.0000000000
     69708     16011  TIP3      H1             -7.0317288925       20.7822754158      -46.5344812307  TIP3      15819           0.0000000000
     69709     16011  TIP3      H2             -8.3957779694       21.0895148910      -47.1755719506  TIP3      15819           0.0000000000
     69710     16012  TIP3      OH2            -4.1371720551       25.0523825902      -46.4195628486  TIP3      15820           0.0000000000
     69711     16012  TIP3      H1             -4.7018258178       24.8379328879      -45.6380668775  TIP3      15820           0.0000000000
     69712     16012  TIP3      H2             -4.3215453514       25.9796987397      -46.6478379516  TIP3      15820           0.0000000000
     69713     16013  TIP3      OH2            -3.3708477078       29.8913160289      -60.5174375720  TIP3      15821           0.0000000000
     69714     16013  TIP3      H1             -3.4104842710       29.6642757301      -61.4780176253  TIP3      15821           0.0000000000
     69715     16013  TIP3      H2             -2.5028001961       30.3202293149      -60.4821534826  TIP3      15821           0.0000000000
     69716     16014  TIP3      OH2            -7.7317615448       23.4742912102      -59.8741534200  TIP3      15822           0.0000000000
     69717     16014  TIP3      H1             -8.1580537769       23.6557006605      -59.0323498221  TIP3      15822           0.0000000000
     69718     16014  TIP3      H2             -8.1999463112       22.7584174626      -60.2920706206  TIP3      15822           0.0000000000
     69719     16015  TIP3      OH2           -11.9629251047       26.5169181429      -49.4199376999  TIP3      15823           0.0000000000
     69720     16015  TIP3      H1            -12.7049418709       26.5039127470      -48.7899513392  TIP3      15823           0.0000000000
     69721     16015  TIP3      H2            -12.0138977179       27.4224218180      -49.8008662238  TIP3      15823           0.0000000000
     69722     16016  TIP3      OH2           -12.0028018287       26.6286254603      -54.5624832481  TIP3      15824           0.0000000000
     69723     16016  TIP3      H1            -12.9418357425       26.3769949454      -54.6911238470  TIP3      15824           0.0000000000
     69724     16016  TIP3      H2            -11.6300556228       26.3389719660      -55.4183019351  TIP3      15824           0.0000000000
     69725     16017  TIP3      OH2            -6.4785102798       27.1392719709      -55.7896201589  TIP3      15825           0.0000000000
     69726     16017  TIP3      H1             -6.8792998510       27.9586055680      -56.1579676330  TIP3      15825           0.0000000000
     69727     16017  TIP3      H2             -5.8118446219       26.9593775201      -56.4759442444  TIP3      15825           0.0000000000
     69728     16018  TIP3      OH2            -7.4320021241       27.3417694286      -44.3582393734  TIP3      15826           0.0000000000
     69729     16018  TIP3      H1             -7.9574129206       26.5664273213      -44.0469554467  TIP3      15826           0.0000000000
     69730     16018  TIP3      H2             -6.5940890451       27.2211313419      -43.8811489236  TIP3      15826           0.0000000000
     69731     16019  TIP3      OH2            -5.4496489182       26.6253707195      -52.9495664976  TIP3      15827           0.0000000000
     69732     16019  TIP3      H1             -5.7362277379       27.1874391422      -53.6888455316  TIP3      15827           0.0000000000
     69733     16019  TIP3      H2             -5.3580573891       25.7738617303      -53.4173459939  TIP3      15827           0.0000000000
     69734     16020  TIP3      OH2           -14.3456125117       26.7622276123      -47.7500245650  TIP3      15828           0.0000000000
     69735     16020  TIP3      H1            -14.2615034388       27.1700440535      -46.8705767404  TIP3      15828           0.0000000000
     69736     16020  TIP3      H2            -14.7851258658       25.9233774841      -47.5388187867  TIP3      15828           0.0000000000
     69737     16021  TIP3      OH2           -10.9852091368       24.1362275935      -60.9056084336  TIP3      15829           0.0000000000
     69738     16021  TIP3      H1            -11.4057864867       23.7266952241      -60.1228002686  TIP3      15829           0.0000000000
     69739     16021  TIP3      H2            -11.6966195626       24.5576597530      -61.3834914092  TIP3      15829           0.0000000000
     69740     16022  TIP3      OH2           -17.6862671037       23.8718466089      -53.7597815493  TIP3      15830           0.0000000000
     69741     16022  TIP3      H1            -17.0019348624       23.8322324625      -53.0592904678  TIP3      15830           0.0000000000
     69742     16022  TIP3      H2            -17.2386108294       23.4976502548      -54.5406256582  TIP3      15830           0.0000000000
     69743     16023  TIP3      OH2           -16.4334101930       24.5866668175      -58.4358274353  TIP3      15831           0.0000000000
     69744     16023  TIP3      H1            -15.9041697705       25.2070626390      -58.9519419019  TIP3      15831           0.0000000000
     69745     16023  TIP3      H2            -17.1134334661       25.2023125269      -58.0808854257  TIP3      15831           0.0000000000
     69746     16024  TIP3      OH2            -6.2559742229       28.2057442958      -48.3958556938  TIP3      15832           0.0000000000
     69747     16024  TIP3      H1             -5.8748920990       27.5195041126      -48.9803981977  TIP3      15832           0.0000000000
     69748     16024  TIP3      H2             -6.7224832340       27.6781148517      -47.7230798506  TIP3      15832           0.0000000000
     69749     16025  TIP3      OH2            -9.4486008987       24.1883966047      -53.5586573284  TIP3      15833           0.0000000000
     69750     16025  TIP3      H1            -10.3825147778       24.1872462090      -53.2692961214  TIP3      15833           0.0000000000
     69751     16025  TIP3      H2             -8.9691593202       24.0127396582      -52.7356469951  TIP3      15833           0.0000000000
     69752     16026  TIP3      OH2           -14.6405454620       25.7306604154      -54.6918361728  TIP3      15834           0.0000000000
     69753     16026  TIP3      H1            -15.5254400088       25.8880024528      -55.0809632210  TIP3      15834           0.0000000000
     69754     16026  TIP3      H2            -14.3478649464       24.8991117775      -55.1044899606  TIP3      15834           0.0000000000
     69755     16027  TIP3      OH2           -11.0059861321       25.7900528865      -57.0608208698  TIP3      15835           0.0000000000
     69756     16027  TIP3      H1            -10.0450583484       25.8844002352      -56.9052212553  TIP3      15835           0.0000000000
     69757     16027  TIP3      H2            -11.2207590676       26.4613687884      -57.7316231331  TIP3      15835           0.0000000000
     69758     16028  TIP3      OH2            -5.0455799621       23.4205869733      -50.3209013376  TIP3      15836           0.0000000000
     69759     16028  TIP3      H1             -5.7292439815       23.4674958361      -49.6142586905  TIP3      15836           0.0000000000
     69760     16028  TIP3      H2             -5.5561691738       23.1631704688      -51.1024302987  TIP3      15836           0.0000000000
     69761     16029  TIP3      OH2           -12.3297598165       26.9854196777      -59.4961406792  TIP3      15837           0.0000000000
     69762     16029  TIP3      H1            -12.8161072208       26.5423024995      -60.1978576241  TIP3      15837           0.0000000000
     69763     16029  TIP3      H2            -11.4683527563       27.1572218930      -59.9253561186  TIP3      15837           0.0000000000
     69764     16030  TIP3      OH2           -14.1686976029       31.5686426556      -44.4272348214  TIP3      15838           0.0000000000
     69765     16030  TIP3      H1            -13.4475662453       31.7748891180      -43.8095968763  TIP3      15838           0.0000000000
     69766     16030  TIP3      H2            -14.9427635475       31.5981362989      -43.8211759175  TIP3      15838           0.0000000000
     69767     16031  TIP3      OH2            -8.1710774215       26.9400319167      -51.6661149051  TIP3      15839           0.0000000000
     69768     16031  TIP3      H1             -7.5699515954       26.4076245595      -52.2001293809  TIP3      15839           0.0000000000
     69769     16031  TIP3      H2             -8.3144832159       26.3907781078      -50.8836114076  TIP3      15839           0.0000000000
     69770     16032  TIP3      OH2           -13.1600587277       23.0854045484      -55.2300930398  TIP3      15840           0.0000000000
     69771     16032  TIP3      H1            -13.4687520764       22.1611282242      -55.2365739194  TIP3      15840           0.0000000000
     69772     16032  TIP3      H2            -12.3683314981       23.0174696092      -55.7779073850  TIP3      15840           0.0000000000
     69773     16033  TIP3      OH2            -9.5308047517       25.2658235198      -49.2522410879  TIP3      15841           0.0000000000
     69774     16033  TIP3      H1            -10.3555489344       25.7860336084      -49.1636999293  TIP3      15841           0.0000000000
     69775     16033  TIP3      H2             -8.9760233285       25.6194543933      -48.5300202568  TIP3      15841           0.0000000000
     69776     16034  TIP3      OH2            -8.9458129330       31.4815463330      -57.5451763139  TIP3      15842           0.0000000000
     69777     16034  TIP3      H1             -9.7421353537       31.0152525767      -57.8822691682  TIP3      15842           0.0000000000
     69778     16034  TIP3      H2             -9.1676579535       31.6057119565      -56.6015343343  TIP3      15842           0.0000000000
     69779     16035  TIP3      OH2            -1.7512853513       30.6897699252      -48.7497036767  TIP3      15843           0.0000000000
     69780     16035  TIP3      H1             -1.1918443934       31.1866641382      -49.3760017933  TIP3      15843           0.0000000000
     69781     16035  TIP3      H2             -2.6126175657       30.7382607135      -49.2131458813  TIP3      15843           0.0000000000
     69782     16036  TIP3      OH2            -5.0854094083       24.2691825671      -59.2961009919  TIP3      15844           0.0000000000
     69783     16036  TIP3      H1             -6.0192361634       24.4629188727      -59.5822371896  TIP3      15844           0.0000000000
     69784     16036  TIP3      H2             -4.8049713921       25.1649214444      -59.0447881283  TIP3      15844           0.0000000000
     69785     16037  TIP3      OH2            -7.4768991153       31.7794942053      -46.3215965082  TIP3      15845           0.0000000000
     69786     16037  TIP3      H1             -7.8020544031       31.3400916087      -45.5281655314  TIP3      15845           0.0000000000
     69787     16037  TIP3      H2             -7.6980877025       32.7043988399      -46.1957187951  TIP3      15845           0.0000000000
     69788     16038  TIP3      OH2            -4.3625862894       26.2295190038      -57.7423468779  TIP3      15846           0.0000000000
     69789     16038  TIP3      H1             -3.4874229202       26.1083866004      -57.3349713564  TIP3      15846           0.0000000000
     69790     16038  TIP3      H2             -4.3044395247       27.0461003774      -58.2644084131  TIP3      15846           0.0000000000
     69791     16039  TIP3      OH2           -13.8365561170       30.8823343572      -51.7543391119  TIP3      15847           0.0000000000
     69792     16039  TIP3      H1            -13.1496898756       30.8120976402      -52.4483241569  TIP3      15847           0.0000000000
     69793     16039  TIP3      H2            -13.7713344245       30.0239758881      -51.2987002779  TIP3      15847           0.0000000000
     69794     16040  TIP3      OH2            -6.8510843547       32.9317462969      -58.5349626734  TIP3      15848           0.0000000000
     69795     16040  TIP3      H1             -7.1738241013       33.7868245357      -58.1928268273  TIP3      15848           0.0000000000
     69796     16040  TIP3      H2             -7.5812955560       32.3283503536      -58.2890445850  TIP3      15848           0.0000000000
     69797     16041  TIP3      OH2           -16.8418893301       29.2870293091      -46.4944886646  TIP3      15849           0.0000000000
     69798     16041  TIP3      H1            -16.6732432271       28.8443816058      -45.6416435267  TIP3      15849           0.0000000000
     69799     16041  TIP3      H2            -17.4634846729       28.6783920735      -46.9322717933  TIP3      15849           0.0000000000
     69800     16042  TIP3      OH2            -9.8306976041       28.8489560515      -44.3178722120  TIP3      15850           0.0000000000
     69801     16042  TIP3      H1            -10.1504983445       28.5361783687      -45.1766579357  TIP3      15850           0.0000000000
     69802     16042  TIP3      H2             -8.9080089697       28.5237887465      -44.3185868919  TIP3      15850           0.0000000000
     69803     16043  TIP3      OH2            -5.1598008537       34.2478666485      -46.4374436975  TIP3      15851           0.0000000000
     69804     16043  TIP3      H1             -6.1010561821       34.3155601347      -46.6127076805  TIP3      15851           0.0000000000
     69805     16043  TIP3      H2             -5.1823494153       34.4256572338      -45.4644807576  TIP3      15851           0.0000000000
     69806     16044  TIP3      OH2             0.5415846795       26.4046981843      -57.9888111811  TIP3      15852           0.0000000000
     69807     16044  TIP3      H1             -0.1724643030       26.3581463464      -58.6227315605  TIP3      15852           0.0000000000
     69808     16044  TIP3      H2              0.6824086371       27.3716142750      -58.1531039789  TIP3      15852           0.0000000000
     69809     16045  TIP3      OH2             0.5338069626       32.2060649649      -45.1770886111  TIP3      15853           0.0000000000
     69810     16045  TIP3      H1             -0.3672563885       32.4405903536      -45.5099568203  TIP3      15853           0.0000000000
     69811     16045  TIP3      H2              1.0583507755       32.1569816131      -46.0013997801  TIP3      15853           0.0000000000
     69812     16046  TIP3      OH2            -1.1012130800       34.9742941912      -57.3669499723  TIP3      15854           0.0000000000
     69813     16046  TIP3      H1             -1.5909852324       34.1769027233      -57.2396066963  TIP3      15854           0.0000000000
     69814     16046  TIP3      H2             -0.9252766238       35.0150221660      -58.3256606753  TIP3      15854           0.0000000000
     69815     16047  TIP3      OH2            -3.9768849567       30.0051544991      -50.4641128321  TIP3      15855           0.0000000000
     69816     16047  TIP3      H1             -4.9177373445       29.8000200648      -50.5812946036  TIP3      15855           0.0000000000
     69817     16047  TIP3      H2             -3.5458283563       29.2497706881      -50.9053477999  TIP3      15855           0.0000000000
     69818     16048  TIP3      OH2           -11.4188804228       34.3032957868      -54.4611396118  TIP3      15856           0.0000000000
     69819     16048  TIP3      H1            -10.9587326939       35.1469763800      -54.5382458386  TIP3      15856           0.0000000000
     69820     16048  TIP3      H2            -12.3338938276       34.5384195910      -54.6554625980  TIP3      15856           0.0000000000
     69821     16049  TIP3      OH2           -15.6881996183       29.1713992128      -59.8183567468  TIP3      15857           0.0000000000
     69822     16049  TIP3      H1            -15.1172671212       29.8263823007      -59.3728742400  TIP3      15857           0.0000000000
     69823     16049  TIP3      H2            -16.5786588897       29.4875094466      -59.5472358687  TIP3      15857           0.0000000000
     69824     16050  TIP3      OH2           -10.0228792578       31.9928314523      -54.8517303335  TIP3      15858           0.0000000000
     69825     16050  TIP3      H1            -10.3412890719       32.9134730981      -54.7624380198  TIP3      15858           0.0000000000
     69826     16050  TIP3      H2            -10.7526359916       31.5114646602      -54.4125140617  TIP3      15858           0.0000000000
     69827     16051  TIP3      OH2            -9.2830288016       35.8674333090      -48.7579981446  TIP3      15859           0.0000000000
     69828     16051  TIP3      H1             -9.1414370701       36.8196813424      -48.8279614744  TIP3      15859           0.0000000000
     69829     16051  TIP3      H2             -8.9769905942       35.7151046356      -47.8519815146  TIP3      15859           0.0000000000
     69830     16052  TIP3      OH2            -6.0661960594       32.1891854180      -48.8200562964  TIP3      15860           0.0000000000
     69831     16052  TIP3      H1             -6.4084008363       31.9701795679      -47.9307127206  TIP3      15860           0.0000000000
     69832     16052  TIP3      H2             -5.4331911466       31.4765369320      -48.9936539998  TIP3      15860           0.0000000000
     69833     16053  TIP3      OH2            -3.7186789179       33.2636147127      -59.7404910642  TIP3      15861           0.0000000000
     69834     16053  TIP3      H1             -3.4406307724       32.7921683633      -58.9261909988  TIP3      15861           0.0000000000
     69835     16053  TIP3      H2             -4.6746260819       33.1045758927      -59.6551770545  TIP3      15861           0.0000000000
     69836     16054  TIP3      OH2           -15.1913839114       24.0219829783      -46.9463829133  TIP3      15862           0.0000000000
     69837     16054  TIP3      H1            -16.0979196643       24.3741660879      -46.9647668248  TIP3      15862           0.0000000000
     69838     16054  TIP3      H2            -15.3035256146       23.1772188757      -46.4820725599  TIP3      15862           0.0000000000
     69839     16055  TIP3      OH2            -2.9573986956       31.8561837471      -57.4940519317  TIP3      15863           0.0000000000
     69840     16055  TIP3      H1             -3.1915649988       31.1003472651      -56.9185037030  TIP3      15863           0.0000000000
     69841     16055  TIP3      H2             -2.0113223168       31.9544869724      -57.3083065079  TIP3      15863           0.0000000000
     69842     16056  TIP3      OH2           -15.5784259854       35.7718191085      -48.5240321071  TIP3      15864           0.0000000000
     69843     16056  TIP3      H1            -15.2877276207       34.8581489356      -48.4788660073  TIP3      15864           0.0000000000
     69844     16056  TIP3      H2            -15.3780440870       36.1161188200      -47.6450251365  TIP3      15864           0.0000000000
     69845     16057  TIP3      OH2            -9.5965204519       34.3135346726      -61.2551438794  TIP3      15865           0.0000000000
     69846     16057  TIP3      H1             -9.5152611022       33.5399253310      -61.8334697974  TIP3      15865           0.0000000000
     69847     16057  TIP3      H2            -10.0320712498       33.8973010507      -60.4772584533  TIP3      15865           0.0000000000
     69848     16058  TIP3      OH2           -10.8498230497       33.8179472682      -58.7977862280  TIP3      15866           0.0000000000
     69849     16058  TIP3      H1            -10.5729503844       33.3285558855      -58.0120329375  TIP3      15866           0.0000000000
     69850     16058  TIP3      H2            -10.7293997699       34.7540057722      -58.5243397169  TIP3      15866           0.0000000000
     69851     16059  TIP3      OH2           -14.2924303338       31.1125295324      -58.2996012169  TIP3      15867           0.0000000000
     69852     16059  TIP3      H1            -15.0054765441       31.5140964130      -57.7626834601  TIP3      15867           0.0000000000
     69853     16059  TIP3      H2            -13.7878828743       31.8938504900      -58.5963065515  TIP3      15867           0.0000000000
     69854     16060  TIP3      OH2            -6.4605956872       23.7956534887      -47.9795746279  TIP3      15868           0.0000000000
     69855     16060  TIP3      H1             -5.7448556778       23.8558573193      -47.3377743857  TIP3      15868           0.0000000000
     69856     16060  TIP3      H2             -6.8436798239       22.9191206673      -47.7762969139  TIP3      15868           0.0000000000
     69857     16061  TIP3      OH2            -5.7244642266       23.3459343910      -56.8764561312  TIP3      15869           0.0000000000
     69858     16061  TIP3      H1             -5.5271584594       23.8221783754      -57.7187715087  TIP3      15869           0.0000000000
     69859     16061  TIP3      H2             -5.1513271338       23.7968241751      -56.2466713647  TIP3      15869           0.0000000000
     69860     16062  TIP3      OH2            -7.9592053948       35.5890822718      -58.0404497758  TIP3      15870           0.0000000000
     69861     16062  TIP3      H1             -8.8320278661       36.0257861789      -58.0214417675  TIP3      15870           0.0000000000
     69862     16062  TIP3      H2             -7.5257623061       36.0513469151      -58.7707246119  TIP3      15870           0.0000000000
     69863     16063  TIP3      OH2            -8.4960033875       25.1117265860      -56.0560453575  TIP3      15871           0.0000000000
     69864     16063  TIP3      H1             -7.7099671335       25.6942891529      -56.0453132631  TIP3      15871           0.0000000000
     69865     16063  TIP3      H2             -8.7456131836       24.9969432673      -55.1214765941  TIP3      15871           0.0000000000
     69866     16064  TIP3      OH2            -7.9330525048       26.1412061598      -46.8838153802  TIP3      15872           0.0000000000
     69867     16064  TIP3      H1             -7.8580721920       26.7004535174      -46.0853420652  TIP3      15872           0.0000000000
     69868     16064  TIP3      H2             -7.2695598378       25.4469414822      -46.7883354138  TIP3      15872           0.0000000000
     69869     16065  TIP3      OH2            -7.6404475666       22.1719035785      -55.1961030987  TIP3      15873           0.0000000000
     69870     16065  TIP3      H1             -7.9606634336       22.8207872640      -54.5455809351  TIP3      15873           0.0000000000
     69871     16065  TIP3      H2             -6.9426760311       22.7166744602      -55.6364454891  TIP3      15873           0.0000000000
     69872     16066  TIP3      OH2           -10.5734694967      -36.4695977853      -58.0339947369  TIP3      15874           0.0000000000
     69873     16066  TIP3      H1            -10.5487813449      -35.6814193940      -58.6095997522  TIP3      15874           0.0000000000
     69874     16066  TIP3      H2            -10.8717049448      -36.0989145726      -57.1882652272  TIP3      15874           0.0000000000
     69875     16067  TIP3      OH2           -11.9741148728       23.2802249536      -58.4828871208  TIP3      15875           0.0000000000
     69876     16067  TIP3      H1            -12.0312209006       24.1757738537      -58.0949076484  TIP3      15875           0.0000000000
     69877     16067  TIP3      H2            -11.0561809360       23.0464987740      -58.2292134035  TIP3      15875           0.0000000000
     69878     16068  TIP3      OH2            -1.7559781442       24.0090911159      -46.0394082465  TIP3      15876           0.0000000000
     69879     16068  TIP3      H1             -2.6827268355       24.3266123758      -46.1680168955  TIP3      15876           0.0000000000
     69880     16068  TIP3      H2             -1.4543412824       23.9968964048      -46.9631743206  TIP3      15876           0.0000000000
     69881     16069  TIP3      OH2            -3.1371702249       27.7947136126      -52.0391309890  TIP3      15877           0.0000000000
     69882     16069  TIP3      H1             -3.9655221465       27.3501938190      -52.3002275430  TIP3      15877           0.0000000000
     69883     16069  TIP3      H2             -2.6608658230       27.1128520841      -51.5129464293  TIP3      15877           0.0000000000
     69884     16070  TIP3      OH2           -13.7275134609       33.7196718941      -59.4413088776  TIP3      15878           0.0000000000
     69885     16070  TIP3      H1            -13.0545199127       34.3588758710      -59.1659139975  TIP3      15878           0.0000000000
     69886     16070  TIP3      H2            -13.2179129010       33.2502584797      -60.1263736786  TIP3      15878           0.0000000000
     69887     16071  TIP3      OH2           -15.4010679316       26.4429615649      -60.5124956429  TIP3      15879           0.0000000000
     69888     16071  TIP3      H1            -15.3856801519       27.3191616933      -60.0413813671  TIP3      15879           0.0000000000
     69889     16071  TIP3      H2            -16.3337221961       26.2027052673      -60.4989305630  TIP3      15879           0.0000000000
     69890     16072  TIP3      OH2           -14.5857811295       21.1795800328      -51.5511924906  TIP3      15880           0.0000000000
     69891     16072  TIP3      H1            -14.7790778995       21.1972980017      -52.5146891328  TIP3      15880           0.0000000000
     69892     16072  TIP3      H2            -14.9993312572       20.3263900895      -51.3012786299  TIP3      15880           0.0000000000
     69893     16073  TIP3      OH2           -15.6210192735       35.1051735825      -55.4362370679  TIP3      15881           0.0000000000
     69894     16073  TIP3      H1            -16.4892591315       35.5289439212      -55.4432741498  TIP3      15881           0.0000000000
     69895     16073  TIP3      H2            -15.1281741767       35.5908830621      -56.1034529056  TIP3      15881           0.0000000000
     69896     16074  TIP3      OH2           -11.4570365519       36.3514827044      -42.2994794205  TIP3      15882           0.0000000000
     69897     16074  TIP3      H1            -10.6030165413       35.9488049737      -42.1281283144  TIP3      15882           0.0000000000
     69898     16074  TIP3      H2            -11.5347291264       36.2103690710      -43.2598997093  TIP3      15882           0.0000000000
     69899     16075  TIP3      OH2            -7.5892926464       36.1185104730      -61.0063329500  TIP3      15883           0.0000000000
     69900     16075  TIP3      H1             -8.3344423718       35.4923366015      -60.9392792271  TIP3      15883           0.0000000000
     69901     16075  TIP3      H2             -6.8862725465       35.5859471591      -61.3848025343  TIP3      15883           0.0000000000
     69902     16076  TIP3      OH2            -5.1497184784       34.6746514523      -43.9148328533  TIP3      15884           0.0000000000
     69903     16076  TIP3      H1             -5.6285924564       34.0011124336      -43.4015117234  TIP3      15884           0.0000000000
     69904     16076  TIP3      H2             -4.5424314940       35.0454111914      -43.2586565289  TIP3      15884           0.0000000000
     69905     16077  TIP3      OH2            -2.8871243479       35.9060604029      -60.7511162224  TIP3      15885           0.0000000000
     69906     16077  TIP3      H1             -2.6422851613       35.0418049998      -60.4000655356  TIP3      15885           0.0000000000
     69907     16077  TIP3      H2             -2.1915182318       36.0973492862      -61.4117416658  TIP3      15885           0.0000000000
     69908     16078  TIP3      OH2           -16.5003253547       31.5124781438      -43.1390457112  TIP3      15886           0.0000000000
     69909     16078  TIP3      H1            -16.3540307449       30.6001944087      -43.4407916631  TIP3      15886           0.0000000000
     69910     16078  TIP3      H2            -17.2447810485       31.7989097539      -43.6998288769  TIP3      15886           0.0000000000
     69911     16079  TIP3      OH2           -12.1618453452       31.8470462105      -61.1154342391  TIP3      15887           0.0000000000
     69912     16079  TIP3      H1            -12.0080646294       31.1045909832      -60.5079786091  TIP3      15887           0.0000000000
     69913     16079  TIP3      H2            -11.3982108586       31.7314656424      -61.7161137580  TIP3      15887           0.0000000000
     69914     16080  TIP3      OH2            -9.7777263432       31.5123121394      -43.7554800081  TIP3      15888           0.0000000000
     69915     16080  TIP3      H1            -10.1409963309       31.8134733401      -44.6096351548  TIP3      15888           0.0000000000
     69916     16080  TIP3      H2             -9.7236352437       30.5279074980      -43.8510727055  TIP3      15888           0.0000000000
     69917     16081  TIP3      OH2            -6.7232298914       32.9837737182      -61.3388201153  TIP3      15889           0.0000000000
     69918     16081  TIP3      H1             -7.0207402086       33.0768505713      -60.4187758316  TIP3      15889           0.0000000000
     69919     16081  TIP3      H2             -6.9200977116       32.0302176390      -61.4766134728  TIP3      15889           0.0000000000
     69920     16082  TIP3      OH2            -4.0975587369       31.3755671721      -46.3509977034  TIP3      15890           0.0000000000
     69921     16082  TIP3      H1             -3.3120941299       31.9574050019      -46.4231016383  TIP3      15890           0.0000000000
     69922     16082  TIP3      H2             -4.8010902331       32.0375846358      -46.3088160394  TIP3      15890           0.0000000000
     69923     16083  TIP3      OH2           -15.5867549130       28.7627675055      -43.7479277581  TIP3      15891           0.0000000000
     69924     16083  TIP3      H1            -15.1786937200       27.8947873272      -43.8412715601  TIP3      15891           0.0000000000
     69925     16083  TIP3      H2            -15.8277456274       28.7591071325      -42.8073232641  TIP3      15891           0.0000000000
     69926     16084  TIP3      OH2           -10.9595740039       29.8857295367      -58.6790148325  TIP3      15892           0.0000000000
     69927     16084  TIP3      H1            -11.4643916987       29.3478594095      -58.0511365055  TIP3      15892           0.0000000000
     69928     16084  TIP3      H2            -10.6420801400       29.2119271977      -59.3301018583  TIP3      15892           0.0000000000
     69929     16085  TIP3      OH2           -11.6968446355       27.6954963414      -46.3945796377  TIP3      15893           0.0000000000
     69930     16085  TIP3      H1            -12.2932914753       28.4167509849      -46.1372446363  TIP3      15893           0.0000000000
     69931     16085  TIP3      H2            -11.2983094423       28.0628687374      -47.2020639846  TIP3      15893           0.0000000000
     69932     16086  TIP3      OH2            -9.9285576666       28.1356532130      -60.4941531317  TIP3      15894           0.0000000000
     69933     16086  TIP3      H1            -10.0067495954       28.0057201434      -61.4573329890  TIP3      15894           0.0000000000
     69934     16086  TIP3      H2             -8.9503932769       28.1408260138      -60.3914698671  TIP3      15894           0.0000000000
     69935     16087  TIP3      OH2            -6.6230762139       30.2625192059      -43.0584476474  TIP3      15895           0.0000000000
     69936     16087  TIP3      H1             -5.6649062385       30.2513349951      -43.1818456190  TIP3      15895           0.0000000000
     69937     16087  TIP3      H2             -6.7933431313       29.4951255961      -42.4873499070  TIP3      15895           0.0000000000
     69938     16088  TIP3      OH2            -0.5554118134       30.4135157099      -61.0675788821  TIP3      15896           0.0000000000
     69939     16088  TIP3      H1             -0.7505146265       30.0598811325      -61.9501204646  TIP3      15896           0.0000000000
     69940     16088  TIP3      H2             -0.4756623168       31.3806201759      -61.2465978052  TIP3      15896           0.0000000000
     69941     16089  TIP3      OH2           -11.2889876047       25.0756648246      -45.3469934634  TIP3      15897           0.0000000000
     69942     16089  TIP3      H1            -11.1722675717       24.3641348342      -46.0025260538  TIP3      15897           0.0000000000
     69943     16089  TIP3      H2            -11.3334780285       25.8865048723      -45.8939490874  TIP3      15897           0.0000000000
     69944     16090  TIP3      OH2           -10.8850598922       23.4549428070      -47.7828251471  TIP3      15898           0.0000000000
     69945     16090  TIP3      H1            -10.3767755676       23.9196722102      -48.4899314495  TIP3      15898           0.0000000000
     69946     16090  TIP3      H2            -11.7786224996       23.3764357971      -48.1888021931  TIP3      15898           0.0000000000
     69947     16091  TIP3      OH2            -9.3458641158       28.9436405837      -47.5396404340  TIP3      15899           0.0000000000
     69948     16091  TIP3      H1             -8.5923310542       28.7774815871      -48.1142895025  TIP3      15899           0.0000000000
     69949     16091  TIP3      H2             -9.7126422506       29.7764263537      -47.8775376450  TIP3      15899           0.0000000000
     69950     16092  TIP3      OH2            -4.9523933172       26.6950976450      -42.5804758727  TIP3      15900           0.0000000000
     69951     16092  TIP3      H1             -4.7157885113       25.7602277607      -42.6704067999  TIP3      15900           0.0000000000
     69952     16092  TIP3      H2             -4.0872049940       27.1387752243      -42.5462561864  TIP3      15900           0.0000000000
     69953     16093  TIP3      OH2            -3.6098987461       29.4919047864      -44.4129302821  TIP3      15901           0.0000000000
     69954     16093  TIP3      H1             -3.8637621532       30.2131957393      -45.0288991449  TIP3      15901           0.0000000000
     69955     16093  TIP3      H2             -2.6541053228       29.4729672361      -44.5985300656  TIP3      15901           0.0000000000
     69956     16094  TIP3      OH2           -12.8269300904       26.3244387595      -43.4182967256  TIP3      15902           0.0000000000
     69957     16094  TIP3      H1            -13.5966589627       25.7449457794      -43.5844602374  TIP3      15902           0.0000000000
     69958     16094  TIP3      H2            -12.1736142308       25.9537169647      -44.0384620267  TIP3      15902           0.0000000000
     69959     16095  TIP3      OH2           -10.0928427944       20.8934248857      -47.4037018007  TIP3      15903           0.0000000000
     69960     16095  TIP3      H1            -10.2807501646       21.8559915844      -47.4931819860  TIP3      15903           0.0000000000
     69961     16095  TIP3      H2            -10.8461073632       20.5256234963      -47.8977888909  TIP3      15903           0.0000000000
     69962     16096  TIP3      OH2            -8.8253560692       25.2211883784      -43.7659725672  TIP3      15904           0.0000000000
     69963     16096  TIP3      H1             -9.1417619346       24.9873367364      -42.8710638855  TIP3      15904           0.0000000000
     69964     16096  TIP3      H2             -9.6074812259       25.0175849778      -44.3076278357  TIP3      15904           0.0000000000
     69965     16097  TIP3      OH2            -6.1047948825       24.3654417443      -44.6753880920  TIP3      15905           0.0000000000
     69966     16097  TIP3      H1             -7.0699578131       24.4178710240      -44.5675804952  TIP3      15905           0.0000000000
     69967     16097  TIP3      H2             -5.8410177891       23.7236879933      -43.9881968855  TIP3      15905           0.0000000000
     69968     16098  TIP3      OH2            -4.5236086880       22.9829586256      -42.7770562565  TIP3      15906           0.0000000000
     69969     16098  TIP3      H1             -4.5740883848       22.0049884887      -42.7458363047  TIP3      15906           0.0000000000
     69970     16098  TIP3      H2             -4.7718297372       23.2759282052      -41.8778820554  TIP3      15906           0.0000000000
     69971     16099  TIP3      OH2           -14.7476098093       24.2623674782      -43.6630421403  TIP3      15907           0.0000000000
     69972     16099  TIP3      H1            -14.5030013549       23.5247403293      -44.2470876023  TIP3      15907           0.0000000000
     69973     16099  TIP3      H2            -14.8374135035       23.8132977727      -42.7976899136  TIP3      15907           0.0000000000
     69974     16100  TIP3      OH2            -9.8820681781       20.2854149576      -44.6950970827  TIP3      15908           0.0000000000
     69975     16100  TIP3      H1             -9.2028579512       19.5815863772      -44.7107416591  TIP3      15908           0.0000000000
     69976     16100  TIP3      H2             -9.9966173655       20.4270912796      -45.6550514861  TIP3      15908           0.0000000000
     69977     16101  TIP3      OH2            -9.5200316546       21.8982686112      -42.5779768358  TIP3      15909           0.0000000000
     69978     16101  TIP3      H1             -9.6936776515       21.3920208236      -43.4103470218  TIP3      15909           0.0000000000
     69979     16101  TIP3      H2            -10.1199221656       22.6627227623      -42.6786521125  TIP3      15909           0.0000000000
     69980     16102  TIP3      OH2           -16.4721400220       33.3871607123      -59.9648449977  TIP3      15910           0.0000000000
     69981     16102  TIP3      H1            -15.5219399879       33.4873516919      -59.7361413836  TIP3      15910           0.0000000000
     69982     16102  TIP3      H2            -16.4180017145       32.7125886571      -60.6783049118  TIP3      15910           0.0000000000
     69983     16103  TIP3      OH2            -1.3434167633       33.0221595764      -42.5593379397  TIP3      15911           0.0000000000
     69984     16103  TIP3      H1             -2.2386202854       32.9757071957      -42.1688446668  TIP3      15911           0.0000000000
     69985     16103  TIP3      H2             -0.9494703003       33.8090575090      -42.1144361601  TIP3      15911           0.0000000000
     69986     16104  TIP3      OH2            -0.0158616277       31.3171790872      -57.1280939835  TIP3      15912           0.0000000000
     69987     16104  TIP3      H1              0.8240745357       31.7533049642      -56.9131394198  TIP3      15912           0.0000000000
     69988     16104  TIP3      H2             -0.0373761779       30.6179948492      -56.4408948618  TIP3      15912           0.0000000000
     69989     16105  TIP3      OH2             0.3380690787       29.4213409298      -55.2213856256  TIP3      15913           0.0000000000
     69990     16105  TIP3      H1             -0.4128933177       28.9186554419      -54.8325131874  TIP3      15913           0.0000000000
     69991     16105  TIP3      H2              0.9376016366       29.5501203833      -54.4595645484  TIP3      15913           0.0000000000
     69992     16106  TIP3      OH2             0.1068853997       32.1052672376      -50.2059924202  TIP3      15914           0.0000000000
     69993     16106  TIP3      H1              0.9059681783       31.7417537117      -50.6228675216  TIP3      15914           0.0000000000
     69994     16106  TIP3      H2              0.2163345776       33.0568246139      -50.3881912547  TIP3      15914           0.0000000000
     69995     16107  TIP3      OH2            -1.4112285812       34.9976607297      -47.9227024463  TIP3      15915           0.0000000000
     69996     16107  TIP3      H1             -2.1070285410       35.3800891525      -47.3884540822  TIP3      15915           0.0000000000
     69997     16107  TIP3      H2             -1.9119993591       34.6420525676      -48.6939618323  TIP3      15915           0.0000000000
     69998     16108  TIP3      OH2             0.6062808884       29.2092839341      -58.8289758902  TIP3      15916           0.0000000000
     69999     16108  TIP3      H1              0.0658244748       29.6043373355      -59.5542354960  TIP3      15916           0.0000000000
     70000     16108  TIP3      H2              0.5567260574       29.9488857375      -58.1848877720  TIP3      15916           0.0000000000
     70001     16109  TIP3      OH2            -1.0061154689       26.5089550113      -60.3879649729  TIP3      15917           0.0000000000
     70002     16109  TIP3      H1             -0.9463884521       27.2231321635      -61.0439370916  TIP3      15917           0.0000000000
     70003     16109  TIP3      H2             -1.3224526695       25.7603107404      -60.9457067136  TIP3      15917           0.0000000000
     70004     16110  TIP3      OH2            -1.8345518598       27.8795262011      -54.6765549356  TIP3      15918           0.0000000000
     70005     16110  TIP3      H1             -2.0009322983       26.9338331862      -54.6763372456  TIP3      15918           0.0000000000
     70006     16110  TIP3      H2             -2.1748319075       28.1225820909      -53.7940995365  TIP3      15918           0.0000000000
     70007     16111  TIP3      OH2           -16.8367529772       29.9861289067      -50.5985480903  TIP3      15919           0.0000000000
     70008     16111  TIP3      H1            -16.6608875707       29.8992593143      -51.5619219543  TIP3      15919           0.0000000000
     70009     16111  TIP3      H2            -15.9437851455       29.8063357501      -50.2455026106  TIP3      15919           0.0000000000
     70010     16112  TIP3      OH2            -0.9834601490       29.8649950347      -44.9689969237  TIP3      15920           0.0000000000
     70011     16112  TIP3      H1             -0.3728575681       29.1085673838      -44.8357500975  TIP3      15920           0.0000000000
     70012     16112  TIP3      H2             -0.3778121928       30.6367072123      -44.9640136062  TIP3      15920           0.0000000000
     70013     16113  TIP3      OH2             0.5197998658       27.7438608948      -44.3182526301  TIP3      15921           0.0000000000
     70014     16113  TIP3      H1             -0.3636528137       27.3456614754      -44.4730733444  TIP3      15921           0.0000000000
     70015     16113  TIP3      H2              1.0890359206       26.9604460971      -44.3951576681  TIP3      15921           0.0000000000
     70016     16114  TIP3      OH2            -1.7168965912       23.9893116489      -61.0598564792  TIP3      15922           0.0000000000
     70017     16114  TIP3      H1             -1.1889704858       23.3275158928      -60.6030230652  TIP3      15922           0.0000000000
     70018     16114  TIP3      H2             -2.6190139380       23.5789400003      -61.0848110570  TIP3      15922           0.0000000000
     70019     16115  TIP3      OH2            -2.1957580506       25.4577331188      -56.3240862963  TIP3      15923           0.0000000000
     70020     16115  TIP3      H1             -1.8909621744       24.5620105923      -56.0493416114  TIP3      15923           0.0000000000
     70021     16115  TIP3      H2             -1.3618612854       25.9038805125      -56.4857101370  TIP3      15923           0.0000000000
     70022     16116  TIP3      OH2            -1.5369169980       26.0252223726      -50.7572006827  TIP3      15924           0.0000000000
     70023     16116  TIP3      H1             -0.5763820218       26.2544235039      -50.7700913750  TIP3      15924           0.0000000000
     70024     16116  TIP3      H2             -1.7242642094       26.1641213256      -49.8172561676  TIP3      15924           0.0000000000
     70025     16117  TIP3      OH2            -1.4676603340       26.7450562151      -47.9681327430  TIP3      15925           0.0000000000
     70026     16117  TIP3      H1             -2.3535319624       27.0341720063      -47.6600975865  TIP3      15925           0.0000000000
     70027     16117  TIP3      H2             -1.0361266145       27.6049168818      -48.1980533409  TIP3      15925           0.0000000000
     70028     16118  TIP3      OH2           -17.2167480751       25.2865452278      -44.4389844354  TIP3      15926           0.0000000000
     70029     16118  TIP3      H1            -16.2801661493       25.0694874167      -44.2517789315  TIP3      15926           0.0000000000
     70030     16118  TIP3      H2            -17.6760223040       24.4602214358      -44.1712957520  TIP3      15926           0.0000000000
     70031     16119  TIP3      OH2             0.8015981760       20.8103226382      -42.6373136485  TIP3      15927           0.0000000000
     70032     16119  TIP3      H1              1.1539257949       20.1490717056      -43.2578543257  TIP3      15927           0.0000000000
     70033     16119  TIP3      H2              0.9034649825       21.6247651441      -43.1694243561  TIP3      15927           0.0000000000
     70034     16120  TIP3      OH2            -1.4778890454       22.7640650924      -56.1861846103  TIP3      15928           0.0000000000
     70035     16120  TIP3      H1             -1.2950918968       22.3464022631      -55.3122233135  TIP3      15928           0.0000000000
     70036     16120  TIP3      H2             -2.1108771933       22.1235771763      -56.5838665582  TIP3      15928           0.0000000000
     70037     16121  TIP3      OH2           -16.0210221129       23.5738917176      -51.5950738413  TIP3      15929           0.0000000000
     70038     16121  TIP3      H1            -15.5600813246       22.7473065458      -51.3403227875  TIP3      15929           0.0000000000
     70039     16121  TIP3      H2            -15.4687828210       24.2660350910      -51.2081424986  TIP3      15929           0.0000000000
     70040     16122  TIP3      OH2           -17.7380074972       26.5772579040      -50.5601240106  TIP3      15930           0.0000000000
     70041     16122  TIP3      H1            -17.1742414720       26.3253529834      -51.3198128706  TIP3      15930           0.0000000000
     70042     16122  TIP3      H2            -17.2692344270       27.3801515078      -50.2903877384  TIP3      15930           0.0000000000
     70043     16123  TIP3      OH2             0.3218923621       22.9084859527      -44.2821989037  TIP3      15931           0.0000000000
     70044     16123  TIP3      H1             -0.6165994237       23.1800677907      -44.3339866888  TIP3      15931           0.0000000000
     70045     16123  TIP3      H2              0.3554191421       22.3571260467      -45.0788358518  TIP3      15931           0.0000000000
     70046     16124  TIP3      OH2             0.3629519360       22.7461040071      -59.6229208933  TIP3      15932           0.0000000000
     70047     16124  TIP3      H1              0.7145066003       21.9862363278      -60.1553795337  TIP3      15932           0.0000000000
     70048     16124  TIP3      H2              1.1723524125       23.2767737519      -59.5634756863  TIP3      15932           0.0000000000
     70049     16125  TIP3      OH2           -17.3682626364       22.8565839941      -56.4758521614  TIP3      15933           0.0000000000
     70050     16125  TIP3      H1            -18.3126645749       23.0085949879      -56.6406002477  TIP3      15933           0.0000000000
     70051     16125  TIP3      H2            -16.9531946247       23.3259162219      -57.2173469233  TIP3      15933           0.0000000000
     70052     16126  TIP3      OH2           -17.4245552217       21.4851840053      -48.1931870349  TIP3      15934           0.0000000000
     70053     16126  TIP3      H1            -18.0916982555       21.2956560177      -47.5103433063  TIP3      15934           0.0000000000
     70054     16126  TIP3      H2            -17.8813363943       22.1619340573      -48.7324912145  TIP3      15934           0.0000000000
     70055     16127  TIP3      OH2           -15.1897288640       34.7447849091      -44.0117724515  TIP3      15935           0.0000000000
     70056     16127  TIP3      H1            -16.0394453904       34.8846574970      -44.4686123246  TIP3      15935           0.0000000000
     70057     16127  TIP3      H2            -15.4656809415       34.5801923982      -43.1043730584  TIP3      15935           0.0000000000
     70058     16128  TIP3      OH2           -12.2441720704       35.6869893079      -47.6764883458  TIP3      15936           0.0000000000
     70059     16128  TIP3      H1            -12.6876866542       36.4637640516      -48.0497122209  TIP3      15936           0.0000000000
     70060     16128  TIP3      H2            -11.3842078214       35.6662822668      -48.1204339839  TIP3      15936           0.0000000000
     70061     16129  TIP3      OH2            -0.6570011519       20.9984142652      -46.4283621635  TIP3      15937           0.0000000000
     70062     16129  TIP3      H1             -1.4857604087       21.2969407006      -46.8400822512  TIP3      15937           0.0000000000
     70063     16129  TIP3      H2             -0.4894087155       20.1756089221      -46.9460350599  TIP3      15937           0.0000000000
     70064     16130  TIP3      OH2           -13.0840194267       36.0348723700      -52.3850154514  TIP3      15938           0.0000000000
     70065     16130  TIP3      H1            -13.4679930503       35.2746172671      -51.9209668771  TIP3      15938           0.0000000000
     70066     16130  TIP3      H2            -12.5049141276       36.4003134298      -51.6932196944  TIP3      15938           0.0000000000
     70067     16131  TIP3      OH2            -7.2687580204       22.4258313310      -52.1446814056  TIP3      15939           0.0000000000
     70068     16131  TIP3      H1             -7.9440689854       21.7854925557      -51.8630906414  TIP3      15939           0.0000000000
     70069     16131  TIP3      H2             -6.7162049848       21.8913965166      -52.7272942615  TIP3      15939           0.0000000000
     70070     16132  TIP3      OH2            -2.1312392142       20.4718710398      -52.0824672557  TIP3      15940           0.0000000000
     70071     16132  TIP3      H1             -1.5205055672       21.0659982341      -52.5889586699  TIP3      15940           0.0000000000
     70072     16132  TIP3      H2             -3.0161809431       20.8315700857      -52.3065966807  TIP3      15940           0.0000000000
     70073     16133  TIP3      OH2            -0.4656812809       21.7258771888      -53.8079572249  TIP3      15941           0.0000000000
     70074     16133  TIP3      H1              0.2222442441       21.1477668336      -54.2204916334  TIP3      15941           0.0000000000
     70075     16133  TIP3      H2              0.0439594675       22.5599492373      -53.6996231798  TIP3      15941           0.0000000000
     70076     16134  TIP3      OH2           -14.8937137188       21.0502050583      -54.2970488509  TIP3      15942           0.0000000000
     70077     16134  TIP3      H1            -15.6918705689       20.8566484466      -54.8248983146  TIP3      15942           0.0000000000
     70078     16134  TIP3      H2            -14.4361819994       20.1891205933      -54.3569377784  TIP3      15942           0.0000000000
     70079     16135  TIP3      OH2           -16.1225939635       20.8009992529      -58.5687064584  TIP3      15943           0.0000000000
     70080     16135  TIP3      H1            -15.6408348239       21.4490769571      -59.1099265913  TIP3      15943           0.0000000000
     70081     16135  TIP3      H2            -16.6975562736       21.3746199835      -58.0366698369  TIP3      15943           0.0000000000
     70082     16136  TIP3      OH2           -10.4269935150       20.9755542945      -54.5104702723  TIP3      15944           0.0000000000
     70083     16136  TIP3      H1             -9.5268074261       21.3354234462      -54.5868704486  TIP3      15944           0.0000000000
     70084     16136  TIP3      H2            -10.4599988992       20.7571031163      -53.5803076325  TIP3      15944           0.0000000000
     70085     16137  TIP3      OH2            -4.7097627206       20.9946027523      -52.8872877601  TIP3      15945           0.0000000000
     70086     16137  TIP3      H1             -4.7633574872       21.1086757893      -53.8448735596  TIP3      15945           0.0000000000
     70087     16137  TIP3      H2             -5.0898694184       20.0908775255      -52.7586329166  TIP3      15945           0.0000000000
     70088     16138  TIP3      OH2            -3.4357354864       21.0458468451      -57.2182016127  TIP3      15946           0.0000000000
     70089     16138  TIP3      H1             -4.2036185086       21.6198539846      -57.3570302801  TIP3      15946           0.0000000000
     70090     16138  TIP3      H2             -3.8718494554       20.1930339192      -56.9857750100  TIP3      15946           0.0000000000
     70091     16139  TIP3      OH2           -14.2725831602       22.8010252351      -60.1096092606  TIP3      15947           0.0000000000
     70092     16139  TIP3      H1            -13.7700396782       22.1115846547      -60.5772918771  TIP3      15947           0.0000000000
     70093     16139  TIP3      H2            -13.6327738854       23.0487660814      -59.4153377773  TIP3      15947           0.0000000000
     70094     16140  TIP3      OH2            -9.3296990110       22.9949279019      -57.6332568085  TIP3      15948           0.0000000000
     70095     16140  TIP3      H1             -9.0104769827       22.4246338826      -56.9182925286  TIP3      15948           0.0000000000
     70096     16140  TIP3      H2             -9.1888897369       23.8697715325      -57.2107766757  TIP3      15948           0.0000000000
     70097     16141  TIP3      OH2           -15.0124118367       21.5936060257      -44.8496167297  TIP3      15949           0.0000000000
     70098     16141  TIP3      H1            -15.4010706291       20.7993224145      -44.4408322768  TIP3      15949           0.0000000000
     70099     16141  TIP3      H2            -14.1036088370       21.5509368355      -44.4651105214  TIP3      15949           0.0000000000
     70100     16142  TIP3      OH2           -13.0056230745       20.9675155180      -43.2295947755  TIP3      15950           0.0000000000
     70101     16142  TIP3      H1            -12.1092167540       20.6326582723      -43.4243731862  TIP3      15950           0.0000000000
     70102     16142  TIP3      H2            -13.3830021746       20.1808471169      -42.7801172771  TIP3      15950           0.0000000000
     70103     16143  TIP3      OH2            -4.6033634583       20.2631470010      -43.0547689749  TIP3      15951           0.0000000000
     70104     16143  TIP3      H1             -4.5144219567       19.7897452341      -42.2039393622  TIP3      15951           0.0000000000
     70105     16143  TIP3      H2             -3.6887223809       20.2286277882      -43.3961613149  TIP3      15951           0.0000000000
     70106     16144  TIP3      OH2            -1.5750649117      -36.7604266452      -44.2544079415  TIP3      15952           0.0000000000
     70107     16144  TIP3      H1             -2.2007912908      -36.8886881301      -44.9712506997  TIP3      15952           0.0000000000
     70108     16144  TIP3      H2             -1.4384634595      -35.8006748460      -44.2574460510  TIP3      15952           0.0000000000
     70109     16145  TIP3      OH2            13.0421315742       30.1649585122      -54.4531016244  TIP3      15953           0.0000000000
     70110     16145  TIP3      H1             13.0268376452       31.1502771277      -54.4610148725  TIP3      15953           0.0000000000
     70111     16145  TIP3      H2             12.3093924896       29.9482820729      -55.0488879678  TIP3      15953           0.0000000000
     70112     16146  TIP3      OH2            11.9011598992       29.4441963420      -50.9384893334  TIP3      15954           0.0000000000
     70113     16146  TIP3      H1             11.8887228112       28.7956372243      -50.2210992234  TIP3      15954           0.0000000000
     70114     16146  TIP3      H2             11.5527741612       28.9351360853      -51.6904022654  TIP3      15954           0.0000000000
     70115     16147  TIP3      OH2             4.2534664220       29.1229035018      -49.3861297877  TIP3      15955           0.0000000000
     70116     16147  TIP3      H1              4.3376253650       28.4349938771      -48.6929858231  TIP3      15955           0.0000000000
     70117     16147  TIP3      H2              5.0041083246       29.6918371424      -49.1634816402  TIP3      15955           0.0000000000
     70118     16148  TIP3      OH2            15.5851140162       32.3797715944      -52.6445764166  TIP3      15956           0.0000000000
     70119     16148  TIP3      H1             15.1668056567       31.6671421272      -52.1539397931  TIP3      15956           0.0000000000
     70120     16148  TIP3      H2             15.6268256220       33.0991270635      -51.9888844317  TIP3      15956           0.0000000000
     70121     16149  TIP3      OH2             5.1986072965       33.5914326947      -50.9155442104  TIP3      15957           0.0000000000
     70122     16149  TIP3      H1              4.8726092531       32.6987827604      -51.1719795519  TIP3      15957           0.0000000000
     70123     16149  TIP3      H2              6.1438438565       33.3618834169      -50.8209708983  TIP3      15957           0.0000000000
     70124     16150  TIP3      OH2             1.8297839391       27.1268362760      -55.4168885613  TIP3      15958           0.0000000000
     70125     16150  TIP3      H1              1.4008361908       28.0061306497      -55.4425588522  TIP3      15958           0.0000000000
     70126     16150  TIP3      H2              1.2377058287       26.5891168348      -55.9443368722  TIP3      15958           0.0000000000
     70127     16151  TIP3      OH2             2.5317368177       29.3510516131      -53.2472972517  TIP3      15959           0.0000000000
     70128     16151  TIP3      H1              2.8078341268       28.5316248271      -52.7952055551  TIP3      15959           0.0000000000
     70129     16151  TIP3      H2              3.2246830526       29.4587711093      -53.9141375186  TIP3      15959           0.0000000000
     70130     16152  TIP3      OH2            10.2520925432       31.8299015040      -50.4476364361  TIP3      15960           0.0000000000
     70131     16152  TIP3      H1             10.6022464357       31.2236130086      -51.1204520632  TIP3      15960           0.0000000000
     70132     16152  TIP3      H2             11.0714839680       32.0240497327      -49.9593232001  TIP3      15960           0.0000000000
     70133     16153  TIP3      OH2            18.8715028108       23.5103220557      -49.7429980247  TIP3      15961           0.0000000000
     70134     16153  TIP3      H1             19.0496680052       24.0952180280      -48.9749072935  TIP3      15961           0.0000000000
     70135     16153  TIP3      H2             19.4398881311       23.9292927783      -50.4039882658  TIP3      15961           0.0000000000
     70136     16154  TIP3      OH2            13.4442198742       26.3142319581      -50.1526121039  TIP3      15962           0.0000000000
     70137     16154  TIP3      H1             13.6115451178       25.3550812653      -50.1478702041  TIP3      15962           0.0000000000
     70138     16154  TIP3      H2             13.3406238257       26.4541298679      -51.1137125829  TIP3      15962           0.0000000000
     70139     16155  TIP3      OH2             6.5559556284       24.4038863227      -52.9389710652  TIP3      15963           0.0000000000
     70140     16155  TIP3      H1              6.6647960471       25.2377902141      -53.4325018281  TIP3      15963           0.0000000000
     70141     16155  TIP3      H2              6.1589368627       23.8297837008      -53.6290271370  TIP3      15963           0.0000000000
     70142     16156  TIP3      OH2            14.2949429636       24.4774409756      -54.5671078379  TIP3      15964           0.0000000000
     70143     16156  TIP3      H1             14.9457166415       24.1664077257      -53.8960835215  TIP3      15964           0.0000000000
     70144     16156  TIP3      H2             14.8572572290       25.0611123564      -55.0970373610  TIP3      15964           0.0000000000
     70145     16157  TIP3      OH2             3.1817703641       26.8142279781      -52.2018530990  TIP3      15965           0.0000000000
     70146     16157  TIP3      H1              3.8515879330       26.2697945034      -51.7482360234  TIP3      15965           0.0000000000
     70147     16157  TIP3      H2              3.2886527877       26.4997496450      -53.1121106483  TIP3      15965           0.0000000000
     70148     16158  TIP3      OH2             8.3351582820       28.3689063479      -52.8830852088  TIP3      15966           0.0000000000
     70149     16158  TIP3      H1              9.0112199731       27.7887849833      -52.4900719581  TIP3      15966           0.0000000000
     70150     16158  TIP3      H2              7.8238901895       27.7130404658      -53.3944229974  TIP3      15966           0.0000000000
     70151     16159  TIP3      OH2            19.3150430321       24.9097778850      -47.4657965995  TIP3      15967           0.0000000000
     70152     16159  TIP3      H1             18.7082153059       25.6772373394      -47.5772347986  TIP3      15967           0.0000000000
     70153     16159  TIP3      H2             19.3468139354       24.8308848415      -46.5057118296  TIP3      15967           0.0000000000
     70154     16160  TIP3      OH2             5.4676963597       23.3028283666      -48.8987501478  TIP3      15968           0.0000000000
     70155     16160  TIP3      H1              5.1849966820       23.8742484651      -49.6441281742  TIP3      15968           0.0000000000
     70156     16160  TIP3      H2              4.7899417555       23.5306092471      -48.2165076485  TIP3      15968           0.0000000000
     70157     16161  TIP3      OH2            12.7372091182       32.7559572118      -55.3478093485  TIP3      15969           0.0000000000
     70158     16161  TIP3      H1             12.5034216292       32.5208963334      -56.2554536820  TIP3      15969           0.0000000000
     70159     16161  TIP3      H2             12.4513464650       33.6902892997      -55.2856275400  TIP3      15969           0.0000000000
     70160     16162  TIP3      OH2             7.9747322611       30.9250668989      -48.6493194317  TIP3      15970           0.0000000000
     70161     16162  TIP3      H1              7.2747286323       31.5731803633      -48.4319917730  TIP3      15970           0.0000000000
     70162     16162  TIP3      H2              8.6859210039       31.5175787379      -48.9455054692  TIP3      15970           0.0000000000
     70163     16163  TIP3      OH2            16.1121594159       23.8318585060      -52.5808372634  TIP3      15971           0.0000000000
     70164     16163  TIP3      H1             15.8845236403       23.0644669712      -52.0427165403  TIP3      15971           0.0000000000
     70165     16163  TIP3      H2             16.7777104624       24.2658610674      -52.0209127233  TIP3      15971           0.0000000000
     70166     16164  TIP3      OH2             5.0353259449       25.1584063997      -50.8621858878  TIP3      15972           0.0000000000
     70167     16164  TIP3      H1              5.6634661327       25.8477460714      -50.5520606239  TIP3      15972           0.0000000000
     70168     16164  TIP3      H2              5.5509901826       24.7484244660      -51.6014914086  TIP3      15972           0.0000000000
     70169     16165  TIP3      OH2             6.4386528870       32.9460098881      -47.8529481773  TIP3      15973           0.0000000000
     70170     16165  TIP3      H1              6.3744757147       33.8394500223      -48.2172027544  TIP3      15973           0.0000000000
     70171     16165  TIP3      H2              5.5527502304       32.8696260459      -47.4154226103  TIP3      15973           0.0000000000
     70172     16166  TIP3      OH2             2.5021507706       32.6246286261      -57.0338950524  TIP3      15974           0.0000000000
     70173     16166  TIP3      H1              2.2478462571       32.9413172094      -57.9179988209  TIP3      15974           0.0000000000
     70174     16166  TIP3      H2              2.5887127271       33.4456555534      -56.5350132322  TIP3      15974           0.0000000000
     70175     16167  TIP3      OH2            16.1267240049       34.2520161762      -50.2369226452  TIP3      15975           0.0000000000
     70176     16167  TIP3      H1             15.1471075393       34.3306354499      -50.1485240071  TIP3      15975           0.0000000000
     70177     16167  TIP3      H2             16.4061000712       35.1437550644      -50.5070081874  TIP3      15975           0.0000000000
     70178     16168  TIP3      OH2            16.4399643977       22.5204613859      -48.9045184240  TIP3      15976           0.0000000000
     70179     16168  TIP3      H1             15.7141203322       23.1514071694      -48.9933860885  TIP3      15976           0.0000000000
     70180     16168  TIP3      H2             17.1550350800       22.9365804856      -49.4245936990  TIP3      15976           0.0000000000
     70181     16169  TIP3      OH2             9.4042472812       20.6347507929      -51.4324050136  TIP3      15977           0.0000000000
     70182     16169  TIP3      H1              9.2667997165       19.6694319058      -51.5055656406  TIP3      15977           0.0000000000
     70183     16169  TIP3      H2              8.5256560397       20.9411024648      -51.1265122000  TIP3      15977           0.0000000000
     70184     16170  TIP3      OH2            14.4085516092       35.7093267748      -53.8775489937  TIP3      15978           0.0000000000
     70185     16170  TIP3      H1             14.9732948065       35.0956639235      -54.3859503171  TIP3      15978           0.0000000000
     70186     16170  TIP3      H2             14.8054008943       36.5409525661      -54.1205876669  TIP3      15978           0.0000000000
     70187     16171  TIP3      OH2            15.6264794191       33.8432679184      -55.1883192059  TIP3      15979           0.0000000000
     70188     16171  TIP3      H1             15.2696181877       33.1836768581      -55.7897958272  TIP3      15979           0.0000000000
     70189     16171  TIP3      H2             15.6218987336       33.3919418103      -54.3229803377  TIP3      15979           0.0000000000
     70190     16172  TIP3      OH2            17.2134746316       32.5764252884      -46.6751483659  TIP3      15980           0.0000000000
     70191     16172  TIP3      H1             17.3384065241       31.8980375276      -47.3758428411  TIP3      15980           0.0000000000
     70192     16172  TIP3      H2             17.4360585972       33.3979602828      -47.1469037949  TIP3      15980           0.0000000000
     70193     16173  TIP3      OH2            11.7011745216       29.4213911814      -56.9258793300  TIP3      15981           0.0000000000
     70194     16173  TIP3      H1             11.0088058224       30.0020331277      -57.2847090441  TIP3      15981           0.0000000000
     70195     16173  TIP3      H2             12.4127607447       29.5210600638      -57.5873122705  TIP3      15981           0.0000000000
     70196     16174  TIP3      OH2            11.7831960095       27.9962212789      -59.9150733295  TIP3      15982           0.0000000000
     70197     16174  TIP3      H1             12.4882674477       27.9771061100      -59.2503979906  TIP3      15982           0.0000000000
     70198     16174  TIP3      H2             12.0895275667       27.2805205643      -60.4837907164  TIP3      15982           0.0000000000
     70199     16175  TIP3      OH2            19.0915556563       28.8501522458      -48.6445594904  TIP3      15983           0.0000000000
     70200     16175  TIP3      H1             18.4345117867       29.5735652313      -48.6044492013  TIP3      15983           0.0000000000
     70201     16175  TIP3      H2             19.5853668402       29.0861379768      -49.4504835177  TIP3      15983           0.0000000000
     70202     16176  TIP3      OH2            15.1588980144       29.6336888274      -56.0024083900  TIP3      15984           0.0000000000
     70203     16176  TIP3      H1             14.4071236808       29.8764892207      -55.4064569693  TIP3      15984           0.0000000000
     70204     16176  TIP3      H2             15.6261591966       28.9584007646      -55.4801210470  TIP3      15984           0.0000000000
     70205     16177  TIP3      OH2            15.0794038645       27.8030740382      -46.8777179056  TIP3      15985           0.0000000000
     70206     16177  TIP3      H1             15.0854962120       28.6226065261      -46.3567150036  TIP3      15985           0.0000000000
     70207     16177  TIP3      H2             14.4498865595       28.0939266348      -47.5699777920  TIP3      15985           0.0000000000
     70208     16178  TIP3      OH2             6.7547783048       30.2926534679      -54.0855099381  TIP3      15986           0.0000000000
     70209     16178  TIP3      H1              6.4403940758       29.9050177406      -54.9368960319  TIP3      15986           0.0000000000
     70210     16178  TIP3      H2              7.3751457376       29.6059286723      -53.7525477416  TIP3      15986           0.0000000000
     70211     16179  TIP3      OH2             8.0911797060       33.7025089100      -51.4192870813  TIP3      15987           0.0000000000
     70212     16179  TIP3      H1              8.0846726458       33.1536393908      -52.2123115017  TIP3      15987           0.0000000000
     70213     16179  TIP3      H2              8.8566759724       33.3307654231      -50.9418883335  TIP3      15987           0.0000000000
     70214     16180  TIP3      OH2             7.0879129547       29.0437941673      -50.4240176603  TIP3      15988           0.0000000000
     70215     16180  TIP3      H1              7.6389556844       29.1412428012      -51.2254511564  TIP3      15988           0.0000000000
     70216     16180  TIP3      H2              7.4808218616       29.7065091820      -49.8133763086  TIP3      15988           0.0000000000
     70217     16181  TIP3      OH2            13.5378482420       34.6159964879      -49.6969363983  TIP3      15989           0.0000000000
     70218     16181  TIP3      H1             13.1724564014       35.2425018279      -49.0815805575  TIP3      15989           0.0000000000
     70219     16181  TIP3      H2             13.2462592248       33.7560073389      -49.3017883838  TIP3      15989           0.0000000000
     70220     16182  TIP3      OH2             8.0460828745       33.5019257979      -45.7383196169  TIP3      15990           0.0000000000
     70221     16182  TIP3      H1              7.5981772995       34.2129521467      -45.2363653802  TIP3      15990           0.0000000000
     70222     16182  TIP3      H2              7.3774701022       33.2345036127      -46.4239154592  TIP3      15990           0.0000000000
     70223     16183  TIP3      OH2            14.0245447397       28.8394410882      -58.3384826493  TIP3      15991           0.0000000000
     70224     16183  TIP3      H1             14.5820689484       29.0072372336      -57.5388229639  TIP3      15991           0.0000000000
     70225     16183  TIP3      H2             14.4783560351       29.3283712758      -59.0613401227  TIP3      15991           0.0000000000
     70226     16184  TIP3      OH2             4.9864082802       29.6350797540      -46.5726814367  TIP3      15992           0.0000000000
     70227     16184  TIP3      H1              5.0387206249       30.2952943581      -45.8565712338  TIP3      15992           0.0000000000
     70228     16184  TIP3      H2              4.0437313694       29.7221310943      -46.7848114701  TIP3      15992           0.0000000000
     70229     16185  TIP3      OH2            11.6956536499       35.5307339569      -54.8603245553  TIP3      15993           0.0000000000
     70230     16185  TIP3      H1             12.1998775295       35.8519080934      -54.1056581557  TIP3      15993           0.0000000000
     70231     16185  TIP3      H2             11.1873375255       36.3027944353      -55.1276572479  TIP3      15993           0.0000000000
     70232     16186  TIP3      OH2             6.2716870962       35.4877073702      -45.0011756873  TIP3      15994           0.0000000000
     70233     16186  TIP3      H1              6.1929346178       35.3520636806      -45.9682605128  TIP3      15994           0.0000000000
     70234     16186  TIP3      H2              5.3413566935       35.3386365670      -44.7201333493  TIP3      15994           0.0000000000
     70235     16187  TIP3      OH2            17.7758435515       20.5830643451      -58.4061869516  TIP3      15995           0.0000000000
     70236     16187  TIP3      H1             16.8155869462       20.6731620906      -58.1954793156  TIP3      15995           0.0000000000
     70237     16187  TIP3      H2             17.9384806040       21.4086038199      -58.8936962007  TIP3      15995           0.0000000000
     70238     16188  TIP3      OH2             5.7216257687       29.3148084902      -56.4549222828  TIP3      15996           0.0000000000
     70239     16188  TIP3      H1              5.4447724818       30.0994913489      -56.9745132841  TIP3      15996           0.0000000000
     70240     16188  TIP3      H2              5.0750840323       28.6503042005      -56.7035271991  TIP3      15996           0.0000000000
     70241     16189  TIP3      OH2            18.9094033915       34.8919012412      -60.0934025988  TIP3      15997           0.0000000000
     70242     16189  TIP3      H1             18.9954762822       35.8508518697      -59.9366775199  TIP3      15997           0.0000000000
     70243     16189  TIP3      H2             19.8423454038       34.6144789087      -60.0746327002  TIP3      15997           0.0000000000
     70244     16190  TIP3      OH2             1.8122774864       31.7561213720      -47.5704030828  TIP3      15998           0.0000000000
     70245     16190  TIP3      H1              1.3797539455       31.6641462131      -48.4395223626  TIP3      15998           0.0000000000
     70246     16190  TIP3      H2              1.9017382956       30.8066129247      -47.3546814920  TIP3      15998           0.0000000000
     70247     16191  TIP3      OH2             1.6561004445       34.5422104203      -50.8789899697  TIP3      15999           0.0000000000
     70248     16191  TIP3      H1              2.5891474744       34.3499252933      -50.7776438940  TIP3      15999           0.0000000000
     70249     16191  TIP3      H2              1.5098172358       35.2358331610      -50.2125179835  TIP3      15999           0.0000000000
     70250     16192  TIP3      OH2            19.7976862958       35.1792404562      -45.0321090418  TIP3      16000           0.0000000000
     70251     16192  TIP3      H1             19.6945631736       34.2241618150      -45.1585689831  TIP3      16000           0.0000000000
     70252     16192  TIP3      H2             18.9084738760       35.4447281104      -44.7142486238  TIP3      16000           0.0000000000
     70253     16193  TIP3      OH2            10.7359401745       34.7542650863      -46.2734089601  TIP3      16001           0.0000000000
     70254     16193  TIP3      H1             10.8805091265       35.5295473451      -45.7258119818  TIP3      16001           0.0000000000
     70255     16193  TIP3      H2              9.9198048151       34.3253936322      -45.9555906615  TIP3      16001           0.0000000000
     70256     16194  TIP3      OH2            16.9673284549       26.6557146134      -44.6362212893  TIP3      16002           0.0000000000
     70257     16194  TIP3      H1             16.4919214060       27.1065569354      -45.3531551094  TIP3      16002           0.0000000000
     70258     16194  TIP3      H2             16.9524377953       25.7362760623      -44.9412505911  TIP3      16002           0.0000000000
     70259     16195  TIP3      OH2             4.1142303264       33.0825333790      -46.6311743908  TIP3      16003           0.0000000000
     70260     16195  TIP3      H1              4.3269185531       32.6968081116      -45.7524929657  TIP3      16003           0.0000000000
     70261     16195  TIP3      H2              3.2462432257       32.6871061362      -46.8544243971  TIP3      16003           0.0000000000
     70262     16196  TIP3      OH2             6.7883302175       21.5393822881      -50.6824859497  TIP3      16004           0.0000000000
     70263     16196  TIP3      H1              5.8857132981       21.4123010668      -51.0490499452  TIP3      16004           0.0000000000
     70264     16196  TIP3      H2              6.6534895587       22.3696461353      -50.1966072251  TIP3      16004           0.0000000000
     70265     16197  TIP3      OH2            11.4318653871       21.2044944817      -47.3217378745  TIP3      16005           0.0000000000
     70266     16197  TIP3      H1             11.8238855965       20.7818191904      -46.5349438344  TIP3      16005           0.0000000000
     70267     16197  TIP3      H2             10.4596713953       21.0892597376      -47.1750209676  TIP3      16005           0.0000000000
     70268     16198  TIP3      OH2            14.7199847702       25.0537704620      -46.4178116581  TIP3      16006           0.0000000000
     70269     16198  TIP3      H1             14.1537985620       24.8383009714      -45.6376599595  TIP3      16006           0.0000000000
     70270     16198  TIP3      H2             14.5340827257       25.9804881281      -46.6477408918  TIP3      16006           0.0000000000
     70271     16199  TIP3      OH2            15.4821407734       29.8615047805      -60.5180402258  TIP3      16007           0.0000000000
     70272     16199  TIP3      H1             15.4548699093       29.6798161165      -61.4857290767  TIP3      16007           0.0000000000
     70273     16199  TIP3      H2             16.3354805584       30.3142582025      -60.4691222575  TIP3      16007           0.0000000000
     70274     16200  TIP3      OH2            11.0712129680       23.7935748848      -60.0124532457  TIP3      16008           0.0000000000
     70275     16200  TIP3      H1             10.7570799978       23.7301562914      -59.0918806757  TIP3      16008           0.0000000000
     70276     16200  TIP3      H2             10.7639609173       22.9157464703      -60.3180811180  TIP3      16008           0.0000000000
     70277     16201  TIP3      OH2             6.8950703097       26.5175171518      -49.4190634764  TIP3      16009           0.0000000000
     70278     16201  TIP3      H1              6.1512583753       26.5038400655      -48.7900625614  TIP3      16009           0.0000000000
     70279     16201  TIP3      H2              6.8421583599       27.4221170565      -49.8008022849  TIP3      16009           0.0000000000
     70280     16202  TIP3      OH2             6.8518241625       26.6288044995      -54.5623686188  TIP3      16010           0.0000000000
     70281     16202  TIP3      H1              5.9128908106       26.3794254288      -54.6975884079  TIP3      16010           0.0000000000
     70282     16202  TIP3      H2              7.2329019648       26.3408905983      -55.4145937488  TIP3      16010           0.0000000000
     70283     16203  TIP3      OH2            12.3685474569       27.1331622468      -55.7864923710  TIP3      16011           0.0000000000
     70284     16203  TIP3      H1             11.9768344845       27.9564654806      -56.1592662525  TIP3      16011           0.0000000000
     70285     16203  TIP3      H2             13.0561002290       26.9635601243      -56.4520673050  TIP3      16011           0.0000000000
     70286     16204  TIP3      OH2            11.4242438862       27.3437375681      -44.3575298141  TIP3      16012           0.0000000000
     70287     16204  TIP3      H1             10.8985896486       26.5664683624      -44.0469475895  TIP3      16012           0.0000000000
     70288     16204  TIP3      H2             12.2619129086       27.2210571397      -43.8811327080  TIP3      16012           0.0000000000
     70289     16205  TIP3      OH2            13.4056796970       26.6251917908      -52.9495324067  TIP3      16013           0.0000000000
     70290     16205  TIP3      H1             13.1198135620       27.1871563330      -53.6890289154  TIP3      16013           0.0000000000
     70291     16205  TIP3      H2             13.4987518403       25.7741757430      -53.4177567254  TIP3      16013           0.0000000000
     70292     16206  TIP3      OH2             4.5103461328       26.7620771640      -47.7499470846  TIP3      16014           0.0000000000
     70293     16206  TIP3      H1              4.5945024692       27.1700699362      -46.8706361729  TIP3      16014           0.0000000000
     70294     16206  TIP3      H2              4.0710070763       25.9231894212      -47.5383732817  TIP3      16014           0.0000000000
     70295     16207  TIP3      OH2             7.8827207887       24.1592749250      -60.8945855179  TIP3      16015           0.0000000000
     70296     16207  TIP3      H1              7.4290678711       23.7383720129      -60.1362889099  TIP3      16015           0.0000000000
     70297     16207  TIP3      H2              7.1732135687       24.5909156969      -61.3859177765  TIP3      16015           0.0000000000
     70298     16208  TIP3      OH2             1.1699222645       23.8845929865      -53.7858213688  TIP3      16016           0.0000000000
     70299     16208  TIP3      H1              1.8377038513       23.8382426490      -53.0670352251  TIP3      16016           0.0000000000
     70300     16208  TIP3      H2              1.6333499773       23.4796705601      -54.5354948704  TIP3      16016           0.0000000000
     70301     16209  TIP3      OH2             2.3290070303       24.5733144383      -58.5018002648  TIP3      16017           0.0000000000
     70302     16209  TIP3      H1              2.9748960260       25.1694763953      -58.9548803952  TIP3      16017           0.0000000000
     70303     16209  TIP3      H2              1.8282166298       25.2491560400      -58.0050908992  TIP3      16017           0.0000000000
     70304     16210  TIP3      OH2            12.5998993769       28.2057588867      -48.3957990141  TIP3      16018           0.0000000000
     70305     16210  TIP3      H1             12.9811026428       27.5195984794      -48.9804665756  TIP3      16018           0.0000000000
     70306     16210  TIP3      H2             12.1335528187       27.6780605102      -47.7230839524  TIP3      16018           0.0000000000
     70307     16211  TIP3      OH2             9.4037132253       24.1885076817      -53.5589337013  TIP3      16019           0.0000000000
     70308     16211  TIP3      H1              8.4697192300       24.1881526490      -53.2659778091  TIP3      16019           0.0000000000
     70309     16211  TIP3      H2              9.8858481058       24.0131172365      -52.7365105581  TIP3      16019           0.0000000000
     70310     16212  TIP3      OH2             4.2229126214       25.7330649773      -54.6848424562  TIP3      16020           0.0000000000
     70311     16212  TIP3      H1              3.3399771094       25.8969406992      -55.0646672911  TIP3      16020           0.0000000000
     70312     16212  TIP3      H2              4.4947205254       24.9009283057      -55.1050000943  TIP3      16020           0.0000000000
     70313     16213  TIP3      OH2             7.8577360796       25.7812937995      -57.0652338975  TIP3      16021           0.0000000000
     70314     16213  TIP3      H1              8.8131906399       25.8912829036      -56.9023549778  TIP3      16021           0.0000000000
     70315     16213  TIP3      H2              7.6266442125       26.4665890649      -57.7194946503  TIP3      16021           0.0000000000
     70316     16214  TIP3      OH2            13.8111285460       23.4280624269      -50.3258529144  TIP3      16022           0.0000000000
     70317     16214  TIP3      H1             13.1293710977       23.4672857579      -49.6168008153  TIP3      16022           0.0000000000
     70318     16214  TIP3      H2             13.3000983523       23.1627521971      -51.1042756820  TIP3      16022           0.0000000000
     70319     16215  TIP3      OH2             6.5616274303       26.9575766600      -59.4759813564  TIP3      16023           0.0000000000
     70320     16215  TIP3      H1              6.0305805251       26.5701804278      -60.1923141285  TIP3      16023           0.0000000000
     70321     16215  TIP3      H2              7.3828172461       27.1652078831      -59.9490801534  TIP3      16023           0.0000000000
     70322     16216  TIP3      OH2             4.6872101448       31.5712850785      -44.4276489589  TIP3      16024           0.0000000000
     70323     16216  TIP3      H1              5.4082069830       31.7734126248      -43.8086212463  TIP3      16024           0.0000000000
     70324     16216  TIP3      H2              3.9131268581       31.5972372970      -43.8213128178  TIP3      16024           0.0000000000
     70325     16217  TIP3      OH2            10.6850832813       26.9404169085      -51.6662289494  TIP3      16025           0.0000000000
     70326     16217  TIP3      H1             11.2859362974       26.4075727020      -52.2001579438  TIP3      16025           0.0000000000
     70327     16217  TIP3      H2             10.5405966536       26.3907213889      -50.8841937754  TIP3      16025           0.0000000000
     70328     16218  TIP3      OH2             5.6957542157       23.0859092613      -55.2311581085  TIP3      16026           0.0000000000
     70329     16218  TIP3      H1              5.3869779876       22.1612860670      -55.2361026082  TIP3      16026           0.0000000000
     70330     16218  TIP3      H2              6.4878852699       23.0169913609      -55.7777518225  TIP3      16026           0.0000000000
     70331     16219  TIP3      OH2             9.3248472624       25.2671522315      -49.2522622274  TIP3      16027           0.0000000000
     70332     16219  TIP3      H1              8.5002779454       25.7862854728      -49.1635490073  TIP3      16027           0.0000000000
     70333     16219  TIP3      H2              9.8799204713       25.6196398866      -48.5299153267  TIP3      16027           0.0000000000
     70334     16220  TIP3      OH2             9.9068585168       31.4751172220      -57.5471132287  TIP3      16028           0.0000000000
     70335     16220  TIP3      H1              9.1072589770       31.0126923508      -57.8832169066  TIP3      16028           0.0000000000
     70336     16220  TIP3      H2              9.6878637811       31.6005154884      -56.6035092969  TIP3      16028           0.0000000000
     70337     16221  TIP3      OH2            17.1050172085       30.6894669874      -48.7501821788  TIP3      16029           0.0000000000
     70338     16221  TIP3      H1             17.6642961111       31.1875618334      -49.3759537533  TIP3      16029           0.0000000000
     70339     16221  TIP3      H2             16.2435957014       30.7386176797      -49.2133514901  TIP3      16029           0.0000000000
     70340     16222  TIP3      OH2            13.7374624840       24.3029742799      -59.3742315676  TIP3      16030           0.0000000000
     70341     16222  TIP3      H1             12.7883377920       24.4597692586      -59.5148622781  TIP3      16030           0.0000000000
     70342     16222  TIP3      H2             14.0817044393       25.1551275265      -59.0291550364  TIP3      16030           0.0000000000
     70343     16223  TIP3      OH2            11.3803340080       31.7851508652      -46.3221512889  TIP3      16031           0.0000000000
     70344     16223  TIP3      H1             11.0603538743       31.3351118795      -45.5296128699  TIP3      16031           0.0000000000
     70345     16223  TIP3      H2             11.1563227305       32.7057643320      -46.1937982295  TIP3      16031           0.0000000000
     70346     16224  TIP3      OH2            14.4718688625       26.2300972551      -57.7579260446  TIP3      16032           0.0000000000
     70347     16224  TIP3      H1             15.3519465398       26.1004774761      -57.3452194079  TIP3      16032           0.0000000000
     70348     16224  TIP3      H2             14.5786923891       27.0490434749      -58.2692116232  TIP3      16032           0.0000000000
     70349     16225  TIP3      OH2             5.0217936361       30.8833514524      -51.7494660417  TIP3      16033           0.0000000000
     70350     16225  TIP3      H1              5.7051686806       30.8134044684      -52.4475113921  TIP3      16033           0.0000000000
     70351     16225  TIP3      H2              5.0850137342       30.0224065091      -51.2992958132  TIP3      16033           0.0000000000
     70352     16226  TIP3      OH2            12.0018448559       32.9401725007      -58.5294836225  TIP3      16034           0.0000000000
     70353     16226  TIP3      H1             11.6751736249       33.7984278161      -58.1925787935  TIP3      16034           0.0000000000
     70354     16226  TIP3      H2             11.2729366852       32.3368233569      -58.2881011903  TIP3      16034           0.0000000000
     70355     16227  TIP3      OH2             2.0127857875       29.2870660805      -46.4925347195  TIP3      16035           0.0000000000
     70356     16227  TIP3      H1              2.1815599894       28.8453378967      -45.6421786719  TIP3      16035           0.0000000000
     70357     16227  TIP3      H2              1.3923773240       28.6781460004      -46.9322801765  TIP3      16035           0.0000000000
     70358     16228  TIP3      OH2             9.0256235704       28.8484922424      -44.3173677716  TIP3      16036           0.0000000000
     70359     16228  TIP3      H1              8.7056621714       28.5360345571      -45.1762173293  TIP3      16036           0.0000000000
     70360     16228  TIP3      H2              9.9483496842       28.5233145707      -44.3185174734  TIP3      16036           0.0000000000
     70361     16229  TIP3      OH2            13.6956567168       34.2454057348      -46.4366134927  TIP3      16037           0.0000000000
     70362     16229  TIP3      H1             12.7544459297       34.3145186943      -46.6123841373  TIP3      16037           0.0000000000
     70363     16229  TIP3      H2             13.6746194798       34.4249484949      -45.4632292735  TIP3      16037           0.0000000000
     70364     16230  TIP3      OH2            19.3952188305       26.3460621234      -57.9748175774  TIP3      16038           0.0000000000
     70365     16230  TIP3      H1             18.8150085008       26.0726865709      -58.7094647966  TIP3      16038           0.0000000000
     70366     16230  TIP3      H2             19.4623349494       27.2993409241      -58.2214056018  TIP3      16038           0.0000000000
     70367     16231  TIP3      OH2            19.3896819290       32.2040023913      -45.1767284805  TIP3      16039           0.0000000000
     70368     16231  TIP3      H1             18.4948052620       32.4448518050      -45.5223292314  TIP3      16039           0.0000000000
     70369     16231  TIP3      H2             19.9167816429       32.1556742817      -46.0001664381  TIP3      16039           0.0000000000
     70370     16232  TIP3      OH2            17.8096552508       34.9446704120      -57.3668454348  TIP3      16040           0.0000000000
     70371     16232  TIP3      H1             17.2415641545       34.2004220489      -57.2391938554  TIP3      16040           0.0000000000
     70372     16232  TIP3      H2             17.9174185052       35.0304741607      -58.3299858246  TIP3      16040           0.0000000000
     70373     16233  TIP3      OH2            14.8789266266       30.0049028120      -50.4637991373  TIP3      16041           0.0000000000
     70374     16233  TIP3      H1             13.9385684352       29.7997786525      -50.5809879197  TIP3      16041           0.0000000000
     70375     16233  TIP3      H2             15.3101988926       29.2494674228      -50.9055548831  TIP3      16041           0.0000000000
     70376     16234  TIP3      OH2             7.4196798790       34.3200972980      -54.4138722555  TIP3      16042           0.0000000000
     70377     16234  TIP3      H1              7.9149618687       35.1359983293      -54.5576508740  TIP3      16042           0.0000000000
     70378     16234  TIP3      H2              6.5281179065       34.5323447408      -54.6967519875  TIP3      16042           0.0000000000
     70379     16235  TIP3      OH2             3.1473873716       29.1528513206      -59.7825420716  TIP3      16043           0.0000000000
     70380     16235  TIP3      H1              3.7422771689       29.8136477531      -59.3858806384  TIP3      16043           0.0000000000
     70381     16235  TIP3      H2              2.2726425341       29.5150422972      -59.5570951672  TIP3      16043           0.0000000000
     70382     16236  TIP3      OH2             8.8309064108       31.9947545561      -54.8522935317  TIP3      16044           0.0000000000
     70383     16236  TIP3      H1              8.5152385210       32.9141455391      -54.7590549108  TIP3      16044           0.0000000000
     70384     16236  TIP3      H2              8.1036747576       31.5109514791      -54.4110291040  TIP3      16044           0.0000000000
     70385     16237  TIP3      OH2             9.4860737062       35.9054827401      -48.7000085520  TIP3      16045           0.0000000000
     70386     16237  TIP3      H1              9.7598582991       36.8170376717      -48.8494629727  TIP3      16045           0.0000000000
     70387     16237  TIP3      H2              9.9143684206       35.6973551491      -47.8548314918  TIP3      16045           0.0000000000
     70388     16238  TIP3      OH2            12.7906571725       32.1888002482      -48.8202241423  TIP3      16046           0.0000000000
     70389     16238  TIP3      H1             12.4487059143       31.9668441977      -47.9314971550  TIP3      16046           0.0000000000
     70390     16238  TIP3      H2             13.4235075418       31.4759474727      -48.9936075910  TIP3      16046           0.0000000000
     70391     16239  TIP3      OH2            15.1248598996       33.2397840280      -59.7478856549  TIP3      16047           0.0000000000
     70392     16239  TIP3      H1             15.4215811896       32.8031401932      -58.9220832043  TIP3      16047           0.0000000000
     70393     16239  TIP3      H2             14.1700316967       33.0876599071      -59.6509864175  TIP3      16047           0.0000000000
     70394     16240  TIP3      OH2             3.6631915530       24.0226133448      -46.9467449447  TIP3      16048           0.0000000000
     70395     16240  TIP3      H1              2.7567351809       24.3745429505      -46.9647640747  TIP3      16048           0.0000000000
     70396     16240  TIP3      H2              3.5520143689       23.1777984116      -46.4825404880  TIP3      16048           0.0000000000
     70397     16241  TIP3      OH2            15.8947033620       31.8341228108      -57.5109731783  TIP3      16049           0.0000000000
     70398     16241  TIP3      H1             15.6664761271       31.0843750519      -56.9256283920  TIP3      16049           0.0000000000
     70399     16241  TIP3      H2             16.8381695278       31.9533151644      -57.3098779832  TIP3      16049           0.0000000000
     70400     16242  TIP3      OH2             3.3225217258       35.7857270753      -48.5400828924  TIP3      16050           0.0000000000
     70401     16242  TIP3      H1              3.5610186536       34.8566153800      -48.4635632861  TIP3      16050           0.0000000000
     70402     16242  TIP3      H2              3.4457587472       36.1063701740      -47.6335936027  TIP3      16050           0.0000000000
     70403     16243  TIP3      OH2             9.2581114886       34.3141014156      -61.2539596351  TIP3      16051           0.0000000000
     70404     16243  TIP3      H1              9.3402479487       33.5406442127      -61.8345163854  TIP3      16051           0.0000000000
     70405     16243  TIP3      H2              8.8265929227       33.8960233274      -60.4772903682  TIP3      16051           0.0000000000
     70406     16244  TIP3      OH2             7.9816789123       33.8212740550      -58.7857150172  TIP3      16052           0.0000000000
     70407     16244  TIP3      H1              8.2840586182       33.3289341866      -58.0115534353  TIP3      16052           0.0000000000
     70408     16244  TIP3      H2              8.1281487559       34.7559493710      -58.5232075748  TIP3      16052           0.0000000000
     70409     16245  TIP3      OH2             4.5636745392       31.1133071554      -58.3045072911  TIP3      16053           0.0000000000
     70410     16245  TIP3      H1              3.8507238124       31.5089639788      -57.7672374628  TIP3      16053           0.0000000000
     70411     16245  TIP3      H2              5.0695601362       31.8955267867      -58.5958026896  TIP3      16053           0.0000000000
     70412     16246  TIP3      OH2            12.3962489525       23.7953838633      -47.9800216379  TIP3      16054           0.0000000000
     70413     16246  TIP3      H1             13.1114589664       23.8557206937      -47.3377051865  TIP3      16054           0.0000000000
     70414     16246  TIP3      H2             12.0124433362       22.9192526757      -47.7763368211  TIP3      16054           0.0000000000
     70415     16247  TIP3      OH2            13.1367070190       23.3643366205      -56.8932457861  TIP3      16055           0.0000000000
     70416     16247  TIP3      H1             13.3694361639       23.8265561697      -57.7235298386  TIP3      16055           0.0000000000
     70417     16247  TIP3      H2             13.7162756934       23.8075656268      -56.2609104860  TIP3      16055           0.0000000000
     70418     16248  TIP3      OH2            10.8720832554       35.5564577143      -58.0657329853  TIP3      16056           0.0000000000
     70419     16248  TIP3      H1             10.0196870335       36.0295259906      -58.0228463446  TIP3      16056           0.0000000000
     70420     16248  TIP3      H2             11.3438973869       36.0612828904      -58.7446395664  TIP3      16056           0.0000000000
     70421     16249  TIP3      OH2            10.3714745249       25.1156154696      -56.0752570993  TIP3      16057           0.0000000000
     70422     16249  TIP3      H1             11.1529159668       25.6993546314      -56.0287773966  TIP3      16057           0.0000000000
     70423     16249  TIP3      H2             10.1062316521       24.9971053590      -55.1440678967  TIP3      16057           0.0000000000
     70424     16250  TIP3      OH2            10.9222561737       26.1402101786      -46.8837448570  TIP3      16058           0.0000000000
     70425     16250  TIP3      H1             10.9978384533       26.7004444632      -46.0854612756  TIP3      16058           0.0000000000
     70426     16250  TIP3      H2             11.5861768645       25.4472095515      -46.7884343505  TIP3      16058           0.0000000000
     70427     16251  TIP3      OH2            11.2195682277       22.1705868889      -55.1946113274  TIP3      16059           0.0000000000
     70428     16251  TIP3      H1             10.8959247731       22.8189914727      -54.5452447306  TIP3      16059           0.0000000000
     70429     16251  TIP3      H2             11.9127789976       22.7189108206      -55.6360696257  TIP3      16059           0.0000000000
     70430     16252  TIP3      OH2             8.2740452679      -36.4655883130      -58.0239458542  TIP3      16060           0.0000000000
     70431     16252  TIP3      H1              8.2870851175      -35.6758872929      -58.5973753824  TIP3      16060           0.0000000000
     70432     16252  TIP3      H2              7.9746558210      -36.0960307636      -57.1802179035  TIP3      16060           0.0000000000
     70433     16253  TIP3      OH2             6.8764570654       23.2808455765      -58.4817865413  TIP3      16061           0.0000000000
     70434     16253  TIP3      H1              6.8356480430       24.1793975060      -58.0965605167  TIP3      16061           0.0000000000
     70435     16253  TIP3      H2              7.7850610932       23.0333814454      -58.2206733231  TIP3      16061           0.0000000000
     70436     16254  TIP3      OH2            17.1019830595       24.0111667113      -46.0397739954  TIP3      16062           0.0000000000
     70437     16254  TIP3      H1             16.1736423512       24.3267632607      -46.1676756882  TIP3      16062           0.0000000000
     70438     16254  TIP3      H2             17.4014897420       23.9970248034      -46.9635278444  TIP3      16062           0.0000000000
     70439     16255  TIP3      OH2            15.7176975259       27.7969175486      -52.0355558507  TIP3      16063           0.0000000000
     70440     16255  TIP3      H1             14.8904967416       27.3500029942      -52.3010477850  TIP3      16063           0.0000000000
     70441     16255  TIP3      H2             16.1964668872       27.1121571817      -51.5159047120  TIP3      16063           0.0000000000
     70442     16256  TIP3      OH2             5.1244208192       33.7273655824      -59.4292547870  TIP3      16064           0.0000000000
     70443     16256  TIP3      H1              5.7941794104       34.3689144905      -59.1517633000  TIP3      16064           0.0000000000
     70444     16256  TIP3      H2              5.6351657439       33.2602531008      -60.1199280585  TIP3      16064           0.0000000000
     70445     16257  TIP3      OH2             3.4305738236       26.3845649889      -60.2787279287  TIP3      16065           0.0000000000
     70446     16257  TIP3      H1              3.4910587829       27.3503311729      -60.1008605022  TIP3      16065           0.0000000000
     70447     16257  TIP3      H2              2.5659097908       26.2463521796      -60.6512536571  TIP3      16065           0.0000000000
     70448     16258  TIP3      OH2             4.2699654316       21.1796257616      -51.5517751818  TIP3      16066           0.0000000000
     70449     16258  TIP3      H1              4.0770304414       21.1974252123      -52.5148985384  TIP3      16066           0.0000000000
     70450     16258  TIP3      H2              3.8566744767       20.3266152373      -51.3009920502  TIP3      16066           0.0000000000
     70451     16259  TIP3      OH2             3.2420625801       35.1919097634      -55.3460395042  TIP3      16067           0.0000000000
     70452     16259  TIP3      H1              2.3352399166       35.4773908769      -55.5300391658  TIP3      16067           0.0000000000
     70453     16259  TIP3      H2              3.7256767780       35.5463863954      -56.1100976811  TIP3      16067           0.0000000000
     70454     16260  TIP3      OH2             7.4176203988       36.3771034661      -42.3160727145  TIP3      16068           0.0000000000
     70455     16260  TIP3      H1              8.2440068410       35.9320927799      -42.1096953976  TIP3      16068           0.0000000000
     70456     16260  TIP3      H2              7.3167054015       36.1713488525      -43.2592204278  TIP3      16068           0.0000000000
     70457     16261  TIP3      OH2            11.2722949748       36.1141300113      -61.0083963414  TIP3      16069           0.0000000000
     70458     16261  TIP3      H1             10.5277446865       35.4924524294      -60.9289592243  TIP3      16069           0.0000000000
     70459     16261  TIP3      H2             11.9736339010       35.5829240164      -61.3860373252  TIP3      16069           0.0000000000
     70460     16262  TIP3      OH2            13.7075499793       34.6740327378      -43.9141658530  TIP3      16070           0.0000000000
     70461     16262  TIP3      H1             13.2273718850       34.0012109136      -43.4011668628  TIP3      16070           0.0000000000
     70462     16262  TIP3      H2             14.3151152226       35.0435375024      -43.2568546248  TIP3      16070           0.0000000000
     70463     16263  TIP3      OH2            15.9498730581       35.8753540142      -60.7925665760  TIP3      16071           0.0000000000
     70464     16263  TIP3      H1             16.2191993641       35.0404374139      -60.3969801894  TIP3      16071           0.0000000000
     70465     16263  TIP3      H2             16.6715995539       36.0917127651      -61.4156095997  TIP3      16071           0.0000000000
     70466     16264  TIP3      OH2             2.3536251788       31.5066915350      -43.1359314967  TIP3      16072           0.0000000000
     70467     16264  TIP3      H1              2.5022394346       30.5965715555      -43.4422537607  TIP3      16072           0.0000000000
     70468     16264  TIP3      H2              1.6110889140       31.7964613485      -43.6972100544  TIP3      16072           0.0000000000
     70469     16265  TIP3      OH2             6.6902822985       31.8447457365      -61.1104013584  TIP3      16073           0.0000000000
     70470     16265  TIP3      H1              6.8415363639       31.0893296578      -60.5180744706  TIP3      16073           0.0000000000
     70471     16265  TIP3      H2              7.4440532195       31.7433611815      -61.7239954719  TIP3      16073           0.0000000000
     70472     16266  TIP3      OH2             9.0734443049       31.5105456445      -43.7541101628  TIP3      16074           0.0000000000
     70473     16266  TIP3      H1              8.7161005423       31.8118532077      -44.6105607679  TIP3      16074           0.0000000000
     70474     16266  TIP3      H2              9.1333175355       30.5266422187      -43.8507167746  TIP3      16074           0.0000000000
     70475     16267  TIP3      OH2            12.1360094753       32.9937321704      -61.3332227048  TIP3      16075           0.0000000000
     70476     16267  TIP3      H1             11.8308276207       33.0829372375      -60.4161612831  TIP3      16075           0.0000000000
     70477     16267  TIP3      H2             11.9348911820       32.0419374918      -61.4771368190  TIP3      16075           0.0000000000
     70478     16268  TIP3      OH2            14.7586750566       31.3755363660      -46.3505877843  TIP3      16076           0.0000000000
     70479     16268  TIP3      H1             15.5439793281       31.9573598036      -46.4234729493  TIP3      16076           0.0000000000
     70480     16268  TIP3      H2             14.0552565252       32.0376068151      -46.3086903228  TIP3      16076           0.0000000000
     70481     16269  TIP3      OH2             3.2722540348       28.7716414969      -43.7472702617  TIP3      16077           0.0000000000
     70482     16269  TIP3      H1              3.6755440507       27.8999075679      -43.8426128077  TIP3      16077           0.0000000000
     70483     16269  TIP3      H2              3.0277211688       28.7611838346      -42.8075305445  TIP3      16077           0.0000000000
     70484     16270  TIP3      OH2             7.8944146680       29.8865217186      -58.6795087878  TIP3      16078           0.0000000000
     70485     16270  TIP3      H1              7.3898760611       29.3477422054      -58.0524308048  TIP3      16078           0.0000000000
     70486     16270  TIP3      H2              8.1921632812       29.2138011579      -59.3354429863  TIP3      16078           0.0000000000
     70487     16271  TIP3      OH2             7.1592327512       27.6952432212      -46.3942650021  TIP3      16079           0.0000000000
     70488     16271  TIP3      H1              6.5627458945       28.4165223877      -46.1373259237  TIP3      16079           0.0000000000
     70489     16271  TIP3      H2              7.5576215914       28.0625572304      -47.2019195141  TIP3      16079           0.0000000000
     70490     16272  TIP3      OH2             8.9703052636       28.1105527445      -60.4819938307  TIP3      16080           0.0000000000
     70491     16272  TIP3      H1              8.8192667436       28.0203386062      -61.4450085874  TIP3      16080           0.0000000000
     70492     16272  TIP3      H2              9.9465333574       28.1623646365      -60.4158505529  TIP3      16080           0.0000000000
     70493     16273  TIP3      OH2            12.2371805693       30.2641316671      -43.0565501304  TIP3      16081           0.0000000000
     70494     16273  TIP3      H1             13.1947542401       30.2510286174      -43.1806716371  TIP3      16081           0.0000000000
     70495     16273  TIP3      H2             12.0639725296       29.4968209323      -42.4884503599  TIP3      16081           0.0000000000
     70496     16274  TIP3      OH2            18.3084654187       30.4215215752      -61.0711297199  TIP3      16082           0.0000000000
     70497     16274  TIP3      H1             18.1087464730       30.0464897428      -61.9445303346  TIP3      16082           0.0000000000
     70498     16274  TIP3      H2             18.3760960696       31.3890472868      -61.2581070554  TIP3      16082           0.0000000000
     70499     16275  TIP3      OH2             7.5666075819       25.0720371327      -45.3376174471  TIP3      16083           0.0000000000
     70500     16275  TIP3      H1              7.6835405756       24.3632924818      -45.9968928414  TIP3      16083           0.0000000000
     70501     16275  TIP3      H2              7.5224141592       25.8831683141      -45.8864121988  TIP3      16083           0.0000000000
     70502     16276  TIP3      OH2             7.9711545070       23.4545374013      -47.7828346797  TIP3      16084           0.0000000000
     70503     16276  TIP3      H1              8.4792221392       23.9196580677      -48.4898647316  TIP3      16084           0.0000000000
     70504     16276  TIP3      H2              7.0774699335       23.3765311904      -48.1886422134  TIP3      16084           0.0000000000
     70505     16277  TIP3      OH2             9.5116224345       28.9440786800      -47.5405997682  TIP3      16085           0.0000000000
     70506     16277  TIP3      H1             10.2633337793       28.7764629378      -48.1144863152  TIP3      16085           0.0000000000
     70507     16277  TIP3      H2              9.1430295920       29.7751638070      -47.8780377154  TIP3      16085           0.0000000000
     70508     16278  TIP3      OH2            13.9038648290       26.6948351871      -42.5790031637  TIP3      16086           0.0000000000
     70509     16278  TIP3      H1             14.1403612325       25.7600854881      -42.6703255313  TIP3      16086           0.0000000000
     70510     16278  TIP3      H2             14.7688827653       27.1387014129      -42.5464690916  TIP3      16086           0.0000000000
     70511     16279  TIP3      OH2            15.2461945598       29.4912455450      -44.4140084042  TIP3      16087           0.0000000000
     70512     16279  TIP3      H1             14.9921475529       30.2131775081      -45.0292122482  TIP3      16087           0.0000000000
     70513     16279  TIP3      H2             16.2021755722       29.4731132944      -44.5991666466  TIP3      16087           0.0000000000
     70514     16280  TIP3      OH2             6.0276032181       26.3231589974      -43.4162057697  TIP3      16088           0.0000000000
     70515     16280  TIP3      H1              5.2594917279       25.7456691107      -43.5848503527  TIP3      16088           0.0000000000
     70516     16280  TIP3      H2              6.6831933316       25.9532080729      -44.0389090161  TIP3      16088           0.0000000000
     70517     16281  TIP3      OH2             8.7612493668       20.8905937352      -47.3973374218  TIP3      16089           0.0000000000
     70518     16281  TIP3      H1              8.5760970731       21.8536089945      -47.4915861139  TIP3      16089           0.0000000000
     70519     16281  TIP3      H2              8.0104787084       20.5243888269      -47.8966337386  TIP3      16089           0.0000000000
     70520     16282  TIP3      OH2            10.0285965768       25.2211089788      -43.7658662675  TIP3      16090           0.0000000000
     70521     16282  TIP3      H1              9.7143937720       24.9873566093      -42.8706850923  TIP3      16090           0.0000000000
     70522     16282  TIP3      H2              9.2476867954       25.0173878804      -44.3078114640  TIP3      16090           0.0000000000
     70523     16283  TIP3      OH2            12.7515313159       24.3653922359      -44.6753332049  TIP3      16091           0.0000000000
     70524     16283  TIP3      H1             11.7866360854       24.4146790547      -44.5683130298  TIP3      16091           0.0000000000
     70525     16283  TIP3      H2             13.0152114207       23.7237026845      -43.9881624235  TIP3      16091           0.0000000000
     70526     16284  TIP3      OH2            14.3326681733       22.9834915574      -42.7771609055  TIP3      16092           0.0000000000
     70527     16284  TIP3      H1             14.2847416423       22.0054657251      -42.7464385281  TIP3      16092           0.0000000000
     70528     16284  TIP3      H2             14.0841948786       23.2757080456      -41.8778953606  TIP3      16092           0.0000000000
     70529     16285  TIP3      OH2             4.1049444871       24.2605551792      -43.6610488234  TIP3      16093           0.0000000000
     70530     16285  TIP3      H1              4.3547316344       23.5247845155      -44.2471404081  TIP3      16093           0.0000000000
     70531     16285  TIP3      H2              4.0174638956       23.8120087442      -42.7971920913  TIP3      16093           0.0000000000
     70532     16286  TIP3      OH2             8.9738264151       20.2848045595      -44.6944679744  TIP3      16094           0.0000000000
     70533     16286  TIP3      H1              9.6533950517       19.5812842276      -44.7111703381  TIP3      16094           0.0000000000
     70534     16286  TIP3      H2              8.8592029203       20.4271702826      -45.6545905293  TIP3      16094           0.0000000000
     70535     16287  TIP3      OH2             9.3358265150       21.8973053201      -42.5776108360  TIP3      16095           0.0000000000
     70536     16287  TIP3      H1              9.1623815288       21.3918640523      -43.4104307667  TIP3      16095           0.0000000000
     70537     16287  TIP3      H2              8.7365197201       22.6619977886      -42.6782662898  TIP3      16095           0.0000000000
     70538     16288  TIP3      OH2             2.3837643169       33.3858760167      -59.9611353777  TIP3      16096           0.0000000000
     70539     16288  TIP3      H1              3.3348954436       33.4885489827      -59.7365660227  TIP3      16096           0.0000000000
     70540     16288  TIP3      H2              2.4400607611       32.7158729026      -60.6799961645  TIP3      16096           0.0000000000
     70541     16289  TIP3      OH2            17.5270352952       33.0062950660      -42.5282338363  TIP3      16097           0.0000000000
     70542     16289  TIP3      H1             16.6218971604       32.9747185675      -42.1613028176  TIP3      16097           0.0000000000
     70543     16289  TIP3      H2             17.9008229166       33.8229401981      -42.1231430081  TIP3      16097           0.0000000000
     70544     16290  TIP3      OH2            18.8369208686       31.3168813890      -57.1263568157  TIP3      16098           0.0000000000
     70545     16290  TIP3      H1             19.6814724778       31.7498049978      -56.9202762366  TIP3      16098           0.0000000000
     70546     16290  TIP3      H2             18.8192705793       30.6185801946      -56.4387841751  TIP3      16098           0.0000000000
     70547     16291  TIP3      OH2            19.1946526246       29.4195894517      -55.2246327720  TIP3      16099           0.0000000000
     70548     16291  TIP3      H1             18.4429033249       28.9185693334      -54.8324097456  TIP3      16099           0.0000000000
     70549     16291  TIP3      H2             19.7932092426       29.5488834402      -54.4599218020  TIP3      16099           0.0000000000
     70550     16292  TIP3      OH2            18.9567225845       32.1126443083      -50.2173719556  TIP3      16100           0.0000000000
     70551     16292  TIP3      H1             19.7591321593       31.7398717216      -50.6205970132  TIP3      16100           0.0000000000
     70552     16292  TIP3      H2             19.0957312079       33.0667900803      -50.3939135291  TIP3      16100           0.0000000000
     70553     16293  TIP3      OH2            17.4440515545       34.9984943658      -47.9216436081  TIP3      16101           0.0000000000
     70554     16293  TIP3      H1             16.7478635524       35.3803823323      -47.3884220664  TIP3      16101           0.0000000000
     70555     16293  TIP3      H2             16.9450291660       34.6425608286      -48.6943826613  TIP3      16101           0.0000000000
     70556     16294  TIP3      OH2            19.5022717057       29.2385941630      -58.8366388352  TIP3      16102           0.0000000000
     70557     16294  TIP3      H1             18.9296151426       29.5978519324      -59.5505533634  TIP3      16102           0.0000000000
     70558     16294  TIP3      H2             19.3980105934       29.9527805578      -58.1760537804  TIP3      16102           0.0000000000
     70559     16295  TIP3      OH2            17.8691293671       26.4738066382      -60.3243568509  TIP3      16103           0.0000000000
     70560     16295  TIP3      H1             17.9418045696       27.1414623339      -61.0181522873  TIP3      16103           0.0000000000
     70561     16295  TIP3      H2             17.6803101467       25.6527285921      -60.8202666652  TIP3      16103           0.0000000000
     70562     16296  TIP3      OH2            17.0136464375       27.8954491087      -54.6590995604  TIP3      16104           0.0000000000
     70563     16296  TIP3      H1             16.8644600191       26.9410923066      -54.6973106809  TIP3      16104           0.0000000000
     70564     16296  TIP3      H2             16.6804013908       28.1144184199      -53.7702957453  TIP3      16104           0.0000000000
     70565     16297  TIP3      OH2             2.0204217624       29.9879198003      -50.5976468429  TIP3      16105           0.0000000000
     70566     16297  TIP3      H1              2.1962735508       29.9022684165      -51.5607585755  TIP3      16105           0.0000000000
     70567     16297  TIP3      H2              2.9130644591       29.8051347745      -50.2456250896  TIP3      16105           0.0000000000
     70568     16298  TIP3      OH2            17.8712921049       29.8676232600      -44.9678862704  TIP3      16106           0.0000000000
     70569     16298  TIP3      H1             18.4798871015       29.1076573225      -44.8394285815  TIP3      16106           0.0000000000
     70570     16298  TIP3      H2             18.4783029259       30.6362132496      -44.9626551966  TIP3      16106           0.0000000000
     70571     16299  TIP3      OH2            19.3755411452       27.7437161346      -44.3179007392  TIP3      16107           0.0000000000
     70572     16299  TIP3      H1             18.4923398838       27.3455051168      -44.4735245712  TIP3      16107           0.0000000000
     70573     16299  TIP3      H2             19.9450754407       26.9604441970      -44.3953844436  TIP3      16107           0.0000000000
     70574     16300  TIP3      OH2            17.1191016626       23.9462133102      -61.1884064315  TIP3      16108           0.0000000000
     70575     16300  TIP3      H1             17.7012071055       23.5093706093      -60.5412497008  TIP3      16108           0.0000000000
     70576     16300  TIP3      H2             16.2477836489       23.5374751743      -61.0377464290  TIP3      16108           0.0000000000
     70577     16301  TIP3      OH2            16.6526112082       25.4829167928      -56.2449540323  TIP3      16109           0.0000000000
     70578     16301  TIP3      H1             16.9623427576       24.5667702723      -56.0829343227  TIP3      16109           0.0000000000
     70579     16301  TIP3      H2             17.4755631525       25.8890195253      -56.5529594553  TIP3      16109           0.0000000000
     70580     16302  TIP3      OH2            17.3190830909       26.0243215120      -50.7566568078  TIP3      16110           0.0000000000
     70581     16302  TIP3      H1             18.2792322497       26.2549652374      -50.7705042766  TIP3      16110           0.0000000000
     70582     16302  TIP3      H2             17.1310414851       26.1645044523      -49.8170070520  TIP3      16110           0.0000000000
     70583     16303  TIP3      OH2            17.3878467245       26.7446103357      -47.9693013049  TIP3      16111           0.0000000000
     70584     16303  TIP3      H1             16.5027524757       27.0343188688      -47.6603767510  TIP3      16111           0.0000000000
     70585     16303  TIP3      H2             17.8198542951       27.6044651311      -48.1982419429  TIP3      16111           0.0000000000
     70586     16304  TIP3      OH2             1.6383813993       25.2864054721      -44.4386395894  TIP3      16112           0.0000000000
     70587     16304  TIP3      H1              2.5749789167       25.0697471165      -44.2529232631  TIP3      16112           0.0000000000
     70588     16304  TIP3      H2              1.1796784061       24.4601305300      -44.1719132788  TIP3      16112           0.0000000000
     70589     16305  TIP3      OH2            19.6571921594       20.8117297686      -42.6360640850  TIP3      16113           0.0000000000
     70590     16305  TIP3      H1             20.0098943572       20.1492356065      -43.2575777338  TIP3      16113           0.0000000000
     70591     16305  TIP3      H2             19.7600446954       21.6247669331      -43.1687175978  TIP3      16113           0.0000000000
     70592     16306  TIP3      OH2            17.4028825771       22.7431059800      -56.1708463393  TIP3      16114           0.0000000000
     70593     16306  TIP3      H1             17.5437879683       22.3316756661      -55.2922585611  TIP3      16114           0.0000000000
     70594     16306  TIP3      H2             16.7477307981       22.1452595122      -56.5924660746  TIP3      16114           0.0000000000
     70595     16307  TIP3      OH2             2.8339195793       23.5738404266      -51.5969847005  TIP3      16115           0.0000000000
     70596     16307  TIP3      H1              3.2949811811       22.7473040296      -51.3411112246  TIP3      16115           0.0000000000
     70597     16307  TIP3      H2              3.3874808458       24.2639624272      -51.2063090095  TIP3      16115           0.0000000000
     70598     16308  TIP3      OH2             1.1177830700       26.5772726473      -50.5602609129  TIP3      16116           0.0000000000
     70599     16308  TIP3      H1              1.6819947013       26.3254121709      -51.3196412473  TIP3      16116           0.0000000000
     70600     16308  TIP3      H2              1.5867545396       27.3800334168      -50.2902054808  TIP3      16116           0.0000000000
     70601     16309  TIP3      OH2            19.1781115148       22.9085226638      -44.2824325359  TIP3      16117           0.0000000000
     70602     16309  TIP3      H1             18.2409976370       23.1799280456      -44.3353145990  TIP3      16117           0.0000000000
     70603     16309  TIP3      H2             19.2115350837       22.3571285959      -45.0787187667  TIP3      16117           0.0000000000
     70604     16310  TIP3      OH2            19.1822934593       22.7832396225      -59.5787119965  TIP3      16118           0.0000000000
     70605     16310  TIP3      H1             19.5663396004       22.0923380234      -60.1612062003  TIP3      16118           0.0000000000
     70606     16310  TIP3      H2             19.8578670114       23.4758059567      -59.5795349451  TIP3      16118           0.0000000000
     70607     16311  TIP3      OH2             1.4869663859       22.8543773160      -56.4817637724  TIP3      16119           0.0000000000
     70608     16311  TIP3      H1              0.5386868869       22.9963234209      -56.6201434572  TIP3      16119           0.0000000000
     70609     16311  TIP3      H2              1.9226936712       23.3182928707      -57.2081048034  TIP3      16119           0.0000000000
     70610     16312  TIP3      OH2             1.4318147795       21.4848817903      -48.1927236543  TIP3      16120           0.0000000000
     70611     16312  TIP3      H1              0.7643464562       21.2952715235      -47.5102512220  TIP3      16120           0.0000000000
     70612     16312  TIP3      H2              0.9747384269       22.1615942967      -48.7318248541  TIP3      16120           0.0000000000
     70613     16313  TIP3      OH2             3.6794272882       34.7584765250      -44.0186388013  TIP3      16121           0.0000000000
     70614     16313  TIP3      H1              2.8247601848       34.8865729134      -44.4729389268  TIP3      16121           0.0000000000
     70615     16313  TIP3      H2              3.3985275262       34.5816251310      -43.1131708649  TIP3      16121           0.0000000000
     70616     16314  TIP3      OH2             6.6300962160       35.7139811668      -47.6567751911  TIP3      16122           0.0000000000
     70617     16314  TIP3      H1              6.1563200322       36.4405405201      -48.0861286220  TIP3      16122           0.0000000000
     70618     16314  TIP3      H2              7.4631848916       35.6315904917      -48.1503177490  TIP3      16122           0.0000000000
     70619     16315  TIP3      OH2            18.2016102395       20.9896743601      -46.4360765925  TIP3      16123           0.0000000000
     70620     16315  TIP3      H1             17.3714052319       21.2967564610      -46.8407829733  TIP3      16123           0.0000000000
     70621     16315  TIP3      H2             18.3556747401       20.1641309698      -46.9545122072  TIP3      16123           0.0000000000
     70622     16316  TIP3      OH2             5.6116366672       36.1068446649      -52.3518901079  TIP3      16124           0.0000000000
     70623     16316  TIP3      H1              5.4380385936       35.2364935787      -51.9348585226  TIP3      16124           0.0000000000
     70624     16316  TIP3      H2              6.3407540712       36.3924493132      -51.7563862726  TIP3      16124           0.0000000000
     70625     16317  TIP3      OH2            11.5873707127       22.4242225384      -52.1419703394  TIP3      16125           0.0000000000
     70626     16317  TIP3      H1             10.9110362315       21.7841807829      -51.8628863464  TIP3      16125           0.0000000000
     70627     16317  TIP3      H2             12.1364758243       21.8904465750      -52.7270977494  TIP3      16125           0.0000000000
     70628     16318  TIP3      OH2            16.7264026952       20.4640852102      -52.0883747996  TIP3      16126           0.0000000000
     70629     16318  TIP3      H1             17.3356958862       21.0655298756      -52.5859030493  TIP3      16126           0.0000000000
     70630     16318  TIP3      H2             15.8422952631       20.8312919536      -52.3028789135  TIP3      16126           0.0000000000
     70631     16319  TIP3      OH2            18.3918240609       21.7180576001      -53.8081812690  TIP3      16127           0.0000000000
     70632     16319  TIP3      H1             19.0688442260       21.1359810923      -54.2142644459  TIP3      16127           0.0000000000
     70633     16319  TIP3      H2             18.8851752773       22.5603993813      -53.6805761706  TIP3      16127           0.0000000000
     70634     16320  TIP3      OH2             3.9618136663       21.0578961951      -54.3071331055  TIP3      16128           0.0000000000
     70635     16320  TIP3      H1              3.1609521057       20.8541760117      -54.8249825470  TIP3      16128           0.0000000000
     70636     16320  TIP3      H2              4.4182404477       20.1944984104      -54.3567993361  TIP3      16128           0.0000000000
     70637     16321  TIP3      OH2             2.7124015266       20.8065139558      -58.5936925979  TIP3      16129           0.0000000000
     70638     16321  TIP3      H1              3.2414685839       21.4477297347      -59.1029193725  TIP3      16129           0.0000000000
     70639     16321  TIP3      H2              2.1728435893       21.3686796463      -58.0207899739  TIP3      16129           0.0000000000
     70640     16322  TIP3      OH2             8.4288799207       20.9762727070      -54.5102475030  TIP3      16130           0.0000000000
     70641     16322  TIP3      H1              9.3291762420       21.3340049342      -54.5843948397  TIP3      16130           0.0000000000
     70642     16322  TIP3      H2              8.3957890669       20.7573203103      -53.5801784506  TIP3      16130           0.0000000000
     70643     16323  TIP3      OH2            14.1472269717       20.9945660547      -52.8865037959  TIP3      16131           0.0000000000
     70644     16323  TIP3      H1             14.0924475960       21.1074445002      -53.8443341502  TIP3      16131           0.0000000000
     70645     16323  TIP3      H2             13.7563107904       20.0957630925      -52.7536906330  TIP3      16131           0.0000000000
     70646     16324  TIP3      OH2            15.4111414157       21.0253518816      -57.2013012447  TIP3      16132           0.0000000000
     70647     16324  TIP3      H1             14.6621961675       21.6182914863      -57.3614280100  TIP3      16132           0.0000000000
     70648     16324  TIP3      H2             14.9694822404       20.1734570402      -56.9698161117  TIP3      16132           0.0000000000
     70649     16325  TIP3      OH2             4.5475606595       22.7508854219      -60.0550337257  TIP3      16133           0.0000000000
     70650     16325  TIP3      H1              5.0791649828       22.1334567757      -60.5906260110  TIP3      16133           0.0000000000
     70651     16325  TIP3      H2              5.2316925401       23.0641321293      -59.4324275719  TIP3      16133           0.0000000000
     70652     16326  TIP3      OH2             9.5809314093       22.9906442662      -57.6611512894  TIP3      16134           0.0000000000
     70653     16326  TIP3      H1              9.8313109416       22.4126969710      -56.9216589916  TIP3      16134           0.0000000000
     70654     16326  TIP3      H2              9.6523947236       23.8567766613      -57.2026098168  TIP3      16134           0.0000000000
     70655     16327  TIP3      OH2             3.8449101208       21.5947456306      -44.8476179340  TIP3      16135           0.0000000000
     70656     16327  TIP3      H1              3.4552473110       20.7978846983      -44.4408605512  TIP3      16135           0.0000000000
     70657     16327  TIP3      H2              4.7528036428       21.5510349179      -44.4647347794  TIP3      16135           0.0000000000
     70658     16328  TIP3      OH2             5.8446406776       20.9757775846      -43.2017928899  TIP3      16136           0.0000000000
     70659     16328  TIP3      H1              6.7376284347       20.6389056711      -43.4190507889  TIP3      16136           0.0000000000
     70660     16328  TIP3      H2              5.4711108824       20.1683326095      -42.7991374505  TIP3      16136           0.0000000000
     70661     16329  TIP3      OH2            14.2469244464       20.2624633836      -43.0525775831  TIP3      16137           0.0000000000
     70662     16329  TIP3      H1             14.3410684709       19.7892389277      -42.2031000769  TIP3      16137           0.0000000000
     70663     16329  TIP3      H2             15.1643303291       20.2275440665      -43.3971888976  TIP3      16137           0.0000000000
     70664     16330  TIP3      OH2            17.2761568639      -36.7605434628      -44.2514941841  TIP3      16138           0.0000000000
     70665     16330  TIP3      H1             16.6546579883      -36.8874079721      -44.9725205614  TIP3      16138           0.0000000000
     70666     16330  TIP3      H2             17.4186333163      -35.8012275793      -44.2585255914  TIP3      16138           0.0000000000
     70667     16331  TIP3      OH2            31.8986156715       30.1718646162      -54.4394032509  TIP3      16139           0.0000000000
     70668     16331  TIP3      H1             31.9040377515       31.1572143470      -54.4625495960  TIP3      16139           0.0000000000
     70669     16331  TIP3      H2             31.1710666706       29.9520034196      -55.0431513991  TIP3      16139           0.0000000000
     70670     16332  TIP3      OH2            30.7631693540       29.4434004886      -50.9426765355  TIP3      16140           0.0000000000
     70671     16332  TIP3      H1             30.7410491389       28.7972949474      -50.2197405583  TIP3      16140           0.0000000000
     70672     16332  TIP3      H2             30.4244716470       28.9303252786      -51.6984716516  TIP3      16140           0.0000000000
     70673     16333  TIP3      OH2            23.1095538240       29.1228905851      -49.3867005078  TIP3      16141           0.0000000000
     70674     16333  TIP3      H1             23.1940753712       28.4346122496      -48.6939975417  TIP3      16141           0.0000000000
     70675     16333  TIP3      H2             23.8595965595       29.6925153522      -49.1635911753  TIP3      16141           0.0000000000
     70676     16334  TIP3      OH2            34.4608169777       32.3700081305      -52.6525536720  TIP3      16142           0.0000000000
     70677     16334  TIP3      H1             34.0429566525       31.6622917014      -52.1559838513  TIP3      16142           0.0000000000
     70678     16334  TIP3      H2             34.4845587930       33.0884536897      -52.0009021112  TIP3      16142           0.0000000000
     70679     16335  TIP3      OH2            24.0539897807       33.5747834713      -50.8564818867  TIP3      16143           0.0000000000
     70680     16335  TIP3      H1             23.7208171156       32.7183530017      -51.1948214330  TIP3      16143           0.0000000000
     70681     16335  TIP3      H2             25.0063468584       33.3817855841      -50.8518871992  TIP3      16143           0.0000000000
     70682     16336  TIP3      OH2            20.6773346746       27.1053766687      -55.3996315525  TIP3      16144           0.0000000000
     70683     16336  TIP3      H1             20.2561956999       27.9871139084      -55.4550000499  TIP3      16144           0.0000000000
     70684     16336  TIP3      H2             20.0980959007       26.5956036610      -55.9757324572  TIP3      16144           0.0000000000
     70685     16337  TIP3      OH2            21.3858625578       29.3505710809      -53.2481235873  TIP3      16145           0.0000000000
     70686     16337  TIP3      H1             21.6622521409       28.5305390994      -52.7963618718  TIP3      16145           0.0000000000
     70687     16337  TIP3      H2             22.0812384303       29.4593323907      -53.9143487881  TIP3      16145           0.0000000000
     70688     16338  TIP3      OH2            29.1203151239       31.8199539053      -50.4521345198  TIP3      16146           0.0000000000
     70689     16338  TIP3      H1             29.4680462136       31.2153023908      -51.1263109529  TIP3      16146           0.0000000000
     70690     16338  TIP3      H2             29.9367744149       32.0212901483      -49.9621704104  TIP3      16146           0.0000000000
     70691     16339  TIP3      OH2            32.3122684330       26.3197879655      -50.1578446847  TIP3      16147           0.0000000000
     70692     16339  TIP3      H1             32.4763551843       25.3597017254      -50.1674135843  TIP3      16147           0.0000000000
     70693     16339  TIP3      H2             32.2101011082       26.4643908525      -51.1181287964  TIP3      16147           0.0000000000
     70694     16340  TIP3      OH2            25.4071224414       24.3973651870      -52.9460632459  TIP3      16148           0.0000000000
     70695     16340  TIP3      H1             25.5341365339       25.2447454973      -53.4157868601  TIP3      16148           0.0000000000
     70696     16340  TIP3      H2             25.0186621092       23.8362207477      -53.6329154652  TIP3      16148           0.0000000000
     70697     16341  TIP3      OH2            33.1806391793       24.5229051425      -54.5543607033  TIP3      16149           0.0000000000
     70698     16341  TIP3      H1             33.8191115206       24.1625532712      -53.8910683774  TIP3      16149           0.0000000000
     70699     16341  TIP3      H2             33.7732689902       25.0485851766      -55.0951038876  TIP3      16149           0.0000000000
     70700     16342  TIP3      OH2            22.0377364944       26.8287493292      -52.1917283826  TIP3      16150           0.0000000000
     70701     16342  TIP3      H1             22.7041180119       26.2720737866      -51.7467614483  TIP3      16150           0.0000000000
     70702     16342  TIP3      H2             22.1396441172       26.5183043044      -53.1040419324  TIP3      16150           0.0000000000
     70703     16343  TIP3      OH2            27.1946696978       28.3710759253      -52.8812903898  TIP3      16151           0.0000000000
     70704     16343  TIP3      H1             27.8684203719       27.7883403424      -52.4894193475  TIP3      16151           0.0000000000
     70705     16343  TIP3      H2             26.6813223460       27.7161737727      -53.3943830001  TIP3      16151           0.0000000000
     70706     16344  TIP3      OH2            24.3343405197       23.3171599033      -48.8801719278  TIP3      16152           0.0000000000
     70707     16344  TIP3      H1             24.0445614622       23.8738544310      -49.6327254776  TIP3      16152           0.0000000000
     70708     16344  TIP3      H2             23.6426754641       23.5336597987      -48.2079923840  TIP3      16152           0.0000000000
     70709     16345  TIP3      OH2            31.6104168184       32.7647481151      -55.3516201939  TIP3      16153           0.0000000000
     70710     16345  TIP3      H1             31.3531165949       32.5169650394      -56.2483064567  TIP3      16153           0.0000000000
     70711     16345  TIP3      H2             31.2983232689       33.6884648563      -55.2823772491  TIP3      16153           0.0000000000
     70712     16346  TIP3      OH2            26.8366299710       30.9247700528      -48.6476670087  TIP3      16154           0.0000000000
     70713     16346  TIP3      H1             26.1319986842       31.5708477577      -48.4361569463  TIP3      16154           0.0000000000
     70714     16346  TIP3      H2             27.5438495354       31.5193602751      -48.9454264075  TIP3      16154           0.0000000000
     70715     16347  TIP3      OH2            34.6609482746       23.8035036612      -52.4595083249  TIP3      16155           0.0000000000
     70716     16347  TIP3      H1             34.6898133560       22.9826040590      -51.9601267380  TIP3      16155           0.0000000000
     70717     16347  TIP3      H2             35.4276488549       24.2674276078      -52.0581108584  TIP3      16155           0.0000000000
     70718     16348  TIP3      OH2            23.8922679587       25.1648682710      -50.8552325541  TIP3      16156           0.0000000000
     70719     16348  TIP3      H1             24.5200556757       25.8525897090      -50.5429270722  TIP3      16156           0.0000000000
     70720     16348  TIP3      H2             24.4140271656       24.7546818130      -51.5867311174  TIP3      16156           0.0000000000
     70721     16349  TIP3      OH2            25.2995726026       32.9501034060      -47.8524516257  TIP3      16157           0.0000000000
     70722     16349  TIP3      H1             25.2338559828       33.8544584789      -48.2022093356  TIP3      16157           0.0000000000
     70723     16349  TIP3      H2             24.4119443979       32.8612677964      -47.4217663834  TIP3      16157           0.0000000000
     70724     16350  TIP3      OH2            21.3578182708       32.6151852778      -57.0430668341  TIP3      16158           0.0000000000
     70725     16350  TIP3      H1             21.0980131219       32.9308541184      -57.9258633324  TIP3      16158           0.0000000000
     70726     16350  TIP3      H2             21.4429537307       33.4426192353      -56.5327774419  TIP3      16158           0.0000000000
     70727     16351  TIP3      OH2            34.7781780468       34.1681213608      -50.1603027810  TIP3      16159           0.0000000000
     70728     16351  TIP3      H1             33.8131727661       34.3504864523      -50.1254465684  TIP3      16159           0.0000000000
     70729     16351  TIP3      H2             35.1684065056       34.9954455162      -50.4985093959  TIP3      16159           0.0000000000
     70730     16352  TIP3      OH2            35.0961121784       22.6454792791      -49.1497375235  TIP3      16160           0.0000000000
     70731     16352  TIP3      H1             34.4021398657       23.3240732114      -49.0382221482  TIP3      16160           0.0000000000
     70732     16352  TIP3      H2             35.8588571414       23.1402526261      -49.4700972052  TIP3      16160           0.0000000000
     70733     16353  TIP3      OH2            28.2584036187       20.6352978647      -51.4375097013  TIP3      16161           0.0000000000
     70734     16353  TIP3      H1             28.1253230689       19.6695439927      -51.5019521650  TIP3      16161           0.0000000000
     70735     16353  TIP3      H2             27.3812560221       20.9403656980      -51.1255735041  TIP3      16161           0.0000000000
     70736     16354  TIP3      OH2            33.2893972578       35.7225352482      -53.8788574680  TIP3      16162           0.0000000000
     70737     16354  TIP3      H1             33.8386395840       35.0917898606      -54.3831645868  TIP3      16162           0.0000000000
     70738     16354  TIP3      H2             33.6723270156       36.5632901684      -54.1186599495  TIP3      16162           0.0000000000
     70739     16355  TIP3      OH2            34.5032598396       33.8676571336      -55.1932548403  TIP3      16163           0.0000000000
     70740     16355  TIP3      H1             34.1609418286       33.1921369550      -55.7895253856  TIP3      16163           0.0000000000
     70741     16355  TIP3      H2             34.4936207173       33.3971353658      -54.3328921537  TIP3      16163           0.0000000000
     70742     16356  TIP3      OH2            35.8039276313       32.6836830506      -46.5712964581  TIP3      16164           0.0000000000
     70743     16356  TIP3      H1             36.0801598052       31.9735664176      -47.1817714034  TIP3      16164           0.0000000000
     70744     16356  TIP3      H2             36.2465161096       33.4266522016      -47.0267138976  TIP3      16164           0.0000000000
     70745     16357  TIP3      OH2            30.5507080579       29.4198889019      -56.9296492854  TIP3      16165           0.0000000000
     70746     16357  TIP3      H1             29.8605853279       30.0057432080      -57.2896421535  TIP3      16165           0.0000000000
     70747     16357  TIP3      H2             31.2667267217       29.5176800833      -57.5838809923  TIP3      16165           0.0000000000
     70748     16358  TIP3      OH2            30.6362171148       27.9973119583      -59.9136976133  TIP3      16166           0.0000000000
     70749     16358  TIP3      H1             31.3532395301       27.9743619395      -59.2606858344  TIP3      16166           0.0000000000
     70750     16358  TIP3      H2             30.9409893141       27.2816191936      -60.4848946943  TIP3      16166           0.0000000000
     70751     16359  TIP3      OH2            33.9752806539       29.6444517300      -56.0338389073  TIP3      16167           0.0000000000
     70752     16359  TIP3      H1             33.2502808760       29.8943752361      -55.4146585735  TIP3      16167           0.0000000000
     70753     16359  TIP3      H2             34.4579716151       29.0031427077      -55.4687995592  TIP3      16167           0.0000000000
     70754     16360  TIP3      OH2            33.9520533530       27.8177407232      -46.9077433827  TIP3      16168           0.0000000000
     70755     16360  TIP3      H1             33.9033139002       28.6154269090      -46.3564054308  TIP3      16168           0.0000000000
     70756     16360  TIP3      H2             33.3103610492       28.0851971164      -47.5915534284  TIP3      16168           0.0000000000
     70757     16361  TIP3      OH2            25.6132366576       30.2938768039      -54.0854831313  TIP3      16169           0.0000000000
     70758     16361  TIP3      H1             25.2974068926       29.9059737644      -54.9361064390  TIP3      16169           0.0000000000
     70759     16361  TIP3      H2             26.2320696450       29.6058976542      -53.7520430366  TIP3      16169           0.0000000000
     70760     16362  TIP3      OH2            26.9410526693       33.6984763771      -51.4181831629  TIP3      16170           0.0000000000
     70761     16362  TIP3      H1             26.9416965306       33.1544024287      -52.2131865653  TIP3      16170           0.0000000000
     70762     16362  TIP3      H2             27.7095129716       33.3328337750      -50.9415572666  TIP3      16170           0.0000000000
     70763     16363  TIP3      OH2            25.9446079855       29.0434856942      -50.4242487911  TIP3      16171           0.0000000000
     70764     16363  TIP3      H1             26.4996915427       29.1446748479      -51.2223433163  TIP3      16171           0.0000000000
     70765     16363  TIP3      H2             26.3327378577       29.7063926074      -49.8111265747  TIP3      16171           0.0000000000
     70766     16364  TIP3      OH2            32.3043705301       34.6196081845      -49.7187074480  TIP3      16172           0.0000000000
     70767     16364  TIP3      H1             32.0528360413       35.2419182072      -49.0506512141  TIP3      16172           0.0000000000
     70768     16364  TIP3      H2             32.0851299347       33.7494005142      -49.3018685400  TIP3      16172           0.0000000000
     70769     16365  TIP3      OH2            26.8969127995       33.4795013641      -45.7248156801  TIP3      16173           0.0000000000
     70770     16365  TIP3      H1             26.4643588802       34.2221099635      -45.2475063401  TIP3      16173           0.0000000000
     70771     16365  TIP3      H2             26.2323182829       33.2472341689      -46.4269980440  TIP3      16173           0.0000000000
     70772     16366  TIP3      OH2            32.8715041217       28.8191911831      -58.3304942665  TIP3      16174           0.0000000000
     70773     16366  TIP3      H1             33.4226497565       29.0513942853      -57.5437167092  TIP3      16174           0.0000000000
     70774     16366  TIP3      H2             33.2734407202       29.3459247657      -59.0504971229  TIP3      16174           0.0000000000
     70775     16367  TIP3      OH2            23.8420716688       29.6343713103      -46.5737648418  TIP3      16175           0.0000000000
     70776     16367  TIP3      H1             23.8958597590       30.3028178113      -45.8668482109  TIP3      16175           0.0000000000
     70777     16367  TIP3      H2             22.8994227546       29.7213984568      -46.7852698300  TIP3      16175           0.0000000000
     70778     16368  TIP3      OH2            30.5479015569       35.5346026379      -54.8434971134  TIP3      16176           0.0000000000
     70779     16368  TIP3      H1             31.0741340526       35.8723906938      -54.1088959436  TIP3      16176           0.0000000000
     70780     16368  TIP3      H2             30.0533392565       36.3072154996      -55.1342163376  TIP3      16176           0.0000000000
     70781     16369  TIP3      OH2            25.1290808281       35.4244899300      -44.9939632413  TIP3      16177           0.0000000000
     70782     16369  TIP3      H1             25.0550161768       35.3953613311      -45.9710974770  TIP3      16177           0.0000000000
     70783     16369  TIP3      H2             24.1895372679       35.3579856982      -44.7258302997  TIP3      16177           0.0000000000
     70784     16370  TIP3      OH2            24.5743738849       29.3150655348      -56.4529139815  TIP3      16178           0.0000000000
     70785     16370  TIP3      H1             24.3010278218       30.0998976258      -56.9742370577  TIP3      16178           0.0000000000
     70786     16370  TIP3      H2             23.9310250124       28.6504349265      -56.7039872840  TIP3      16178           0.0000000000
     70787     16371  TIP3      OH2            20.6674946957       31.7550897018      -47.5682722920  TIP3      16179           0.0000000000
     70788     16371  TIP3      H1             20.2358387470       31.6661639364      -48.4379366937  TIP3      16179           0.0000000000
     70789     16371  TIP3      H2             20.7574328033       30.8055582838      -47.3556245432  TIP3      16179           0.0000000000
     70790     16372  TIP3      OH2            20.4705130347       34.4414435766      -50.7548941879  TIP3      16180           0.0000000000
     70791     16372  TIP3      H1             21.4265529597       34.3957773020      -50.8457354349  TIP3      16180           0.0000000000
     70792     16372  TIP3      H2             20.3759626323       35.2734659097      -50.2658760637  TIP3      16180           0.0000000000
     70793     16373  TIP3      OH2            29.6177520287       34.7393999017      -46.2537979352  TIP3      16181           0.0000000000
     70794     16373  TIP3      H1             29.7196341174       35.5509571355      -45.7455357092  TIP3      16181           0.0000000000
     70795     16373  TIP3      H2             28.7731110134       34.3431568212      -45.9697159427  TIP3      16181           0.0000000000
     70796     16374  TIP3      OH2            35.3238904300       26.8293737001      -44.6049401710  TIP3      16182           0.0000000000
     70797     16374  TIP3      H1             35.2881006108       27.1796102612      -45.4989669558  TIP3      16182           0.0000000000
     70798     16374  TIP3      H2             35.8628727934       26.0045221257      -44.7580168515  TIP3      16182           0.0000000000
     70799     16375  TIP3      OH2            22.9695817707       33.0778869367      -46.6318474959  TIP3      16183           0.0000000000
     70800     16375  TIP3      H1             23.1790214273       32.6967244751      -45.7547502310  TIP3      16183           0.0000000000
     70801     16375  TIP3      H2             22.1004548564       32.6864994742      -46.8565804511  TIP3      16183           0.0000000000
     70802     16376  TIP3      OH2            25.6507846385       21.5436227098      -50.6781165725  TIP3      16184           0.0000000000
     70803     16376  TIP3      H1             24.7420458520       21.4101134688      -51.0267368233  TIP3      16184           0.0000000000
     70804     16376  TIP3      H2             25.5169042963       22.3721702407      -50.1901435878  TIP3      16184           0.0000000000
     70805     16377  TIP3      OH2            30.2894954411       21.2014130898      -47.3219763793  TIP3      16185           0.0000000000
     70806     16377  TIP3      H1             30.6851668706       20.7852437076      -46.5340694232  TIP3      16185           0.0000000000
     70807     16377  TIP3      H2             29.3181251077       21.0883803845      -47.1717927535  TIP3      16185           0.0000000000
     70808     16378  TIP3      OH2            33.5022083472       25.0111058258      -46.4822629219  TIP3      16186           0.0000000000
     70809     16378  TIP3      H1             33.0191927650       24.8398726588      -45.6392952071  TIP3      16186           0.0000000000
     70810     16378  TIP3      H2             33.4269133652       25.9669999711      -46.6152666702  TIP3      16186           0.0000000000
     70811     16379  TIP3      OH2            34.3770962840       29.7758333950      -60.5249289541  TIP3      16187           0.0000000000
     70812     16379  TIP3      H1             34.2989406961       29.6468975917      -61.4988509730  TIP3      16187           0.0000000000
     70813     16379  TIP3      H2             35.1451844799       30.3464832282      -60.4895041737  TIP3      16187           0.0000000000
     70814     16380  TIP3      OH2            29.9336423893       23.7935271352      -60.0108722361  TIP3      16188           0.0000000000
     70815     16380  TIP3      H1             29.6130525800       23.7305061640      -59.0923787144  TIP3      16188           0.0000000000
     70816     16380  TIP3      H2             29.6187893379       22.9205382296      -60.3206386684  TIP3      16188           0.0000000000
     70817     16381  TIP3      OH2            25.7511752265       26.5176744142      -49.4182811341  TIP3      16189           0.0000000000
     70818     16381  TIP3      H1             25.0077148538       26.5036792653      -48.7898822559  TIP3      16189           0.0000000000
     70819     16381  TIP3      H2             25.6983241197       27.4224160821      -49.8008038584  TIP3      16189           0.0000000000
     70820     16382  TIP3      OH2            25.7189792734       26.6342986684      -54.5580931226  TIP3      16190           0.0000000000
     70821     16382  TIP3      H1             24.7795129444       26.4005986712      -54.6944483972  TIP3      16190           0.0000000000
     70822     16382  TIP3      H2             26.0959755134       26.3563109546      -55.4155443450  TIP3      16190           0.0000000000
     70823     16383  TIP3      OH2            31.2432368801       27.1386573930      -55.7813950609  TIP3      16191           0.0000000000
     70824     16383  TIP3      H1             30.8338104038       27.9528160468      -56.1592163961  TIP3      16191           0.0000000000
     70825     16383  TIP3      H2             31.9246381858       26.9683750091      -56.4498525263  TIP3      16191           0.0000000000
     70826     16384  TIP3      OH2            30.2914416525       27.3440272642      -44.3513717001  TIP3      16192           0.0000000000
     70827     16384  TIP3      H1             29.7740619109       26.5619743320      -44.0481706627  TIP3      16192           0.0000000000
     70828     16384  TIP3      H2             31.1348932507       27.2202439487      -43.8814492691  TIP3      16192           0.0000000000
     70829     16385  TIP3      OH2            32.2288505564       26.6395963130      -52.9306911680  TIP3      16193           0.0000000000
     70830     16385  TIP3      H1             31.9956641678       27.1865583946      -53.6999348221  TIP3      16193           0.0000000000
     70831     16385  TIP3      H2             32.3571407293       25.7822691188      -53.3863963873  TIP3      16193           0.0000000000
     70832     16386  TIP3      OH2            23.3660176182       26.7623638019      -47.7500776341  TIP3      16194           0.0000000000
     70833     16386  TIP3      H1             23.4504860741       27.1700524794      -46.8706541224  TIP3      16194           0.0000000000
     70834     16386  TIP3      H2             22.9272134276       25.9232999929      -47.5386459105  TIP3      16194           0.0000000000
     70835     16387  TIP3      OH2            26.7375442281       24.1593369539      -60.8902594140  TIP3      16195           0.0000000000
     70836     16387  TIP3      H1             26.2837202375       23.7371403961      -60.1383695666  TIP3      16195           0.0000000000
     70837     16387  TIP3      H2             26.0305201491       24.5914042032      -61.3855224806  TIP3      16195           0.0000000000
     70838     16388  TIP3      OH2            20.0213512318       23.8582983933      -53.7512643083  TIP3      16196           0.0000000000
     70839     16388  TIP3      H1             20.6985198268       23.8501993326      -53.0402932494  TIP3      16196           0.0000000000
     70840     16388  TIP3      H2             20.4674832720       23.5245017680      -54.5365467517  TIP3      16196           0.0000000000
     70841     16389  TIP3      OH2            21.3087480543       24.5873767439      -58.3732955975  TIP3      16197           0.0000000000
     70842     16389  TIP3      H1             21.7957723409       25.1913927977      -58.9721299507  TIP3      16197           0.0000000000
     70843     16389  TIP3      H2             20.6023430877       25.2216872989      -58.1062990994  TIP3      16197           0.0000000000
     70844     16390  TIP3      OH2            31.4427702930       28.1968245127      -48.4005388240  TIP3      16198           0.0000000000
     70845     16390  TIP3      H1             31.8386395594       27.5042882104      -48.9729296548  TIP3      16198           0.0000000000
     70846     16390  TIP3      H2             30.9785026560       27.6745802969      -47.7227623665  TIP3      16198           0.0000000000
     70847     16391  TIP3      OH2            28.2526099159       24.1898787850      -53.5541283669  TIP3      16199           0.0000000000
     70848     16391  TIP3      H1             27.3169679658       24.1875912505      -53.2527570632  TIP3      16199           0.0000000000
     70849     16391  TIP3      H2             28.7532364040       24.0131659449      -52.7400504841  TIP3      16199           0.0000000000
     70850     16392  TIP3      OH2            23.0523928027       25.7046862561      -54.6785269011  TIP3      16200           0.0000000000
     70851     16392  TIP3      H1             22.1851682477       25.9118084137      -55.0898049890  TIP3      16200           0.0000000000
     70852     16392  TIP3      H2             23.3651472972       24.9037834772      -55.1193713762  TIP3      16200           0.0000000000
     70853     16393  TIP3      OH2            26.7069326092       25.7750093954      -57.0628672587  TIP3      16201           0.0000000000
     70854     16393  TIP3      H1             27.6649324799       25.8909696072      -56.9035758356  TIP3      16201           0.0000000000
     70855     16393  TIP3      H2             26.4740122757       26.4618644277      -57.7177162236  TIP3      16201           0.0000000000
     70856     16394  TIP3      OH2            32.5954796927       23.3899386754      -50.3048270274  TIP3      16202           0.0000000000
     70857     16394  TIP3      H1             31.9263895021       23.4609693716      -49.6006501481  TIP3      16202           0.0000000000
     70858     16394  TIP3      H2             32.1000425288       23.1764803601      -51.1099542496  TIP3      16202           0.0000000000
     70859     16395  TIP3      OH2            25.4194639224       26.9568946499      -59.4750531735  TIP3      16203           0.0000000000
     70860     16395  TIP3      H1             24.8864980909       26.5715201796      -60.1913474064  TIP3      16203           0.0000000000
     70861     16395  TIP3      H2             26.2391428738       27.1661813216      -59.9497796023  TIP3      16203           0.0000000000
     70862     16396  TIP3      OH2            23.5349511564       31.5712266330      -44.4218867208  TIP3      16204           0.0000000000
     70863     16396  TIP3      H1             24.2633109144       31.7729401069      -43.8108111556  TIP3      16204           0.0000000000
     70864     16396  TIP3      H2             22.7679417151       31.5993188876      -43.8123066015  TIP3      16204           0.0000000000
     70865     16397  TIP3      OH2            29.5394297582       26.9376063114      -51.6667336788  TIP3      16205           0.0000000000
     70866     16397  TIP3      H1             30.1482012644       26.4086485545      -52.1980196915  TIP3      16205           0.0000000000
     70867     16397  TIP3      H2             29.3983556385       26.3911801192      -50.8820855478  TIP3      16205           0.0000000000
     70868     16398  TIP3      OH2            24.4530681640       23.0196370752      -55.3362359077  TIP3      16206           0.0000000000
     70869     16398  TIP3      H1             24.4138184656       22.0687351006      -55.1835375306  TIP3      16206           0.0000000000
     70870     16398  TIP3      H2             25.3382354163       23.0653022191      -55.7490487085  TIP3      16206           0.0000000000
     70871     16399  TIP3      OH2            28.1810318377       25.2641292682      -49.2515635628  TIP3      16207           0.0000000000
     70872     16399  TIP3      H1             27.3575508871       25.7849408620      -49.1639561093  TIP3      16207           0.0000000000
     70873     16399  TIP3      H2             28.7370507963       25.6183106189      -48.5309682836  TIP3      16207           0.0000000000
     70874     16400  TIP3      OH2            28.7712871723       31.4638367049      -57.5401729428  TIP3      16208           0.0000000000
     70875     16400  TIP3      H1             27.9659326330       31.0132042878      -57.8817469737  TIP3      16208           0.0000000000
     70876     16400  TIP3      H2             28.5446987929       31.6001779579      -56.6003600219  TIP3      16208           0.0000000000
     70877     16401  TIP3      OH2            35.6379694840       30.7135036355      -48.7546902173  TIP3      16209           0.0000000000
     70878     16401  TIP3      H1             36.3652670945       30.8422377006      -49.4068910484  TIP3      16209           0.0000000000
     70879     16401  TIP3      H2             34.8778972237       30.7173337054      -49.3650676435  TIP3      16209           0.0000000000
     70880     16402  TIP3      OH2            32.6303915188       24.3138313052      -59.3839807917  TIP3      16210           0.0000000000
     70881     16402  TIP3      H1             31.6721748758       24.4352265177      -59.5268162650  TIP3      16210           0.0000000000
     70882     16402  TIP3      H2             32.9121193285       25.1758562278      -59.0152032019  TIP3      16210           0.0000000000
     70883     16403  TIP3      OH2            30.2521172686       31.7785904687      -46.3233776969  TIP3      16211           0.0000000000
     70884     16403  TIP3      H1             29.9081914060       31.3420436322      -45.5353724220  TIP3      16211           0.0000000000
     70885     16403  TIP3      H2             30.0399643639       32.7057456561      -46.1969953924  TIP3      16211           0.0000000000
     70886     16404  TIP3      OH2            33.3322892386       26.2420324932      -57.7838159244  TIP3      16212           0.0000000000
     70887     16404  TIP3      H1             34.2007524598       26.1006803110      -57.3513349572  TIP3      16212           0.0000000000
     70888     16404  TIP3      H2             33.4356889336       27.0812518871      -58.2633574324  TIP3      16212           0.0000000000
     70889     16405  TIP3      OH2            23.8753972482       30.8815900665      -51.7540858413  TIP3      16213           0.0000000000
     70890     16405  TIP3      H1             24.5622546691       30.8119987890      -52.4481304324  TIP3      16213           0.0000000000
     70891     16405  TIP3      H2             23.9400446187       30.0227752671      -51.2990221475  TIP3      16213           0.0000000000
     70892     16406  TIP3      OH2            30.8394300626       32.9394470542      -58.5235225263  TIP3      16214           0.0000000000
     70893     16406  TIP3      H1             30.5335381570       33.8057965345      -58.1857101811  TIP3      16214           0.0000000000
     70894     16406  TIP3      H2             30.1123076487       32.3367212048      -58.2783338666  TIP3      16214           0.0000000000
     70895     16407  TIP3      OH2            20.8684250895       29.2879092050      -46.4930096829  TIP3      16215           0.0000000000
     70896     16407  TIP3      H1             21.0389894624       28.8430414748      -45.6401738487  TIP3      16215           0.0000000000
     70897     16407  TIP3      H2             20.2486659798       28.6782110110      -46.9320579554  TIP3      16215           0.0000000000
     70898     16408  TIP3      OH2            27.8807344142       28.8497591944      -44.3190981411  TIP3      16216           0.0000000000
     70899     16408  TIP3      H1             27.5618194934       28.5358353553      -45.1766546950  TIP3      16216           0.0000000000
     70900     16408  TIP3      H2             28.8042436591       28.5237358243      -44.3183673980  TIP3      16216           0.0000000000
     70901     16409  TIP3      OH2            32.5628736518       34.2444321277      -46.4281963341  TIP3      16217           0.0000000000
     70902     16409  TIP3      H1             31.6253620228       34.3018424776      -46.6195239565  TIP3      16217           0.0000000000
     70903     16409  TIP3      H2             32.5294185861       34.4192515606      -45.4578453779  TIP3      16217           0.0000000000
     70904     16410  TIP3      OH2            33.6770340470       29.9801105946      -50.4608339247  TIP3      16218           0.0000000000
     70905     16410  TIP3      H1             32.7392554512       29.7641380974      -50.6088890217  TIP3      16218           0.0000000000
     70906     16410  TIP3      H2             34.1561014133       29.2471687002      -50.8867079167  TIP3      16218           0.0000000000
     70907     16411  TIP3      OH2            26.2929243464       34.3032217152      -54.4610577681  TIP3      16219           0.0000000000
     70908     16411  TIP3      H1             26.7539505151       35.1467644575      -54.5380033548  TIP3      16219           0.0000000000
     70909     16411  TIP3      H2             25.3781255360       34.5386503435      -54.6555746907  TIP3      16219           0.0000000000
     70910     16412  TIP3      OH2            22.0196910369       29.1762869129      -59.7994873018  TIP3      16220           0.0000000000
     70911     16412  TIP3      H1             22.5994044442       29.8339598147      -59.3806375980  TIP3      16220           0.0000000000
     70912     16412  TIP3      H2             21.1295589271       29.4907707723      -59.5506801760  TIP3      16220           0.0000000000
     70913     16413  TIP3      OH2            27.6901151718       31.9933529756      -54.8524932985  TIP3      16221           0.0000000000
     70914     16413  TIP3      H1             27.3715113755       32.9138766690      -54.7625215421  TIP3      16221           0.0000000000
     70915     16413  TIP3      H2             26.9613280893       31.5138900603      -54.4116622262  TIP3      16221           0.0000000000
     70916     16414  TIP3      OH2            28.4171998019       35.8613350759      -48.7508965097  TIP3      16222           0.0000000000
     70917     16414  TIP3      H1             28.5652559558       36.8129606939      -48.8287771934  TIP3      16222           0.0000000000
     70918     16414  TIP3      H2             28.7347582064       35.7147907451      -47.8483209179  TIP3      16222           0.0000000000
     70919     16415  TIP3      OH2            31.6727053546       32.1914761130      -48.8152634809  TIP3      16223           0.0000000000
     70920     16415  TIP3      H1             31.3038424833       31.9677485948      -47.9371128632  TIP3      16223           0.0000000000
     70921     16415  TIP3      H2             32.2862105751       31.4650697495      -48.9958623100  TIP3      16223           0.0000000000
     70922     16416  TIP3      OH2            33.9649313393       33.1997846888      -59.7487630768  TIP3      16224           0.0000000000
     70923     16416  TIP3      H1             34.2866399383       32.8202711096      -58.9067782041  TIP3      16224           0.0000000000
     70924     16416  TIP3      H2             33.0101940555       33.0703105820      -59.6501184600  TIP3      16224           0.0000000000
     70925     16417  TIP3      OH2            22.5178231250       24.0216422648      -46.9486111226  TIP3      16225           0.0000000000
     70926     16417  TIP3      H1             21.6116250776       24.3747867743      -46.9639215873  TIP3      16225           0.0000000000
     70927     16417  TIP3      H2             22.4077903699       23.1778819284      -46.4816639104  TIP3      16225           0.0000000000
     70928     16418  TIP3      OH2            34.7605432998       31.8149584821      -57.5243050125  TIP3      16226           0.0000000000
     70929     16418  TIP3      H1             34.5405227910       31.0764359631      -56.9168368100  TIP3      16226           0.0000000000
     70930     16418  TIP3      H2             35.6852490562       32.0022640878      -57.2853684634  TIP3      16226           0.0000000000
     70931     16419  TIP3      OH2            22.1333440143       35.7722064081      -48.5241043135  TIP3      16227           0.0000000000
     70932     16419  TIP3      H1             22.4251984518       34.8591386637      -48.4807894834  TIP3      16227           0.0000000000
     70933     16419  TIP3      H2             22.3340200823       36.1159651398      -47.6450077418  TIP3      16227           0.0000000000
     70934     16420  TIP3      OH2            28.1020523245       34.3054814117      -61.2423521162  TIP3      16228           0.0000000000
     70935     16420  TIP3      H1             28.2000282316       33.5484542654      -61.8419529089  TIP3      16228           0.0000000000
     70936     16420  TIP3      H2             27.6715584070       33.8823916602      -60.4683555425  TIP3      16228           0.0000000000
     70937     16421  TIP3      OH2            26.8564720471       33.8154073115      -58.7945768426  TIP3      16229           0.0000000000
     70938     16421  TIP3      H1             27.1402292366       33.3286020398      -58.0102958698  TIP3      16229           0.0000000000
     70939     16421  TIP3      H2             26.9833461163       34.7524032871      -58.5263817372  TIP3      16229           0.0000000000
     70940     16422  TIP3      OH2            23.4222805759       31.1132946859      -58.3013011578  TIP3      16230           0.0000000000
     70941     16422  TIP3      H1             22.7062528514       31.5097381294      -57.7675874820  TIP3      16230           0.0000000000
     70942     16422  TIP3      H2             23.9248649504       31.8963683708      -58.5957406737  TIP3      16230           0.0000000000
     70943     16423  TIP3      OH2            31.2201984961       23.7883640920      -47.9684533767  TIP3      16231           0.0000000000
     70944     16423  TIP3      H1             31.9727959588       23.8556250162      -47.3661582100  TIP3      16231           0.0000000000
     70945     16423  TIP3      H2             30.8569713077       22.9068455360      -47.7665437570  TIP3      16231           0.0000000000
     70946     16424  TIP3      OH2            32.0554549352       23.3461521270      -56.8908940716  TIP3      16232           0.0000000000
     70947     16424  TIP3      H1             32.2331715075       23.8307201471      -57.7190339190  TIP3      16232           0.0000000000
     70948     16424  TIP3      H2             32.6050524851       23.8177246349      -56.2522617762  TIP3      16232           0.0000000000
     70949     16425  TIP3      OH2            29.7336402041       35.5627791296      -58.0639022276  TIP3      16233           0.0000000000
     70950     16425  TIP3      H1             28.8762924671       36.0302502151      -58.0220192666  TIP3      16233           0.0000000000
     70951     16425  TIP3      H2             30.2065438917       36.0592213211      -58.7548021989  TIP3      16233           0.0000000000
     70952     16426  TIP3      OH2            29.2293372969       25.1159754315      -56.0751890193  TIP3      16234           0.0000000000
     70953     16426  TIP3      H1             30.0100139153       25.7014695557      -56.0279490676  TIP3      16234           0.0000000000
     70954     16426  TIP3      H2             28.9622091550       24.9977930998      -55.1444641567  TIP3      16234           0.0000000000
     70955     16427  TIP3      OH2            29.8075870502       26.1470671860      -46.8850318407  TIP3      16235           0.0000000000
     70956     16427  TIP3      H1             29.8891280241       26.7064905951      -46.0869113383  TIP3      16235           0.0000000000
     70957     16427  TIP3      H2             30.4581271248       25.4364340478      -46.7940658163  TIP3      16235           0.0000000000
     70958     16428  TIP3      OH2            30.0327312515       22.1819037229      -55.2137621638  TIP3      16236           0.0000000000
     70959     16428  TIP3      H1             29.7583487495       22.8264756942      -54.5428911690  TIP3      16236           0.0000000000
     70960     16428  TIP3      H2             30.7513307490       22.7112906137      -55.6398825744  TIP3      16236           0.0000000000
     70961     16429  TIP3      OH2            27.1392600259      -36.4663235264      -58.0313146681  TIP3      16237           0.0000000000
     70962     16429  TIP3      H1             27.1630696598      -35.6804217484      -58.6091710756  TIP3      16237           0.0000000000
     70963     16429  TIP3      H2             26.8408903344      -36.0961313162      -57.1864384638  TIP3      16237           0.0000000000
     70964     16430  TIP3      OH2            25.7121467158       23.2650796667      -58.4423993791  TIP3      16238           0.0000000000
     70965     16430  TIP3      H1             25.6922180911       24.1816104806      -58.1012367465  TIP3      16238           0.0000000000
     70966     16430  TIP3      H2             26.6462222001       23.0437528564      -58.2466629425  TIP3      16238           0.0000000000
     70967     16431  TIP3      OH2            35.8355049388       23.7816055065      -46.2351307569  TIP3      16239           0.0000000000
     70968     16431  TIP3      H1             35.0020800376       24.3106905243      -46.1996630998  TIP3      16239           0.0000000000
     70969     16431  TIP3      H2             36.2318618364       24.0717204271      -47.0569939711  TIP3      16239           0.0000000000
     70970     16432  TIP3      OH2            34.5659417337       27.7993404983      -51.9870626558  TIP3      16240           0.0000000000
     70971     16432  TIP3      H1             33.7461285603       27.3629720898      -52.2967959208  TIP3      16240           0.0000000000
     70972     16432  TIP3      H2             34.9949153255       27.0856653642      -51.5065873282  TIP3      16240           0.0000000000
     70973     16433  TIP3      OH2            23.9843790729       33.7196512975      -59.4412033939  TIP3      16241           0.0000000000
     70974     16433  TIP3      H1             24.6584115823       34.3585276963      -59.1667855675  TIP3      16241           0.0000000000
     70975     16433  TIP3      H2             24.4919029093       33.2487128270      -60.1284528026  TIP3      16241           0.0000000000
     70976     16434  TIP3      OH2            22.3069111368       26.3922437679      -60.2976048018  TIP3      16242           0.0000000000
     70977     16434  TIP3      H1             22.3282901133       27.3488886087      -60.0868227829  TIP3      16242           0.0000000000
     70978     16434  TIP3      H2             21.4160808696       26.2229851399      -60.6056015346  TIP3      16242           0.0000000000
     70979     16435  TIP3      OH2            23.1247979687       21.1853112339      -51.5114575336  TIP3      16243           0.0000000000
     70980     16435  TIP3      H1             22.9529542777       21.1828098153      -52.4734048044  TIP3      16243           0.0000000000
     70981     16435  TIP3      H2             22.7222431627       20.3256632633      -51.2614830388  TIP3      16243           0.0000000000
     70982     16436  TIP3      OH2            22.0910906383       35.1053334075      -55.4361552224  TIP3      16244           0.0000000000
     70983     16436  TIP3      H1             21.2227016058       35.5288182605      -55.4432353673  TIP3      16244           0.0000000000
     70984     16436  TIP3      H2             22.5838338197       35.5908809781      -56.1035216675  TIP3      16244           0.0000000000
     70985     16437  TIP3      OH2            26.2539579936       36.3487418032      -42.2999835920  TIP3      16245           0.0000000000
     70986     16437  TIP3      H1             27.1087028198       35.9486954003      -42.1272451558  TIP3      16245           0.0000000000
     70987     16437  TIP3      H2             26.1821740708       36.2129547831      -43.2617256873  TIP3      16245           0.0000000000
     70988     16438  TIP3      OH2            30.1317619467       36.1026110754      -60.9187054461  TIP3      16246           0.0000000000
     70989     16438  TIP3      H1             29.3836925038       35.4779757362      -60.9379571067  TIP3      16246           0.0000000000
     70990     16438  TIP3      H2             30.8096992974       35.6479515082      -61.4439690873  TIP3      16246           0.0000000000
     70991     16439  TIP3      OH2            32.5930634647       34.6793127826      -43.9016909014  TIP3      16247           0.0000000000
     70992     16439  TIP3      H1             32.0976156934       34.0059788579      -43.4022921055  TIP3      16247           0.0000000000
     70993     16439  TIP3      H2             33.1987752916       35.0183670087      -43.2288087743  TIP3      16247           0.0000000000
     70994     16440  TIP3      OH2            34.9413870566       35.9277147805      -60.6699043457  TIP3      16248           0.0000000000
     70995     16440  TIP3      H1             35.0389363172       35.0018727051      -60.4155258783  TIP3      16248           0.0000000000
     70996     16440  TIP3      H2             35.4999292516       36.0586258829      -61.4546721813  TIP3      16248           0.0000000000
     70997     16441  TIP3      OH2            21.1882679046       31.4951386449      -43.1093290954  TIP3      16249           0.0000000000
     70998     16441  TIP3      H1             21.3655570645       30.6045757572      -43.4580762267  TIP3      16249           0.0000000000
     70999     16441  TIP3      H2             20.4774988182       31.7996925876      -43.7061598854  TIP3      16249           0.0000000000
     71000     16442  TIP3      OH2            25.5401569110       31.8438733692      -61.1143979059  TIP3      16250           0.0000000000
     71001     16442  TIP3      H1             25.6962350431       31.0919839904      -60.5192824490  TIP3      16250           0.0000000000
     71002     16442  TIP3      H2             26.2972698487       31.7452439627      -61.7245659513  TIP3      16250           0.0000000000
     71003     16443  TIP3      OH2            27.9334561194       31.5124162393      -43.7551769070  TIP3      16251           0.0000000000
     71004     16443  TIP3      H1             27.5709300674       31.8134358728      -44.6096847906  TIP3      16251           0.0000000000
     71005     16443  TIP3      H2             27.9887799367       30.5280781098      -43.8509496562  TIP3      16251           0.0000000000
     71006     16444  TIP3      OH2            31.0012510974       32.9689962053      -61.3142611118  TIP3      16252           0.0000000000
     71007     16444  TIP3      H1             30.6738875283       33.0822326921      -60.4094534715  TIP3      16252           0.0000000000
     71008     16444  TIP3      H2             30.7759425127       32.0277433823      -61.4761330840  TIP3      16252           0.0000000000
     71009     16445  TIP3      OH2            33.5884778963       31.3374741167      -46.3493388276  TIP3      16253           0.0000000000
     71010     16445  TIP3      H1             34.3778183866       31.9299636913      -46.4292824156  TIP3      16253           0.0000000000
     71011     16445  TIP3      H2             32.9115050623       32.0207800622      -46.3046330998  TIP3      16253           0.0000000000
     71012     16446  TIP3      OH2            22.1302820309       28.7613942265      -43.7555446805  TIP3      16254           0.0000000000
     71013     16446  TIP3      H1             22.5358753794       27.8927615417      -43.8470474137  TIP3      16254           0.0000000000
     71014     16446  TIP3      H2             21.8815965905       28.7491820237      -42.8207141460  TIP3      16254           0.0000000000
     71015     16447  TIP3      OH2            26.7585894707       29.8837697245      -58.6740972232  TIP3      16255           0.0000000000
     71016     16447  TIP3      H1             26.2462431203       29.3465036005      -58.0523612005  TIP3      16255           0.0000000000
     71017     16447  TIP3      H2             27.0496816723       29.2126012726      -59.3347966504  TIP3      16255           0.0000000000
     71018     16448  TIP3      OH2            26.0170282118       27.6934896784      -46.3956541685  TIP3      16256           0.0000000000
     71019     16448  TIP3      H1             25.4210257116       28.4149194136      -46.1385491570  TIP3      16256           0.0000000000
     71020     16448  TIP3      H2             26.4149078819       28.0617831196      -47.2029477722  TIP3      16256           0.0000000000
     71021     16449  TIP3      OH2            27.8202472776       28.1132627499      -60.4864935219  TIP3      16257           0.0000000000
     71022     16449  TIP3      H1             27.6754775987       28.0217192414      -61.4504466360  TIP3      16257           0.0000000000
     71023     16449  TIP3      H2             28.7977708167       28.1625725573      -60.4162022350  TIP3      16257           0.0000000000
     71024     16450  TIP3      OH2            31.0891211429       30.2669966378      -43.0550343416  TIP3      16258           0.0000000000
     71025     16450  TIP3      H1             32.0449637380       30.2560845727      -43.1674149576  TIP3      16258           0.0000000000
     71026     16450  TIP3      H2             30.9336815124       29.4912089902      -42.4951407858  TIP3      16258           0.0000000000
     71027     16451  TIP3      OH2            26.4225415671       25.0720166769      -45.3374453642  TIP3      16259           0.0000000000
     71028     16451  TIP3      H1             26.5401017249       24.3631262951      -45.9958167968  TIP3      16259           0.0000000000
     71029     16451  TIP3      H2             26.3784684590       25.8831017764      -45.8863955532  TIP3      16259           0.0000000000
     71030     16452  TIP3      OH2            26.8293876635       23.4537027283      -47.7825511282  TIP3      16260           0.0000000000
     71031     16452  TIP3      H1             27.3358411660       23.9198303922      -48.4899779354  TIP3      16260           0.0000000000
     71032     16452  TIP3      H2             25.9339979991       23.3778974922      -48.1868989741  TIP3      16260           0.0000000000
     71033     16453  TIP3      OH2            28.3673111349       28.9443167360      -47.5411646940  TIP3      16261           0.0000000000
     71034     16453  TIP3      H1             29.1199069215       28.7773106723      -48.1142822603  TIP3      16261           0.0000000000
     71035     16453  TIP3      H2             27.9993021390       29.7762991741      -47.8775287876  TIP3      16261           0.0000000000
     71036     16454  TIP3      OH2            32.8157981126       26.7250524551      -42.5669910968  TIP3      16262           0.0000000000
     71037     16454  TIP3      H1             33.0369248602       25.7873573443      -42.6809975398  TIP3      16262           0.0000000000
     71038     16454  TIP3      H2             33.6885831945       27.1429811283      -42.6088946578  TIP3      16262           0.0000000000
     71039     16455  TIP3      OH2            34.1184343548       29.5319549101      -44.4096898138  TIP3      16263           0.0000000000
     71040     16455  TIP3      H1             33.8256541867       30.2196998708      -45.0481323590  TIP3      16263           0.0000000000
     71041     16455  TIP3      H2             35.0489744604       29.4324168088      -44.6185838899  TIP3      16263           0.0000000000
     71042     16456  TIP3      OH2            24.8848484830       26.3234475670      -43.4178239758  TIP3      16264           0.0000000000
     71043     16456  TIP3      H1             24.1155050044       25.7452594711      -43.5847250620  TIP3      16264           0.0000000000
     71044     16456  TIP3      H2             25.5390472912       25.9531350570      -44.0395624997  TIP3      16264           0.0000000000
     71045     16457  TIP3      OH2            27.6151435628       20.8901787893      -47.3960328948  TIP3      16265           0.0000000000
     71046     16457  TIP3      H1             27.4311035965       21.8534422383      -47.4927265964  TIP3      16265           0.0000000000
     71047     16457  TIP3      H2             26.8667074380       20.5232214050      -47.8975782866  TIP3      16265           0.0000000000
     71048     16458  TIP3      OH2            28.8854817919       25.2216461998      -43.7651565096  TIP3      16266           0.0000000000
     71049     16458  TIP3      H1             28.5697510514       24.9884323715      -42.8706034353  TIP3      16266           0.0000000000
     71050     16458  TIP3      H2             28.1047994810       25.0185356259      -44.3079497049  TIP3      16266           0.0000000000
     71051     16459  TIP3      OH2            31.5638595055       24.3868697476      -44.6697642555  TIP3      16267           0.0000000000
     71052     16459  TIP3      H1             30.6019800052       24.4077960786      -44.5476210237  TIP3      16267           0.0000000000
     71053     16459  TIP3      H2             31.8833888466       23.7375378453      -44.0177411820  TIP3      16267           0.0000000000
     71054     16460  TIP3      OH2            33.2819065058       22.9576860144      -42.7404089950  TIP3      16268           0.0000000000
     71055     16460  TIP3      H1             33.1298942474       21.9892432065      -42.7452731465  TIP3      16268           0.0000000000
     71056     16460  TIP3      H2             32.9232782260       23.2696344176      -41.8856868148  TIP3      16268           0.0000000000
     71057     16461  TIP3      OH2            22.9614419514       24.2597976130      -43.6619010077  TIP3      16269           0.0000000000
     71058     16461  TIP3      H1             23.2110195443       23.5239679785      -44.2482541265  TIP3      16269           0.0000000000
     71059     16461  TIP3      H2             22.8734001900       23.8118816819      -42.7976176906  TIP3      16269           0.0000000000
     71060     16462  TIP3      OH2            27.8298277964       20.2846076187      -44.6942886068  TIP3      16270           0.0000000000
     71061     16462  TIP3      H1             28.5093640968       19.5812648641      -44.7112257869  TIP3      16270           0.0000000000
     71062     16462  TIP3      H2             27.7151081234       20.4273528373      -45.6544269373  TIP3      16270           0.0000000000
     71063     16463  TIP3      OH2            28.1930428964       21.8981411240      -42.5782121641  TIP3      16271           0.0000000000
     71064     16463  TIP3      H1             28.0181495241       21.3892061655      -43.4095196878  TIP3      16271           0.0000000000
     71065     16463  TIP3      H2             27.5920467772       22.6617797096      -42.6782691342  TIP3      16271           0.0000000000
     71066     16464  TIP3      OH2            21.2399960522       33.3872110517      -59.9636427058  TIP3      16272           0.0000000000
     71067     16464  TIP3      H1             22.1902817998       33.4881590397      -59.7352725851  TIP3      16272           0.0000000000
     71068     16464  TIP3      H2             21.2967469701       32.7145997027      -60.6798690794  TIP3      16272           0.0000000000
     71069     16465  TIP3      OH2            36.2449224485       34.9533288509      -47.8869821458  TIP3      16273           0.0000000000
     71070     16465  TIP3      H1             35.5632840545       35.3932161120      -47.3815730083  TIP3      16273           0.0000000000
     71071     16465  TIP3      H2             35.7598218939       34.5812399392      -48.6576878216  TIP3      16273           0.0000000000
     71072     16466  TIP3      OH2            35.3651272091       27.9657849510      -54.5651043591  TIP3      16274           0.0000000000
     71073     16466  TIP3      H1             35.6210421763       27.0394268317      -54.5290838890  TIP3      16274           0.0000000000
     71074     16466  TIP3      H2             35.4801055773       28.2263415516      -53.6277309155  TIP3      16274           0.0000000000
     71075     16467  TIP3      OH2            20.8750553046       29.9864425855      -50.5982034277  TIP3      16275           0.0000000000
     71076     16467  TIP3      H1             21.0499777219       29.9002157984      -51.5610936483  TIP3      16275           0.0000000000
     71077     16467  TIP3      H2             21.7681271958       29.8061803395      -50.2455432837  TIP3      16275           0.0000000000
     71078     16468  TIP3      OH2            35.9492020291       23.9086102596      -61.1945001383  TIP3      16276           0.0000000000
     71079     16468  TIP3      H1             36.5364285493       23.4922826766      -60.5630914139  TIP3      16276           0.0000000000
     71080     16468  TIP3      H2             35.0863887514       23.5011543681      -61.0018318977  TIP3      16276           0.0000000000
     71081     16469  TIP3      OH2            35.5028636393       25.4165279171      -56.3645209880  TIP3      16277           0.0000000000
     71082     16469  TIP3      H1             35.7878853228       24.5764170652      -55.9605687606  TIP3      16277           0.0000000000
     71083     16469  TIP3      H2             36.3527431042       25.7660578901      -56.6575361665  TIP3      16277           0.0000000000
     71084     16470  TIP3      OH2           -37.0502012938       25.1884803859      -50.7570753910  TIP3      16278           0.0000000000
     71085     16470  TIP3      H1            -36.1639698216       25.5396373548      -50.8995273257  TIP3      16278           0.0000000000
     71086     16470  TIP3      H2            -37.2708510864       25.8313700088      -50.0616865277  TIP3      16278           0.0000000000
     71087     16471  TIP3      OH2            36.2595894925       26.8036890241      -47.7224514620  TIP3      16279           0.0000000000
     71088     16471  TIP3      H1             35.3238413763       27.0699867302      -47.6337505291  TIP3      16279           0.0000000000
     71089     16471  TIP3      H2             36.6200658814       27.4898138928      -48.3144230619  TIP3      16279           0.0000000000
     71090     16472  TIP3      OH2            20.4946926163       25.2870092257      -44.4376029006  TIP3      16280           0.0000000000
     71091     16472  TIP3      H1             21.4317127438       25.0697662466      -44.2537309259  TIP3      16280           0.0000000000
     71092     16472  TIP3      H2             20.0354951896       24.4606704118      -44.1718430075  TIP3      16280           0.0000000000
     71093     16473  TIP3      OH2            35.3091292737       22.4613804531      -55.5035370029  TIP3      16281           0.0000000000
     71094     16473  TIP3      H1             36.2408816005       22.2853613293      -55.2832301440  TIP3      16281           0.0000000000
     71095     16473  TIP3      H2             35.3268067242       22.0389487570      -56.3885283736  TIP3      16281           0.0000000000
     71096     16474  TIP3      OH2            21.7168492667       23.5682103329      -51.6383618785  TIP3      16282           0.0000000000
     71097     16474  TIP3      H1             22.1482695945       22.7522317965      -51.3081223389  TIP3      16282           0.0000000000
     71098     16474  TIP3      H2             22.2248795161       24.2658282932      -51.1949908304  TIP3      16282           0.0000000000
     71099     16475  TIP3      OH2            19.9736630215       26.5759094487      -50.5593817431  TIP3      16283           0.0000000000
     71100     16475  TIP3      H1             20.5377256817       26.3265272409      -51.3196651693  TIP3      16283           0.0000000000
     71101     16475  TIP3      H2             20.4420480419       27.3796343333      -50.2902278171  TIP3      16283           0.0000000000
     71102     16476  TIP3      OH2            20.3650145869       22.8517969586      -56.5070880789  TIP3      16284           0.0000000000
     71103     16476  TIP3      H1             19.4016330618       22.9968458901      -56.6166561773  TIP3      16284           0.0000000000
     71104     16476  TIP3      H2             20.6992694372       23.3854821764      -57.2557236577  TIP3      16284           0.0000000000
     71105     16477  TIP3      OH2            20.2898112686       21.4917659357      -48.1888053526  TIP3      16285           0.0000000000
     71106     16477  TIP3      H1             19.6191119802       21.2961890755      -47.5080494004  TIP3      16285           0.0000000000
     71107     16477  TIP3      H2             19.8291728800       22.1609930852      -48.7335007441  TIP3      16285           0.0000000000
     71108     16478  TIP3      OH2            22.5231693357       34.7425240612      -44.0132644330  TIP3      16286           0.0000000000
     71109     16478  TIP3      H1             21.6728525377       34.8851403688      -44.4710152144  TIP3      16286           0.0000000000
     71110     16478  TIP3      H2             22.2515839343       34.5827245006      -43.1073349601  TIP3      16286           0.0000000000
     71111     16479  TIP3      OH2            25.4682098671       35.6855805331      -47.6776309195  TIP3      16287           0.0000000000
     71112     16479  TIP3      H1             25.0245678366       36.4634578889      -48.0495159343  TIP3      16287           0.0000000000
     71113     16479  TIP3      H2             26.3284251994       35.6660723251      -48.1203762186  TIP3      16287           0.0000000000
     71114     16480  TIP3      OH2            24.6280753944       36.0349421147      -52.3851516924  TIP3      16288           0.0000000000
     71115     16480  TIP3      H1             24.2440420741       35.2746861485      -51.9210157843  TIP3      16288           0.0000000000
     71116     16480  TIP3      H2             25.2071179780       36.4003347014      -51.6932414746  TIP3      16288           0.0000000000
     71117     16481  TIP3      OH2            30.4239832576       22.4265526431      -52.1422919427  TIP3      16289           0.0000000000
     71118     16481  TIP3      H1             29.7604291401       21.7765691665      -51.8615204621  TIP3      16289           0.0000000000
     71119     16481  TIP3      H2             30.9906372475       21.9008236695      -52.7222018927  TIP3      16289           0.0000000000
     71120     16482  TIP3      OH2            35.5902955510       20.4634830861      -52.0670380051  TIP3      16290           0.0000000000
     71121     16482  TIP3      H1             36.1682860623       21.0880030263      -52.5136971551  TIP3      16290           0.0000000000
     71122     16482  TIP3      H2             34.6985201055       20.8218560134      -52.2828540523  TIP3      16290           0.0000000000
     71123     16483  TIP3      OH2            22.8106525187       20.9527778962      -54.1889402887  TIP3      16291           0.0000000000
     71124     16483  TIP3      H1             21.9588772596       20.6304773538      -54.5353464135  TIP3      16291           0.0000000000
     71125     16483  TIP3      H2             23.3331328664       20.1085081515      -54.2412349012  TIP3      16291           0.0000000000
     71126     16484  TIP3      OH2            21.7124783903       20.8568206578      -58.4178768226  TIP3      16292           0.0000000000
     71127     16484  TIP3      H1             22.0615083018       21.4228355755      -59.1425007133  TIP3      16292           0.0000000000
     71128     16484  TIP3      H2             20.9323029424       21.3676205757      -58.1486647116  TIP3      16292           0.0000000000
     71129     16485  TIP3      OH2            27.2482100354       20.9998691578      -54.5047380253  TIP3      16293           0.0000000000
     71130     16485  TIP3      H1             28.1609462989       21.3308972211      -54.6010420845  TIP3      16293           0.0000000000
     71131     16485  TIP3      H2             27.2644924936       20.7489840808      -53.5802900944  TIP3      16293           0.0000000000
     71132     16486  TIP3      OH2            33.0205760422       20.9508857667      -52.8833766643  TIP3      16294           0.0000000000
     71133     16486  TIP3      H1             32.9636444123       21.1336099362      -53.8295213637  TIP3      16294           0.0000000000
     71134     16486  TIP3      H2             32.5879040032       20.0700422130      -52.7726147470  TIP3      16294           0.0000000000
     71135     16487  TIP3      OH2            34.2278254199       20.9374875702      -57.3193553827  TIP3      16295           0.0000000000
     71136     16487  TIP3      H1             33.5295200083       21.6051899975      -57.3644789105  TIP3      16295           0.0000000000
     71137     16487  TIP3      H2             33.7632351050       20.1401461469      -56.9931720472  TIP3      16295           0.0000000000
     71138     16488  TIP3      OH2            23.4019719861       22.7116902401      -60.0202440872  TIP3      16296           0.0000000000
     71139     16488  TIP3      H1             23.9354165542       22.1463776228      -60.6079472358  TIP3      16296           0.0000000000
     71140     16488  TIP3      H2             24.1001688534       23.0826050285      -59.4497672149  TIP3      16296           0.0000000000
     71141     16489  TIP3      OH2            28.4320423215       22.9940796995      -57.6606321369  TIP3      16297           0.0000000000
     71142     16489  TIP3      H1             28.6853231346       22.4158186743      -56.9209695516  TIP3      16297           0.0000000000
     71143     16489  TIP3      H2             28.5067603494       23.8587320911      -57.2017951430  TIP3      16297           0.0000000000
     71144     16490  TIP3      OH2            22.7031568747       21.6006762998      -44.8459688936  TIP3      16298           0.0000000000
     71145     16490  TIP3      H1             22.3122981403       20.8021961590      -44.4431401287  TIP3      16298           0.0000000000
     71146     16490  TIP3      H2             23.6111045668       21.5523286568      -44.4636971515  TIP3      16298           0.0000000000
     71147     16491  TIP3      OH2            24.7006424221       20.9758809485      -43.2013403998  TIP3      16299           0.0000000000
     71148     16491  TIP3      H1             25.5933467033       20.6388897597      -43.4189533487  TIP3      16299           0.0000000000
     71149     16491  TIP3      H2             24.3267415792       20.1680673253      -42.7991482198  TIP3      16299           0.0000000000
     71150     16492  TIP3      OH2            33.1036565830       20.2816813856      -43.0750816547  TIP3      16300           0.0000000000
     71151     16492  TIP3      H1             33.1922652802       19.8122649592      -42.2193860530  TIP3      16300           0.0000000000
     71152     16492  TIP3      H2             34.0265416189       20.2635937120      -43.4151675695  TIP3      16300           0.0000000000
     71153     16493  TIP3      OH2            36.2139761253      -36.7556255075      -44.2764655308  TIP3      16301           0.0000000000
     71154     16493  TIP3      H1             35.5529703305      -36.9111770621      -44.9598057580  TIP3      16301           0.0000000000
     71155     16493  TIP3      H2             36.2623160690      -35.7868049724      -44.2465788123  TIP3      16301           0.0000000000
     71156     16494  TIP3      OH2           -24.6644759460      -26.3813044612      -35.5953957157  TIP3      16302           0.0000000000
     71157     16494  TIP3      H1            -24.6825601959      -25.3996759820      -35.6113833169  TIP3      16302           0.0000000000
     71158     16494  TIP3      H2            -25.3971426812      -26.6119657096      -36.1877528076  TIP3      16302           0.0000000000
     71159     16495  TIP3      OH2           -25.8134544498      -27.1277468644      -32.0810740726  TIP3      16303           0.0000000000
     71160     16495  TIP3      H1            -25.8249143369      -27.7736234723      -31.3610769411  TIP3      16303           0.0000000000
     71161     16495  TIP3      H2            -26.1612544622      -27.6334639349      -32.8348225996  TIP3      16303           0.0000000000
     71162     16496  TIP3      OH2           -33.4068693137      -27.4616254571      -30.5653162611  TIP3      16304           0.0000000000
     71163     16496  TIP3      H1            -33.3479854833      -28.1337702803      -29.8529023265  TIP3      16304           0.0000000000
     71164     16496  TIP3      H2            -32.6998653042      -26.8629710154      -30.2893860048  TIP3      16304           0.0000000000
     71165     16497  TIP3      OH2           -22.1261484544      -24.1743955376      -33.7974742777  TIP3      16305           0.0000000000
     71166     16497  TIP3      H1            -22.5325465244      -24.8934011305      -33.3032634884  TIP3      16305           0.0000000000
     71167     16497  TIP3      H2            -22.1007299089      -23.4662664666      -33.1272555437  TIP3      16305           0.0000000000
     71168     16498  TIP3      OH2           -32.5161175162      -23.0741786032      -32.0232526979  TIP3      16306           0.0000000000
     71169     16498  TIP3      H1            -32.8388213706      -23.9407925104      -32.3695229785  TIP3      16306           0.0000000000
     71170     16498  TIP3      H2            -31.5567405602      -23.2805740310      -32.0077013112  TIP3      16306           0.0000000000
     71171     16499  TIP3      OH2           -35.6187277142      -29.4529677309      -36.9562605775  TIP3      16307           0.0000000000
     71172     16499  TIP3      H1            -36.0631612842      -28.6535926999      -36.5819680409  TIP3      16307           0.0000000000
     71173     16499  TIP3      H2            -36.4122669579      -29.9832213623      -36.9612720458  TIP3      16307           0.0000000000
     71174     16500  TIP3      OH2           -35.2138962695      -27.2673384950      -34.4412371573  TIP3      16308           0.0000000000
     71175     16500  TIP3      H1            -34.9227989509      -28.0334987323      -33.9207094607  TIP3      16308           0.0000000000
     71176     16500  TIP3      H2            -34.4782127408      -27.1091147489      -35.0467698178  TIP3      16308           0.0000000000
     71177     16501  TIP3      OH2           -25.0021730526      -19.0136693959      -33.5578421986  TIP3      16309           0.0000000000
     71178     16501  TIP3      H1            -24.3559389600      -19.7040290805      -33.8481598002  TIP3      16309           0.0000000000
     71179     16501  TIP3      H2            -25.2198397982      -19.3531981945      -32.6903050432  TIP3      16309           0.0000000000
     71180     16502  TIP3      OH2           -27.4327948845      -24.7244466497      -31.6115271352  TIP3      16310           0.0000000000
     71181     16502  TIP3      H1            -27.0971367569      -25.3514938629      -32.2694215911  TIP3      16310           0.0000000000
     71182     16502  TIP3      H2            -26.6226566621      -24.5657582262      -31.0961969271  TIP3      16310           0.0000000000
     71183     16503  TIP3      OH2           -18.8508367014      -33.0683446619      -30.8894880733  TIP3      16311           0.0000000000
     71184     16503  TIP3      H1            -18.6597636397      -32.4956494281      -30.1111812591  TIP3      16311           0.0000000000
     71185     16503  TIP3      H2            -18.2854127050      -32.6427526967      -31.5487990161  TIP3      16311           0.0000000000
     71186     16504  TIP3      OH2           -24.2666223968      -30.2543163115      -31.2861083456  TIP3      16312           0.0000000000
     71187     16504  TIP3      H1            -24.1112775505      -31.2204888290      -31.2868681790  TIP3      16312           0.0000000000
     71188     16504  TIP3      H2            -24.3723085084      -30.1085071917      -32.2472399546  TIP3      16312           0.0000000000
     71189     16505  TIP3      OH2           -31.1415972454      -32.1442066254      -34.0736185323  TIP3      16313           0.0000000000
     71190     16505  TIP3      H1            -31.0348077948      -31.3240342388      -34.5848873579  TIP3      16313           0.0000000000
     71191     16505  TIP3      H2            -31.5383350488      -32.7236552142      -34.7550435424  TIP3      16313           0.0000000000
     71192     16506  TIP3      OH2           -23.4146906688      -32.1220223613      -35.7122036169  TIP3      16314           0.0000000000
     71193     16506  TIP3      H1            -22.7602855019      -32.3862446864      -35.0275513145  TIP3      16314           0.0000000000
     71194     16506  TIP3      H2            -22.8684809153      -31.5219017335      -36.2403633182  TIP3      16314           0.0000000000
     71195     16507  TIP3      OH2           -34.5630065272      -29.8326203991      -33.4094184358  TIP3      16315           0.0000000000
     71196     16507  TIP3      H1            -33.8397932144      -30.3053482913      -32.9409864330  TIP3      16315           0.0000000000
     71197     16507  TIP3      H2            -34.3820680388      -30.1186885525      -34.3138903735  TIP3      16315           0.0000000000
     71198     16508  TIP3      OH2           -29.3777775132      -28.2002280839      -34.0290105153  TIP3      16316           0.0000000000
     71199     16508  TIP3      H1            -28.7022272856      -28.7790531251      -33.6335927522  TIP3      16316           0.0000000000
     71200     16508  TIP3      H2            -29.8911372876      -28.8594061520      -34.5352220239  TIP3      16316           0.0000000000
     71201     16509  TIP3      OH2           -18.3998117387      -31.6655670319      -28.6148398692  TIP3      16317           0.0000000000
     71202     16509  TIP3      H1            -19.0163603534      -30.9092664310      -28.7180349221  TIP3      16317           0.0000000000
     71203     16509  TIP3      H2            -18.3660732761      -31.7653623799      -27.6566704502  TIP3      16317           0.0000000000
     71204     16510  TIP3      OH2           -32.2007234102      -33.2253493875      -30.0644262431  TIP3      16318           0.0000000000
     71205     16510  TIP3      H1            -32.5400206511      -32.6720224773      -30.7969721060  TIP3      16318           0.0000000000
     71206     16510  TIP3      H2            -32.9021585988      -33.0435002003      -29.3851210232  TIP3      16318           0.0000000000
     71207     16511  TIP3      OH2           -24.9582749252      -23.7880945506      -36.4970298273  TIP3      16319           0.0000000000
     71208     16511  TIP3      H1            -25.2173258392      -24.0584832526      -37.3875684795  TIP3      16319           0.0000000000
     71209     16511  TIP3      H2            -25.2634695566      -22.8528090676      -36.4451711036  TIP3      16319           0.0000000000
     71210     16512  TIP3      OH2           -29.7186785368      -25.6133262868      -29.8334629082  TIP3      16320           0.0000000000
     71211     16512  TIP3      H1            -30.4236048094      -24.9838307261      -29.5730649810  TIP3      16320           0.0000000000
     71212     16512  TIP3      H2            -29.0068237932      -25.0166349192      -30.1019735631  TIP3      16320           0.0000000000
     71213     16513  TIP3      OH2           -21.5963400957      -32.7564072207      -33.7341005448  TIP3      16321           0.0000000000
     71214     16513  TIP3      H1            -21.8458145160      -33.4955355037      -33.1678304902  TIP3      16321           0.0000000000
     71215     16513  TIP3      H2            -20.9346882597      -32.3052507193      -33.1846100749  TIP3      16321           0.0000000000
     71216     16514  TIP3      OH2           -32.7107112485      -31.3786664351      -32.0295509325  TIP3      16322           0.0000000000
     71217     16514  TIP3      H1            -32.0654052329      -30.7239865885      -31.6769075721  TIP3      16322           0.0000000000
     71218     16514  TIP3      H2            -32.1634718554      -31.8039673972      -32.7415386492  TIP3      16322           0.0000000000
     71219     16515  TIP3      OH2           -31.3120660392      -23.6311815498      -29.0235820459  TIP3      16323           0.0000000000
     71220     16515  TIP3      H1            -31.3210055845      -22.6898634560      -29.2653328982  TIP3      16323           0.0000000000
     71221     16515  TIP3      H2            -32.1600290992      -23.7209997957      -28.5252827187  TIP3      16323           0.0000000000
     71222     16516  TIP3      OH2           -35.2346572346      -23.9662118169      -38.2315300731  TIP3      16324           0.0000000000
     71223     16516  TIP3      H1            -35.4400962988      -23.6331218813      -39.1200563280  TIP3      16324           0.0000000000
     71224     16516  TIP3      H2            -35.1185708697      -23.1599267972      -37.6926199411  TIP3      16324           0.0000000000
     71225     16517  TIP3      OH2           -21.5961957645      -22.3354192247      -31.4297106167  TIP3      16325           0.0000000000
     71226     16517  TIP3      H1            -22.5640699449      -22.2251677918      -31.3115992642  TIP3      16325           0.0000000000
     71227     16517  TIP3      H2            -21.3270430839      -21.4201243036      -31.6342061999  TIP3      16325           0.0000000000
     71228     16518  TIP3      OH2           -21.2410695239      -34.0600806301      -29.9828114061  TIP3      16326           0.0000000000
     71229     16518  TIP3      H1            -21.9862578054      -33.4662051630      -30.1387298881  TIP3      16326           0.0000000000
     71230     16518  TIP3      H2            -20.5466541382      -33.6533767146      -30.5419555317  TIP3      16326           0.0000000000
     71231     16519  TIP3      OH2           -28.3419016748      -35.9263065341      -32.7508479361  TIP3      16327           0.0000000000
     71232     16519  TIP3      H1            -28.3464236779      -36.8753632052      -32.5731681636  TIP3      16327           0.0000000000
     71233     16519  TIP3      H2            -29.1258579014      -35.6509718236      -32.2490661493  TIP3      16327           0.0000000000
     71234     16520  TIP3      OH2           -23.3348984045      -20.5509413669      -34.8451400481  TIP3      16328           0.0000000000
     71235     16520  TIP3      H1            -22.9080687894      -21.2715312517      -35.3526470725  TIP3      16328           0.0000000000
     71236     16520  TIP3      H2            -22.9006256753      -19.7627199084      -35.2350931991  TIP3      16328           0.0000000000
     71237     16521  TIP3      OH2           -22.1209398647      -22.6256197972      -36.3235338598  TIP3      16329           0.0000000000
     71238     16521  TIP3      H1            -22.4242114515      -23.3220022194      -36.9274990083  TIP3      16329           0.0000000000
     71239     16521  TIP3      H2            -22.0890629513      -23.1162530796      -35.4827387956  TIP3      16329           0.0000000000
     71240     16522  TIP3      OH2           -20.5008239074      -24.0197600221      -27.8380778373  TIP3      16330           0.0000000000
     71241     16522  TIP3      H1            -20.3565196152      -24.6808730073      -28.5513449027  TIP3      16330           0.0000000000
     71242     16522  TIP3      H2            -20.3080057221      -23.1790357642      -28.2861836652  TIP3      16330           0.0000000000
     71243     16523  TIP3      OH2           -26.0089989658      -27.1537666033      -38.0737235978  TIP3      16331           0.0000000000
     71244     16523  TIP3      H1            -26.7024431809      -26.5686885610      -38.4278434312  TIP3      16331           0.0000000000
     71245     16523  TIP3      H2            -25.2989563617      -27.0419658105      -38.7320253425  TIP3      16331           0.0000000000
     71246     16524  TIP3      OH2           -25.9279409507      -28.5718872067      -41.0591465539  TIP3      16332           0.0000000000
     71247     16524  TIP3      H1            -25.2205315674      -28.5863738191      -40.3963513685  TIP3      16332           0.0000000000
     71248     16524  TIP3      H2            -25.6226954415      -29.2899185175      -41.6284543657  TIP3      16332           0.0000000000
     71249     16525  TIP3      OH2           -18.6422818744      -27.7339265881      -29.8216412373  TIP3      16333           0.0000000000
     71250     16525  TIP3      H1            -19.2697339002      -26.9886110554      -29.7440825435  TIP3      16333           0.0000000000
     71251     16525  TIP3      H2            -18.1234475550      -27.4792719278      -30.6056349607  TIP3      16333           0.0000000000
     71252     16526  TIP3      OH2           -22.5592813590      -26.9409794284      -37.1481820780  TIP3      16334           0.0000000000
     71253     16526  TIP3      H1            -23.3020702303      -26.6896382914      -36.5488401025  TIP3      16334           0.0000000000
     71254     16526  TIP3      H2            -22.0859081322      -27.6095285883      -36.6227921304  TIP3      16334           0.0000000000
     71255     16527  TIP3      OH2           -22.6284261094      -28.7619465547      -28.0201052853  TIP3      16335           0.0000000000
     71256     16527  TIP3      H1            -22.6338666494      -27.9427375658      -27.4951108919  TIP3      16335           0.0000000000
     71257     16527  TIP3      H2            -23.2617576752      -28.4738775339      -28.7119742061  TIP3      16335           0.0000000000
     71258     16528  TIP3      OH2           -30.9302653012      -26.2602850699      -35.2293606970  TIP3      16336           0.0000000000
     71259     16528  TIP3      H1            -31.2828914087      -26.6640967040      -36.0585491036  TIP3      16336           0.0000000000
     71260     16528  TIP3      H2            -30.3283973056      -26.9634579004      -34.8954516008  TIP3      16336           0.0000000000
     71261     16529  TIP3      OH2           -29.6619173715      -22.9028068553      -32.5407291327  TIP3      16337           0.0000000000
     71262     16529  TIP3      H1            -29.6199171362      -23.4144720777      -33.3641306616  TIP3      16337           0.0000000000
     71263     16529  TIP3      H2            -28.8545339926      -23.2327660803      -32.0978262735  TIP3      16337           0.0000000000
     71264     16530  TIP3      OH2           -30.5904594307      -27.5335513631      -31.5686084086  TIP3      16338           0.0000000000
     71265     16530  TIP3      H1            -30.0585622845      -27.4175287470      -32.3770009653  TIP3      16338           0.0000000000
     71266     16530  TIP3      H2            -30.2331223123      -26.8477228132      -30.9592984423  TIP3      16338           0.0000000000
     71267     16531  TIP3      OH2           -24.2140833188      -21.9471379512      -30.8675231811  TIP3      16339           0.0000000000
     71268     16531  TIP3      H1            -24.4943459600      -21.3121875754      -30.2035815065  TIP3      16339           0.0000000000
     71269     16531  TIP3      H2            -24.4638023785      -22.8031932372      -30.4434661730  TIP3      16339           0.0000000000
     71270     16532  TIP3      OH2           -29.6661916675      -23.0678619631      -26.8460194516  TIP3      16340           0.0000000000
     71271     16532  TIP3      H1            -30.0856101635      -22.3159556422      -26.3899140938  TIP3      16340           0.0000000000
     71272     16532  TIP3      H2            -30.3186709819      -23.2955630448      -27.5405054101  TIP3      16340           0.0000000000
     71273     16533  TIP3      OH2           -23.6825947848      -27.7275867609      -39.4826476196  TIP3      16341           0.0000000000
     71274     16533  TIP3      H1            -23.1273241527      -27.5536835613      -38.6818886869  TIP3      16341           0.0000000000
     71275     16533  TIP3      H2            -23.2320949537      -27.2327152014      -40.2035743248  TIP3      16341           0.0000000000
     71276     16534  TIP3      OH2           -32.7283608979      -26.9188862675      -27.6725128510  TIP3      16342           0.0000000000
     71277     16534  TIP3      H1            -32.6864307033      -26.2313049252      -26.9898790386  TIP3      16342           0.0000000000
     71278     16534  TIP3      H2            -33.6577300324      -26.8300362899      -27.9496215997  TIP3      16342           0.0000000000
     71279     16535  TIP3      OH2           -25.9730586867      -21.0059956802      -36.0074095995  TIP3      16343           0.0000000000
     71280     16535  TIP3      H1            -25.5405142243      -20.6989467623      -35.2029515656  TIP3      16343           0.0000000000
     71281     16535  TIP3      H2            -26.5289063119      -20.2562794272      -36.2478244176  TIP3      16343           0.0000000000
     71282     16536  TIP3      OH2           -31.4288860766      -21.1052541259      -26.1372925312  TIP3      16344           0.0000000000
     71283     16536  TIP3      H1            -31.4970768026      -21.1630035443      -27.0985996340  TIP3      16344           0.0000000000
     71284     16536  TIP3      H2            -32.3610215475      -21.1950072924      -25.8700940034  TIP3      16344           0.0000000000
     71285     16537  TIP3      OH2           -19.9961635826      -35.8502361151      -39.8280434674  TIP3      16345           0.0000000000
     71286     16537  TIP3      H1            -20.8516733263      -35.8121935844      -39.3656031954  TIP3      16345           0.0000000000
     71287     16537  TIP3      H2            -19.7555285198      -34.9399143541      -40.0398878851  TIP3      16345           0.0000000000
     71288     16538  TIP3      OH2           -31.9682164309      -27.2553376007      -37.5983007195  TIP3      16346           0.0000000000
     71289     16538  TIP3      H1            -32.2534746692      -26.4753137567      -38.1170954938  TIP3      16346           0.0000000000
     71290     16538  TIP3      H2            -32.6204045656      -27.9177509216      -37.8375352122  TIP3      16346           0.0000000000
     71291     16539  TIP3      OH2           -18.8464453913      -21.6446701367      -41.2294086233  TIP3      16347           0.0000000000
     71292     16539  TIP3      H1            -18.6802516999      -20.7018087201      -41.0595780545  TIP3      16347           0.0000000000
     71293     16539  TIP3      H2            -17.9233089012      -21.9583687349      -41.2327149337  TIP3      16347           0.0000000000
     71294     16540  TIP3      OH2           -35.2916540093      -24.9397446371      -28.9893176924  TIP3      16348           0.0000000000
     71295     16540  TIP3      H1            -36.0838227251      -24.8382587904      -29.5597574122  TIP3      16348           0.0000000000
     71296     16540  TIP3      H2            -35.6499611692      -25.7248259649      -28.5128314667  TIP3      16348           0.0000000000
     71297     16541  TIP3      OH2           -35.7679717647      -21.7837175137      -32.2273759791  TIP3      16349           0.0000000000
     71298     16541  TIP3      H1            -35.0570221251      -22.3256361194      -31.8948924466  TIP3      16349           0.0000000000
     71299     16541  TIP3      H2            -36.1569660952      -21.3993045209      -31.4227341999  TIP3      16349           0.0000000000
     71300     16542  TIP3      OH2           -17.9032516106      -21.3685409722      -26.2794999254  TIP3      16350           0.0000000000
     71301     16542  TIP3      H1            -17.9903799029      -22.3361613538      -26.2611644128  TIP3      16350           0.0000000000
     71302     16542  TIP3      H2            -18.7609077884      -21.1510829853      -25.8415483481  TIP3      16350           0.0000000000
     71303     16543  TIP3      OH2           -26.9286631713      -21.8234955772      -27.4058882491  TIP3      16351           0.0000000000
     71304     16543  TIP3      H1            -26.8740967224      -20.9985609511      -26.8733624678  TIP3      16351           0.0000000000
     71305     16543  TIP3      H2            -27.7930650003      -22.2087825380      -27.1624267141  TIP3      16351           0.0000000000
     71306     16544  TIP3      OH2           -26.4903758874      -18.0983215924      -37.5992550787  TIP3      16352           0.0000000000
     71307     16544  TIP3      H1            -26.6012613946      -18.1757248199      -38.5642939654  TIP3      16352           0.0000000000
     71308     16544  TIP3      H2            -26.4889783594      -17.1359492649      -37.4420103767  TIP3      16352           0.0000000000
     71309     16545  TIP3      OH2           -32.8829933295      -19.1898078261      -35.8010954636  TIP3      16353           0.0000000000
     71310     16545  TIP3      H1            -32.7083750962      -19.6073826160      -34.9326347915  TIP3      16353           0.0000000000
     71311     16545  TIP3      H2            -33.7027267119      -19.6447150710      -36.0495585800  TIP3      16353           0.0000000000
     71312     16546  TIP3      OH2           -23.4370997171      -18.8838526216      -40.6142402418  TIP3      16354           0.0000000000
     71313     16546  TIP3      H1            -22.9822742576      -19.6421217256      -41.0485459808  TIP3      16354           0.0000000000
     71314     16546  TIP3      H2            -23.3973394133      -19.1454114312      -39.6707433671  TIP3      16354           0.0000000000
     71315     16547  TIP3      OH2           -23.7412158776      -18.9492529259      -37.8398373358  TIP3      16355           0.0000000000
     71316     16547  TIP3      H1            -24.7034822981      -18.8736485879      -37.6686470939  TIP3      16355           0.0000000000
     71317     16547  TIP3      H2            -23.5079730313      -19.6914509425      -37.2616416478  TIP3      16355           0.0000000000
     71318     16548  TIP3      OH2           -20.7236719973      -29.9522289042      -25.7924696940  TIP3      16356           0.0000000000
     71319     16548  TIP3      H1            -21.2156623330      -29.4761072694      -26.4870461451  TIP3      16356           0.0000000000
     71320     16548  TIP3      H2            -20.7587290591      -30.8670765934      -26.1000808682  TIP3      16356           0.0000000000
     71321     16549  TIP3      OH2           -33.5977048325      -23.4176760257      -27.7110179326  TIP3      16357           0.0000000000
     71322     16549  TIP3      H1            -33.3978761030      -23.8865798525      -26.8773231009  TIP3      16357           0.0000000000
     71323     16549  TIP3      H2            -34.4266122877      -23.8802553172      -27.9876559666  TIP3      16357           0.0000000000
     71324     16550  TIP3      OH2           -30.9451662847      -35.0526386788      -31.8021032168  TIP3      16358           0.0000000000
     71325     16550  TIP3      H1            -31.8429314585      -35.1252055276      -32.1888585437  TIP3      16358           0.0000000000
     71326     16550  TIP3      H2            -31.0595987196      -34.2025899945      -31.3471068286  TIP3      16358           0.0000000000
     71327     16551  TIP3      OH2           -26.2998211086      -35.3329170500      -28.4095978731  TIP3      16359           0.0000000000
     71328     16551  TIP3      H1            -25.8802320528      -35.7545785351      -27.6634616145  TIP3      16359           0.0000000000
     71329     16551  TIP3      H2            -27.2569160259      -35.4369041631      -28.2591937337  TIP3      16359           0.0000000000
     71330     16552  TIP3      OH2           -22.9927972600      -31.5495746052      -27.5432805018  TIP3      16360           0.0000000000
     71331     16552  TIP3      H1            -23.5828731908      -31.6850433467      -26.7685124197  TIP3      16360           0.0000000000
     71332     16552  TIP3      H2            -23.1603848260      -30.6218038854      -27.7967741980  TIP3      16360           0.0000000000
     71333     16553  TIP3      OH2           -22.2350011855      -26.6954989640      -41.6656530282  TIP3      16361           0.0000000000
     71334     16553  TIP3      H1            -22.2449238634      -26.8807718332      -42.6330704315  TIP3      16361           0.0000000000
     71335     16553  TIP3      H2            -21.3745199317      -26.2526575516      -41.6123293766  TIP3      16361           0.0000000000
     71336     16554  TIP3      OH2           -26.6367073873      -32.7846423296      -41.1423983221  TIP3      16362           0.0000000000
     71337     16554  TIP3      H1            -26.9630918889      -32.8558170889      -40.2332436802  TIP3      16362           0.0000000000
     71338     16554  TIP3      H2            -26.9542706886      -33.6540633903      -41.4550930725  TIP3      16362           0.0000000000
     71339     16555  TIP3      OH2           -30.8425987022      -30.0614616553      -30.5836561176  TIP3      16363           0.0000000000
     71340     16555  TIP3      H1            -31.5560830202      -30.0531750673      -29.9189898775  TIP3      16363           0.0000000000
     71341     16555  TIP3      H2            -30.8556970828      -29.1444157690      -30.9421701768  TIP3      16363           0.0000000000
     71342     16556  TIP3      OH2           -30.8419453107      -29.9265727942      -35.7167397095  TIP3      16364           0.0000000000
     71343     16556  TIP3      H1            -31.7818712998      -30.1696555366      -35.8526193283  TIP3      16364           0.0000000000
     71344     16556  TIP3      H2            -30.4671657674      -30.2323618601      -36.5621172001  TIP3      16364           0.0000000000
     71345     16557  TIP3      OH2           -25.3380911261      -29.4281138516      -36.9361036413  TIP3      16365           0.0000000000
     71346     16557  TIP3      H1            -25.7347646285      -28.6061408732      -37.3049730328  TIP3      16365           0.0000000000
     71347     16557  TIP3      H2            -24.6486902211      -29.6073649092      -37.5979270929  TIP3      16365           0.0000000000
     71348     16558  TIP3      OH2           -26.2428679251      -29.2848439713      -25.6068096563  TIP3      16366           0.0000000000
     71349     16558  TIP3      H1            -26.8220340816      -29.9545006932      -25.1711213735  TIP3      16366           0.0000000000
     71350     16558  TIP3      H2            -25.4764179313      -29.3153198303      -25.0102475568  TIP3      16366           0.0000000000
     71351     16559  TIP3      OH2           -24.3026314585      -29.9404930320      -34.0935115908  TIP3      16367           0.0000000000
     71352     16559  TIP3      H1            -24.5934893676      -29.3836854028      -34.8338010092  TIP3      16367           0.0000000000
     71353     16559  TIP3      H2            -24.2164117124      -30.7913158692      -34.5591130546  TIP3      16367           0.0000000000
     71354     16560  TIP3      OH2           -33.2025141012      -29.8112243139      -28.8999780229  TIP3      16368           0.0000000000
     71355     16560  TIP3      H1            -33.1653787855      -29.3945752818      -28.0240495189  TIP3      16368           0.0000000000
     71356     16560  TIP3      H2            -33.6832513543      -30.6228352715      -28.6875033266  TIP3      16368           0.0000000000
     71357     16561  TIP3      OH2           -29.8323240148      -32.3854759062      -42.0268821641  TIP3      16369           0.0000000000
     71358     16561  TIP3      H1            -30.2911707722      -32.8281489842      -41.2881193007  TIP3      16369           0.0000000000
     71359     16561  TIP3      H2            -30.5419812179      -31.9985298762      -42.5534780964  TIP3      16369           0.0000000000
     71360     16562  TIP3      OH2           -36.1767105486      -32.3848785835      -35.1043646576  TIP3      16370           0.0000000000
     71361     16562  TIP3      H1            -35.8290433079      -32.6978500480      -34.2387414357  TIP3      16370           0.0000000000
     71362     16562  TIP3      H2            -36.0249235183      -33.1317994239      -35.6668743550  TIP3      16370           0.0000000000
     71363     16563  TIP3      OH2           -35.2808776692      -31.8275357218      -39.5498168002  TIP3      16371           0.0000000000
     71364     16563  TIP3      H1            -34.7322570858      -31.2935383881      -40.1611556565  TIP3      16371           0.0000000000
     71365     16563  TIP3      H2            -36.0161113524      -31.2605577306      -39.3423891774  TIP3      16371           0.0000000000
     71366     16564  TIP3      OH2           -25.1139655149      -28.3568275677      -29.5286769657  TIP3      16372           0.0000000000
     71367     16564  TIP3      H1            -24.7332708467      -29.0427222953      -30.1185489394  TIP3      16372           0.0000000000
     71368     16564  TIP3      H2            -25.5800197036      -28.8916595796      -28.8618055556  TIP3      16372           0.0000000000
     71369     16565  TIP3      OH2           -28.3043588065      -32.3924275870      -34.7244662468  TIP3      16373           0.0000000000
     71370     16565  TIP3      H1            -29.2340981470      -32.3893259950      -34.4123425213  TIP3      16373           0.0000000000
     71371     16565  TIP3      H2            -27.8128917851      -32.5426302423      -33.8983279731  TIP3      16373           0.0000000000
     71372     16566  TIP3      OH2           -33.4823167823      -30.8301040786      -35.8359134400  TIP3      16374           0.0000000000
     71373     16566  TIP3      H1            -34.3569282225      -30.6700003785      -36.2359107534  TIP3      16374           0.0000000000
     71374     16566  TIP3      H2            -33.2197642477      -31.6661229860      -36.2638721599  TIP3      16374           0.0000000000
     71375     16567  TIP3      OH2           -29.8555903204      -30.7918211996      -38.2089940118  TIP3      16375           0.0000000000
     71376     16567  TIP3      H1            -28.8992561031      -30.6805201172      -38.0504228611  TIP3      16375           0.0000000000
     71377     16567  TIP3      H2            -30.1080289228      -30.0957341068      -38.8474927162  TIP3      16375           0.0000000000
     71378     16568  TIP3      OH2           -23.9000207700      -33.1713814701      -31.4685211513  TIP3      16376           0.0000000000
     71379     16568  TIP3      H1            -24.5913441458      -33.0913485021      -30.7751076781  TIP3      16376           0.0000000000
     71380     16568  TIP3      H2            -24.4021884380      -33.4360565565      -32.2504902446  TIP3      16376           0.0000000000
     71381     16569  TIP3      OH2           -31.1368802621      -29.6169684532      -40.6319471724  TIP3      16377           0.0000000000
     71382     16569  TIP3      H1            -31.6759411324      -29.9807729332      -41.3523930723  TIP3      16377           0.0000000000
     71383     16569  TIP3      H2            -30.3154887630      -29.4006328895      -41.0992492990  TIP3      16377           0.0000000000
     71384     16570  TIP3      OH2           -20.7100539754      -17.5124852882      -25.1259335809  TIP3      16378           0.0000000000
     71385     16570  TIP3      H1            -20.4262014425      -17.1324403717      -25.9754096859  TIP3      16378           0.0000000000
     71386     16570  TIP3      H2            -19.9942205117      -17.2021468380      -24.5449176572  TIP3      16378           0.0000000000
     71387     16571  TIP3      OH2           -33.0363609569      -25.0266948057      -25.5163042005  TIP3      16379           0.0000000000
     71388     16571  TIP3      H1            -32.2876282404      -24.8034898507      -24.9434238717  TIP3      16379           0.0000000000
     71389     16571  TIP3      H2            -33.7967234804      -24.8836211445      -24.9454123091  TIP3      16379           0.0000000000
     71390     16572  TIP3      OH2           -27.0242572854      -29.6348984527      -32.8146607205  TIP3      16380           0.0000000000
     71391     16572  TIP3      H1            -26.4219909612      -30.1753032704      -33.3402101884  TIP3      16380           0.0000000000
     71392     16572  TIP3      H2            -27.1742823061      -30.1763727101      -32.0269727915  TIP3      16380           0.0000000000
     71393     16573  TIP3      OH2           -32.0444130459      -33.4386216899      -36.3730176152  TIP3      16381           0.0000000000
     71394     16573  TIP3      H1            -32.3444961766      -34.3619092138      -36.3520374359  TIP3      16381           0.0000000000
     71395     16573  TIP3      H2            -31.2583480344      -33.5182515081      -36.9253029273  TIP3      16381           0.0000000000
     71396     16574  TIP3      OH2           -28.3782901225      -31.2581371985      -30.4126835239  TIP3      16382           0.0000000000
     71397     16574  TIP3      H1            -29.2199524375      -30.7695855123      -30.3030685711  TIP3      16382           0.0000000000
     71398     16574  TIP3      H2            -27.8330068352      -30.9405280801      -29.6697271315  TIP3      16382           0.0000000000
     71399     16575  TIP3      OH2           -27.7983112817      -25.0765271447      -38.6993715343  TIP3      16383           0.0000000000
     71400     16575  TIP3      H1            -28.5974324904      -25.5439185049      -39.0342996237  TIP3      16383           0.0000000000
     71401     16575  TIP3      H2            -28.0247862709      -24.9541531798      -37.7547027824  TIP3      16383           0.0000000000
     71402     16576  TIP3      OH2           -20.6105523788      -25.8708492477      -29.8934030024  TIP3      16384           0.0000000000
     71403     16576  TIP3      H1            -20.0484784874      -25.3918719425      -30.5291984738  TIP3      16384           0.0000000000
     71404     16576  TIP3      H2            -21.4706754229      -25.8310556375      -30.3586537488  TIP3      16384           0.0000000000
     71405     16577  TIP3      OH2           -23.9825578324      -32.2539989133      -40.5071076514  TIP3      16385           0.0000000000
     71406     16577  TIP3      H1            -24.9314326413      -32.1006876001      -40.6660763372  TIP3      16385           0.0000000000
     71407     16577  TIP3      H2            -23.6330317792      -31.4034669158      -40.1696758023  TIP3      16385           0.0000000000
     71408     16578  TIP3      OH2           -26.3188445542      -24.8219409718      -27.5120220952  TIP3      16386           0.0000000000
     71409     16578  TIP3      H1            -26.6199555455      -25.2638583227      -26.6995999664  TIP3      16386           0.0000000000
     71410     16578  TIP3      H2            -26.5643358768      -23.9104408846      -27.3480943397  TIP3      16386           0.0000000000
     71411     16579  TIP3      OH2           -23.2241905596      -30.3520341282      -38.9051165411  TIP3      16387           0.0000000000
     71412     16579  TIP3      H1            -22.3442430545      -30.4904025028      -38.4954029635  TIP3      16387           0.0000000000
     71413     16579  TIP3      H2            -23.1239187499      -29.5197993817      -39.3998522875  TIP3      16387           0.0000000000
     71414     16580  TIP3      OH2           -32.6720590871      -25.6596918142      -32.8953346007  TIP3      16388           0.0000000000
     71415     16580  TIP3      H1            -32.0238500292      -25.7808650753      -33.6126146247  TIP3      16388           0.0000000000
     71416     16580  TIP3      H2            -32.6089146083      -26.5195956099      -32.4386077184  TIP3      16388           0.0000000000
     71417     16581  TIP3      OH2           -25.7042800551      -23.6134957427      -39.6701918125  TIP3      16389           0.0000000000
     71418     16581  TIP3      H1            -26.0430391774      -22.7665942235      -39.3142857158  TIP3      16389           0.0000000000
     71419     16581  TIP3      H2            -26.4399104444      -24.2256429196      -39.4499876411  TIP3      16389           0.0000000000
     71420     16582  TIP3      OH2           -35.7198933288      -27.2978718692      -27.6272756776  TIP3      16390           0.0000000000
     71421     16582  TIP3      H1            -35.4785908800      -27.7486963195      -26.8000915869  TIP3      16390           0.0000000000
     71422     16582  TIP3      H2            -36.3166519036      -27.9354400192      -28.0470714389  TIP3      16390           0.0000000000
     71423     16583  TIP3      OH2           -28.7279552920      -27.7301424502      -25.5021226767  TIP3      16391           0.0000000000
     71424     16583  TIP3      H1            -28.9564850125      -28.0455896574      -26.3806237488  TIP3      16391           0.0000000000
     71425     16583  TIP3      H2            -27.7864509023      -27.9714534825      -25.3930800737  TIP3      16391           0.0000000000
     71426     16584  TIP3      OH2           -24.0073756457      -22.3953716694      -27.5021961498  TIP3      16392           0.0000000000
     71427     16584  TIP3      H1            -24.9250352468      -22.1982633407      -27.7518504266  TIP3      16392           0.0000000000
     71428     16584  TIP3      H2            -24.0236595876      -22.0822912954      -26.5832477901  TIP3      16392           0.0000000000
     71429     16585  TIP3      OH2           -18.3196897768      -30.1950067624      -39.1224202704  TIP3      16393           0.0000000000
     71430     16585  TIP3      H1            -18.8945070834      -30.4871728250      -39.8557843775  TIP3      16393           0.0000000000
     71431     16585  TIP3      H2            -18.2524440284      -29.2458080097      -39.3745388931  TIP3      16393           0.0000000000
     71432     16586  TIP3      OH2           -18.3409561056      -24.3437135450      -26.3078005031  TIP3      16394           0.0000000000
     71433     16586  TIP3      H1            -19.2273176074      -24.1264282744      -26.6771912848  TIP3      16394           0.0000000000
     71434     16586  TIP3      H2            -17.7953776571      -24.4129344174      -27.1168475760  TIP3      16394           0.0000000000
     71435     16587  TIP3      OH2           -20.0784917798      -21.3760287497      -38.7262674425  TIP3      16395           0.0000000000
     71436     16587  TIP3      H1            -20.4086461310      -22.2133456455      -38.3760894291  TIP3      16395           0.0000000000
     71437     16587  TIP3      H2            -19.7222684775      -21.5957301373      -39.6029113428  TIP3      16395           0.0000000000
     71438     16588  TIP3      OH2           -22.8331917972      -26.5620148868      -31.6136073438  TIP3      16396           0.0000000000
     71439     16588  TIP3      H1            -23.7732000814      -26.7707986789      -31.7303263738  TIP3      16396           0.0000000000
     71440     16588  TIP3      H2            -22.4018380620      -27.3197815562      -32.0512903905  TIP3      16396           0.0000000000
     71441     16589  TIP3      OH2           -30.3535092785      -22.1940459314      -35.4408503304  TIP3      16397           0.0000000000
     71442     16589  TIP3      H1            -29.8120560472      -21.4396408866      -35.7366475555  TIP3      16397           0.0000000000
     71443     16589  TIP3      H2            -31.1965143140      -22.0019319462      -35.8749676138  TIP3      16397           0.0000000000
     71444     16590  TIP3      OH2           -34.6003906546      -27.3811437687      -40.9049331152  TIP3      16398           0.0000000000
     71445     16590  TIP3      H1            -33.9565412436      -26.7251648010      -40.5495317719  TIP3      16398           0.0000000000
     71446     16590  TIP3      H2            -35.4532831949      -27.0286157815      -40.6416824254  TIP3      16398           0.0000000000
     71447     16591  TIP3      OH2           -28.9010993211      -24.5652770694      -36.0147836603  TIP3      16399           0.0000000000
     71448     16591  TIP3      H1            -29.2076650495      -23.6490149571      -35.9042105777  TIP3      16399           0.0000000000
     71449     16591  TIP3      H2            -29.6097034540      -25.0606809458      -35.5555668241  TIP3      16399           0.0000000000
     71450     16592  TIP3      OH2           -28.4373486744      -20.4012650747      -29.6269691743  TIP3      16400           0.0000000000
     71451     16592  TIP3      H1            -28.0039103593      -19.5637940678      -29.8572317961  TIP3      16400           0.0000000000
     71452     16592  TIP3      H2            -27.8259787157      -20.7307559180      -28.9406619163  TIP3      16400           0.0000000000
     71453     16593  TIP3      OH2           -30.2335261989      -19.5849063138      -36.4358139140  TIP3      16401           0.0000000000
     71454     16593  TIP3      H1            -31.1954902991      -19.4145668369      -36.3530158702  TIP3      16401           0.0000000000
     71455     16593  TIP3      H2            -29.8552700947      -18.7316221530      -36.1452247092  TIP3      16401           0.0000000000
     71456     16594  TIP3      OH2           -24.9344209579      -24.3852269880      -30.0064029863  TIP3      16402           0.0000000000
     71457     16594  TIP3      H1            -25.2552627555      -24.5604682233      -29.0943396212  TIP3      16402           0.0000000000
     71458     16594  TIP3      H2            -24.2842817014      -25.0940075589      -30.1279725704  TIP3      16402           0.0000000000
     71459     16595  TIP3      OH2           -22.5858691817      -23.3027802136      -40.8781038156  TIP3      16403           0.0000000000
     71460     16595  TIP3      H1            -22.2919071139      -23.7782012022      -40.0748074759  TIP3      16403           0.0000000000
     71461     16595  TIP3      H2            -23.5394831930      -23.4885580216      -40.7978138955  TIP3      16403           0.0000000000
     71462     16596  TIP3      OH2           -22.1180799868      -19.7938174886      -27.4710666982  TIP3      16404           0.0000000000
     71463     16596  TIP3      H1            -22.7948865404      -20.2957416642      -27.9631966338  TIP3      16404           0.0000000000
     71464     16596  TIP3      H2            -21.9246098451      -19.1003690449      -28.1368903185  TIP3      16404           0.0000000000
     71465     16597  TIP3      OH2           -18.1237301854      -18.9524973228      -40.6229524298  TIP3      16405           0.0000000000
     71466     16597  TIP3      H1            -17.4360457074      -18.2886700119      -40.8289818445  TIP3      16405           0.0000000000
     71467     16597  TIP3      H2            -18.8386925741      -18.3434164510      -40.3389760245  TIP3      16405           0.0000000000
     71468     16598  TIP3      OH2           -34.0406900711      -32.5785116815      -28.1182512866  TIP3      16406           0.0000000000
     71469     16598  TIP3      H1            -34.9255383027      -32.1896307394      -28.0448211321  TIP3      16406           0.0000000000
     71470     16598  TIP3      H2            -34.1914714959      -33.4251800181      -27.6580150508  TIP3      16406           0.0000000000
     71471     16599  TIP3      OH2           -21.8121779588      -24.6711116956      -38.6355329748  TIP3      16407           0.0000000000
     71472     16599  TIP3      H1            -22.0501907042      -25.4582366189      -38.0989094132  TIP3      16407           0.0000000000
     71473     16599  TIP3      H2            -20.8593574000      -24.6280535159      -38.4579630014  TIP3      16407           0.0000000000
     71474     16600  TIP3      OH2           -34.1786807271      -20.7451262082      -29.7194379503  TIP3      16408           0.0000000000
     71475     16600  TIP3      H1            -34.2250767353      -21.7033868790      -29.5666185856  TIP3      16408           0.0000000000
     71476     16600  TIP3      H2            -34.1930029547      -20.4493794427      -28.7919836307  TIP3      16408           0.0000000000
     71477     16601  TIP3      OH2           -28.4589497127      -22.2341335485      -42.3814561710  TIP3      16409           0.0000000000
     71478     16601  TIP3      H1            -28.3607738366      -22.9978786139      -42.9731307605  TIP3      16409           0.0000000000
     71479     16601  TIP3      H2            -28.9020519855      -22.6646302556      -41.6181624918  TIP3      16409           0.0000000000
     71480     16602  TIP3      OH2           -29.7002888675      -22.7070902139      -39.9273795775  TIP3      16410           0.0000000000
     71481     16602  TIP3      H1            -29.4169851467      -23.2217066751      -39.1612282149  TIP3      16410           0.0000000000
     71482     16602  TIP3      H2            -29.5964716692      -21.7804734491      -39.6075930320  TIP3      16410           0.0000000000
     71483     16603  TIP3      OH2           -33.1938357190      -25.4635356402      -39.4520545737  TIP3      16411           0.0000000000
     71484     16603  TIP3      H1            -33.9045802121      -25.0705822328      -38.9014747238  TIP3      16411           0.0000000000
     71485     16603  TIP3      H2            -32.6720476739      -24.6834942917      -39.7252653193  TIP3      16411           0.0000000000
     71486     16604  TIP3      OH2           -25.3185028460      -32.7839666862      -29.1317392974  TIP3      16412           0.0000000000
     71487     16604  TIP3      H1            -24.5885757118      -32.7196343050      -28.5042656811  TIP3      16412           0.0000000000
     71488     16604  TIP3      H2            -25.6774775688      -33.6742668492      -28.9680788040  TIP3      16412           0.0000000000
     71489     16605  TIP3      OH2           -24.5392816118      -33.2100799797      -38.0159063758  TIP3      16413           0.0000000000
     71490     16605  TIP3      H1            -24.3491640265      -32.7490950261      -38.8615751355  TIP3      16413           0.0000000000
     71491     16605  TIP3      H2            -24.0030428651      -32.7031070607      -37.3919909169  TIP3      16413           0.0000000000
     71492     16606  TIP3      OH2           -26.8829998242      -21.0444631712      -39.2348541382  TIP3      16414           0.0000000000
     71493     16606  TIP3      H1            -27.7004607500      -20.5114060025      -39.1627141836  TIP3      16414           0.0000000000
     71494     16606  TIP3      H2            -26.3436806878      -20.4939833438      -39.8209720740  TIP3      16414           0.0000000000
     71495     16607  TIP3      OH2           -27.3293122171      -31.4790612079      -37.2115464744  TIP3      16415           0.0000000000
     71496     16607  TIP3      H1            -26.5650160318      -30.8713851034      -37.1790472843  TIP3      16415           0.0000000000
     71497     16607  TIP3      H2            -27.5903783989      -31.5632151293      -36.2733554666  TIP3      16415           0.0000000000
     71498     16608  TIP3      OH2           -26.7758609978      -30.4058606511      -28.0488932245  TIP3      16416           0.0000000000
     71499     16608  TIP3      H1            -26.7154017897      -29.8675136518      -27.2273180671  TIP3      16416           0.0000000000
     71500     16608  TIP3      H2            -26.1279476434      -31.1151978561      -27.9427575571  TIP3      16416           0.0000000000
     71501     16609  TIP3      OH2           -26.4679554563      -34.3878244450      -36.2916212136  TIP3      16417           0.0000000000
     71502     16609  TIP3      H1            -26.8173158869      -33.7168875868      -35.6805034151  TIP3      16417           0.0000000000
     71503     16609  TIP3      H2            -25.8119838541      -33.8379961566      -36.7798017545  TIP3      16417           0.0000000000
     71504     16610  TIP3      OH2           -29.4807312312      -20.0158245837      -39.2076081912  TIP3      16418           0.0000000000
     71505     16610  TIP3      H1            -29.3831700636      -19.2008021902      -39.7618480454  TIP3      16418           0.0000000000
     71506     16610  TIP3      H2            -29.7512599578      -19.6408809135      -38.3416442486  TIP3      16418           0.0000000000
     71507     16611  TIP3      OH2           -30.8373953096      -33.3004028367      -39.6420678610  TIP3      16419           0.0000000000
     71508     16611  TIP3      H1            -30.9080343066      -32.4069108519      -39.2512332167  TIP3      16419           0.0000000000
     71509     16611  TIP3      H2            -29.9155423689      -33.4968510753      -39.3851231108  TIP3      16419           0.0000000000
     71510     16612  TIP3      OH2           -20.6185662501      -32.5696246156      -27.1577796665  TIP3      16420           0.0000000000
     71511     16612  TIP3      H1            -21.5379252305      -32.2339601358      -27.3091981791  TIP3      16420           0.0000000000
     71512     16612  TIP3      H2            -20.3170653597      -32.5974721757      -28.0862603728  TIP3      16420           0.0000000000
     71513     16613  TIP3      OH2           -21.9958741306      -28.7670963419      -33.1824674708  TIP3      16421           0.0000000000
     71514     16613  TIP3      H1            -22.8236123895      -29.2109160473      -33.4524262280  TIP3      16421           0.0000000000
     71515     16613  TIP3      H2            -21.5152784286      -29.4522971533      -32.6621326668  TIP3      16421           0.0000000000
     71516     16614  TIP3      OH2           -32.6204918055      -22.8361252909      -40.5892009944  TIP3      16422           0.0000000000
     71517     16614  TIP3      H1            -31.9481173704      -22.2077065264      -40.2834853200  TIP3      16422           0.0000000000
     71518     16614  TIP3      H2            -32.0890397065      -23.3167209068      -41.2573170475  TIP3      16422           0.0000000000
     71519     16615  TIP3      OH2           -34.3147031861      -30.1768027636      -41.4244652722  TIP3      16423           0.0000000000
     71520     16615  TIP3      H1            -34.2348780880      -29.2203869905      -41.2497876669  TIP3      16423           0.0000000000
     71521     16615  TIP3      H2            -35.1859994136      -30.3506093865      -41.7958869128  TIP3      16423           0.0000000000
     71522     16616  TIP3      OH2           -20.9348296196      -19.5048384498      -31.5018180549  TIP3      16424           0.0000000000
     71523     16616  TIP3      H1            -21.0219538927      -18.8268879053      -32.2006673328  TIP3      16424           0.0000000000
     71524     16616  TIP3      H2            -19.9707839015      -19.4563901832      -31.3274549634  TIP3      16424           0.0000000000
     71525     16617  TIP3      OH2           -33.6378994317      -35.2486727722      -32.6342233773  TIP3      16425           0.0000000000
     71526     16617  TIP3      H1            -33.6357229950      -35.3111908303      -33.6176535298  TIP3      16425           0.0000000000
     71527     16617  TIP3      H2            -33.8665563962      -36.1591253691      -32.4094540405  TIP3      16425           0.0000000000
     71528     16618  TIP3      OH2           -34.4471043591      -21.4259979236      -36.4958328373  TIP3      16426           0.0000000000
     71529     16618  TIP3      H1            -35.3256538739      -21.0482394159      -36.6074594442  TIP3      16426           0.0000000000
     71530     16618  TIP3      H2            -33.9999990267      -21.0115467414      -37.2522838692  TIP3      16426           0.0000000000
     71531     16619  TIP3      OH2           -34.9238644856      -18.8058558142      -25.2942546633  TIP3      16427           0.0000000000
     71532     16619  TIP3      H1            -34.6055375434      -19.0423083079      -24.4265025920  TIP3      16427           0.0000000000
     71533     16619  TIP3      H2            -35.4879973426      -19.5876379749      -25.4923163902  TIP3      16427           0.0000000000
     71534     16620  TIP3      OH2           -26.4657130995      -20.3832420694      -42.2586261484  TIP3      16428           0.0000000000
     71535     16620  TIP3      H1            -27.1580763082      -21.0429108701      -42.0311740072  TIP3      16428           0.0000000000
     71536     16620  TIP3      H2            -25.7474332154      -20.9816532500      -42.5066772118  TIP3      16428           0.0000000000
     71537     16621  TIP3      OH2           -24.1226221433      -21.5227955489      -24.9019156731  TIP3      16429           0.0000000000
     71538     16621  TIP3      H1            -24.4021991576      -22.4177210179      -24.6491636777  TIP3      16429           0.0000000000
     71539     16621  TIP3      H2            -23.3147954630      -21.3916895611      -24.3642243227  TIP3      16429           0.0000000000
     71540     16622  TIP3      OH2           -21.9074341996      -20.6396747940      -42.0724219057  TIP3      16430           0.0000000000
     71541     16622  TIP3      H1            -21.6115315384      -21.4155129751      -41.5689845595  TIP3      16430           0.0000000000
     71542     16622  TIP3      H2            -21.1444346772      -20.4157743089      -42.6245309391  TIP3      16430           0.0000000000
     71543     16623  TIP3      OH2           -35.4310221260      -25.1084627371      -24.2419759162  TIP3      16431           0.0000000000
     71544     16623  TIP3      H1            -35.1970404052      -25.9573045882      -24.6654030147  TIP3      16431           0.0000000000
     71545     16623  TIP3      H2            -36.1081242409      -24.7858256219      -24.8656628736  TIP3      16431           0.0000000000
     71546     16624  TIP3      OH2           -31.0206321808      -24.6961050842      -42.2561357095  TIP3      16432           0.0000000000
     71547     16624  TIP3      H1            -30.8843912611      -25.4590476616      -41.6747313128  TIP3      16432           0.0000000000
     71548     16624  TIP3      H2            -30.2709254795      -24.8153218700      -42.8715575432  TIP3      16432           0.0000000000
     71549     16625  TIP3      OH2           -28.6070676638      -25.0358860359      -24.8944201049  TIP3      16433           0.0000000000
     71550     16625  TIP3      H1            -29.0070997310      -24.7730509618      -25.7273403700  TIP3      16433           0.0000000000
     71551     16625  TIP3      H2            -28.5659374038      -26.0204177722      -24.9182391280  TIP3      16433           0.0000000000
     71552     16626  TIP3      OH2           -25.5898693967      -23.5893672581      -42.4761667517  TIP3      16434           0.0000000000
     71553     16626  TIP3      H1            -25.8602205254      -23.5084431744      -41.5479013380  TIP3      16434           0.0000000000
     71554     16626  TIP3      H2            -25.7793146383      -24.5470240948      -42.6206994349  TIP3      16434           0.0000000000
     71555     16627  TIP3      OH2           -22.9542470817      -25.1891095883      -27.5018064705  TIP3      16435           0.0000000000
     71556     16627  TIP3      H1            -22.1602613040      -24.6144603654      -27.5602808606  TIP3      16435           0.0000000000
     71557     16627  TIP3      H2            -23.6569174941      -24.5236592985      -27.4446401792  TIP3      16435           0.0000000000
     71558     16628  TIP3      OH2           -34.5142360029      -27.8086721267      -24.8717708897  TIP3      16436           0.0000000000
     71559     16628  TIP3      H1            -34.0505779213      -28.6581394127      -25.0334059108  TIP3      16436           0.0000000000
     71560     16628  TIP3      H2            -34.7198422570      -27.9149640017      -23.9499304531  TIP3      16436           0.0000000000
     71561     16629  TIP3      OH2           -29.8157469664      -26.6798712929      -39.8194091553  TIP3      16437           0.0000000000
     71562     16629  TIP3      H1            -30.3213602962      -27.2192793457      -39.1954180417  TIP3      16437           0.0000000000
     71563     16629  TIP3      H2            -29.5191485966      -27.3511559247      -40.4773966981  TIP3      16437           0.0000000000
     71564     16630  TIP3      OH2           -30.5672137595      -28.8895947073      -27.5563265352  TIP3      16438           0.0000000000
     71565     16630  TIP3      H1            -31.1380440539      -28.1588425677      -27.2635491474  TIP3      16438           0.0000000000
     71566     16630  TIP3      H2            -30.1522639402      -28.4984565784      -28.3444948816  TIP3      16438           0.0000000000
     71567     16631  TIP3      OH2           -28.7415129048      -28.4555354617      -41.6249187932  TIP3      16439           0.0000000000
     71568     16631  TIP3      H1            -28.8937757450      -28.5461686789      -42.5867270236  TIP3      16439           0.0000000000
     71569     16631  TIP3      H2            -27.7652974733      -28.4055222818      -41.5603895353  TIP3      16439           0.0000000000
     71570     16632  TIP3      OH2           -25.0571378503      -26.0604662618      -24.5697480159  TIP3      16440           0.0000000000
     71571     16632  TIP3      H1            -24.1874920064      -26.2692783517      -24.2610677821  TIP3      16440           0.0000000000
     71572     16632  TIP3      H2            -25.5779524500      -26.6580065923      -23.9625705152  TIP3      16440           0.0000000000
     71573     16633  TIP3      OH2           -19.4241876927      -26.1374868542      -42.2138413000  TIP3      16441           0.0000000000
     71574     16633  TIP3      H1            -19.5991011458      -26.5192241168      -43.0870359574  TIP3      16441           0.0000000000
     71575     16633  TIP3      H2            -19.3110528618      -25.1780935904      -42.4061249361  TIP3      16441           0.0000000000
     71576     16634  TIP3      OH2           -30.1425471607      -31.4810072416      -26.4750586617  TIP3      16442           0.0000000000
     71577     16634  TIP3      H1            -30.0326365077      -32.2013250324      -27.1183670836  TIP3      16442           0.0000000000
     71578     16634  TIP3      H2            -30.2186118581      -30.6781394466      -27.0345773441  TIP3      16442           0.0000000000
     71579     16635  TIP3      OH2           -29.7386846668      -33.1007598685      -28.9444812700  TIP3      16443           0.0000000000
     71580     16635  TIP3      H1            -29.2261829149      -32.6212270323      -29.6356495891  TIP3      16443           0.0000000000
     71581     16635  TIP3      H2            -30.6338653637      -33.2047092045      -29.3465388113  TIP3      16443           0.0000000000
     71582     16636  TIP3      OH2           -28.2321086737      -27.6468862457      -28.7145469262  TIP3      16444           0.0000000000
     71583     16636  TIP3      H1            -27.4422510316      -27.7855635695      -29.2530592155  TIP3      16444           0.0000000000
     71584     16636  TIP3      H2            -28.5684281663      -26.7896796049      -29.0279792130  TIP3      16444           0.0000000000
     71585     16637  TIP3      OH2           -23.7638194440      -29.8876175528      -23.8194275697  TIP3      16445           0.0000000000
     71586     16637  TIP3      H1            -23.5691168081      -30.8218145583      -23.7664002929  TIP3      16445           0.0000000000
     71587     16637  TIP3      H2            -22.9203882534      -29.4318744513      -23.6906097114  TIP3      16445           0.0000000000
     71588     16638  TIP3      OH2           -22.4344325745      -27.0737962642      -25.5789921190  TIP3      16446           0.0000000000
     71589     16638  TIP3      H1            -22.7148842882      -26.3493187136      -26.1826813313  TIP3      16446           0.0000000000
     71590     16638  TIP3      H2            -21.4733964518      -27.0999271157      -25.7789687032  TIP3      16446           0.0000000000
     71591     16639  TIP3      OH2           -31.7533716452      -30.2258099040      -24.5597331869  TIP3      16447           0.0000000000
     71592     16639  TIP3      H1            -32.4839791793      -30.8485755142      -24.7427850676  TIP3      16447           0.0000000000
     71593     16639  TIP3      H2            -31.0501947653      -30.5637761104      -25.1538575618  TIP3      16447           0.0000000000
     71594     16640  TIP3      OH2           -29.0820886021      -35.5031935765      -28.2669073192  TIP3      16448           0.0000000000
     71595     16640  TIP3      H1            -29.1689638487      -34.5576945683      -28.5499692348  TIP3      16448           0.0000000000
     71596     16640  TIP3      H2            -29.6847202965      -35.9029983202      -28.9095743279  TIP3      16448           0.0000000000
     71597     16641  TIP3      OH2           -27.6749893732      -31.4011089120      -24.9471052600  TIP3      16449           0.0000000000
     71598     16641  TIP3      H1            -28.0043937499      -31.6056799598      -24.0458771025  TIP3      16449           0.0000000000
     71599     16641  TIP3      H2            -28.4938294194      -31.5400806967      -25.4488140988  TIP3      16449           0.0000000000
     71600     16642  TIP3      OH2           -24.9667153221      -32.1744512660      -25.8151944443  TIP3      16450           0.0000000000
     71601     16642  TIP3      H1            -25.9365277982      -32.1220878044      -25.7001618912  TIP3      16450           0.0000000000
     71602     16642  TIP3      H2            -24.7043946257      -32.8108274682      -25.1325818806  TIP3      16450           0.0000000000
     71603     16643  TIP3      OH2           -23.4005087091      -33.5683503986      -23.8588372307  TIP3      16451           0.0000000000
     71604     16643  TIP3      H1            -23.3821807702      -34.5285190224      -23.8577974054  TIP3      16451           0.0000000000
     71605     16643  TIP3      H2            -23.6672230422      -33.3014823069      -22.9752076776  TIP3      16451           0.0000000000
     71606     16644  TIP3      OH2           -33.4502651449      -32.3185241487      -24.7743361697  TIP3      16452           0.0000000000
     71607     16644  TIP3      H1            -33.3304434620      -33.0446841372      -25.4101940355  TIP3      16452           0.0000000000
     71608     16644  TIP3      H2            -33.6410588974      -32.8139283228      -23.9549591734  TIP3      16452           0.0000000000
     71609     16645  TIP3      OH2           -28.7694820430       36.6417939378      -25.7921829092  TIP3      16453           0.0000000000
     71610     16645  TIP3      H1            -28.0087383400       36.0813484616      -25.8182258739  TIP3      16453           0.0000000000
     71611     16645  TIP3      H2            -28.8832322242       36.9540753073      -26.7140800929  TIP3      16453           0.0000000000
     71612     16646  TIP3      OH2           -28.9105300392      -17.7559058222      -40.5467498957  TIP3      16454           0.0000000000
     71613     16646  TIP3      H1            -27.9436378503      -17.6714085666      -40.4800928359  TIP3      16454           0.0000000000
     71614     16646  TIP3      H2            -29.0559995958      -17.1552797496      -41.2866371425  TIP3      16454           0.0000000000
     71615     16647  TIP3      OH2           -35.3158533257      -23.1824542328      -41.0643050431  TIP3      16455           0.0000000000
     71616     16647  TIP3      H1            -34.3547442492      -23.0693434320      -40.8916842935  TIP3      16455           0.0000000000
     71617     16647  TIP3      H2            -35.2749031337      -23.8240438630      -41.7982488162  TIP3      16455           0.0000000000
     71618     16648  TIP3      OH2            36.8546974121      -17.6274594113      -36.2862948953  TIP3      16456           0.0000000000
     71619     16648  TIP3      H1             35.9479415410      -17.8425113761      -36.5928228311  TIP3      16456           0.0000000000
     71620     16648  TIP3      H2             36.9434387796      -18.2626562891      -35.5397958443  TIP3      16456           0.0000000000
     71621     16649  TIP3      OH2           -35.6877076672      -19.6424259899      -34.2860396510  TIP3      16457           0.0000000000
     71622     16649  TIP3      H1            -36.1084111185      -20.5043878375      -34.0657561335  TIP3      16457           0.0000000000
     71623     16649  TIP3      H2            -35.5208754041      -19.3288287902      -33.3805361604  TIP3      16457           0.0000000000
     71624     16650  TIP3      OH2           -18.2145585911      -18.8682059948      -31.3146608272  TIP3      16458           0.0000000000
     71625     16650  TIP3      H1            -18.1905223045      -18.7167220055      -30.3549013031  TIP3      16458           0.0000000000
     71626     16650  TIP3      H2            -17.5094706597      -18.2825300177      -31.6100523171  TIP3      16458           0.0000000000
     71627     16651  TIP3      OH2           -18.6287519896      -19.2789188777      -28.3464712242  TIP3      16459           0.0000000000
     71628     16651  TIP3      H1            -19.1074274590      -20.0388691999      -28.7414805948  TIP3      16459           0.0000000000
     71629     16651  TIP3      H2            -18.1453662032      -19.7436017859      -27.6404101385  TIP3      16459           0.0000000000
     71630     16652  TIP3      OH2           -20.1696700639      -23.5552418258      -23.6623737458  TIP3      16460           0.0000000000
     71631     16652  TIP3      H1            -21.0865887022      -23.5516189377      -23.3460104303  TIP3      16460           0.0000000000
     71632     16652  TIP3      H2            -19.7807954884      -22.7331960498      -23.3004957220  TIP3      16460           0.0000000000
     71633     16653  TIP3      OH2           -18.8818282366      -25.2176555691      -38.2615929507  TIP3      16461           0.0000000000
     71634     16653  TIP3      H1            -18.0149223882      -24.8271195483      -38.0735296086  TIP3      16461           0.0000000000
     71635     16653  TIP3      H2            -18.8945586682      -25.9381690218      -37.5962423712  TIP3      16461           0.0000000000
     71636     16654  TIP3      OH2           -18.5193789552      -27.1421973394      -36.3697903246  TIP3      16462           0.0000000000
     71637     16654  TIP3      H1            -19.2712681484      -27.6419185624      -35.9791926143  TIP3      16462           0.0000000000
     71638     16654  TIP3      H2            -17.9219787351      -27.0123611799      -35.6071943841  TIP3      16462           0.0000000000
     71639     16655  TIP3      OH2           -18.7637764622      -24.4488163604      -31.3864759671  TIP3      16463           0.0000000000
     71640     16655  TIP3      H1            -17.9526402336      -24.8266194192      -31.7712008695  TIP3      16463           0.0000000000
     71641     16655  TIP3      H2            -18.6168247628      -23.4951567149      -31.5562436938  TIP3      16463           0.0000000000
     71642     16656  TIP3      OH2           -20.2076481688      -21.5388095380      -29.1175603614  TIP3      16464           0.0000000000
     71643     16656  TIP3      H1            -20.8972214535      -21.2001689838      -28.5292973442  TIP3      16464           0.0000000000
     71644     16656  TIP3      H2            -20.7526087400      -21.9454433642      -29.8265984450  TIP3      16464           0.0000000000
     71645     16657  TIP3      OH2           -18.2184949234      -27.3198255165      -39.9814942618  TIP3      16465           0.0000000000
     71646     16657  TIP3      H1            -18.7851460028      -26.9791701505      -40.7060224565  TIP3      16465           0.0000000000
     71647     16657  TIP3      H2            -18.3197467984      -26.6063203330      -39.3242941259  TIP3      16465           0.0000000000
     71648     16658  TIP3      OH2           -19.8387564584      -30.0853765951      -41.4733785269  TIP3      16466           0.0000000000
     71649     16658  TIP3      H1            -19.7682819249      -29.4223736399      -42.1668220433  TIP3      16466           0.0000000000
     71650     16658  TIP3      H2            -20.0303968873      -30.9099215029      -41.9629612445  TIP3      16466           0.0000000000
     71651     16659  TIP3      OH2           -20.6989382107      -28.6706015856      -35.8014029191  TIP3      16467           0.0000000000
     71652     16659  TIP3      H1            -20.8473299155      -29.6251894163      -35.8435128786  TIP3      16467           0.0000000000
     71653     16659  TIP3      H2            -21.0300349988      -28.4559120246      -34.9091348670  TIP3      16467           0.0000000000
     71654     16660  TIP3      OH2           -35.6872280243      -26.6125431459      -31.8291684676  TIP3      16468           0.0000000000
     71655     16660  TIP3      H1            -35.4758374741      -26.6420556709      -32.7859119152  TIP3      16468           0.0000000000
     71656     16660  TIP3      H2            -34.8061007090      -26.7093073607      -31.4053893593  TIP3      16468           0.0000000000
     71657     16661  TIP3      OH2           -19.8390318268      -26.7058475239      -26.1290815173  TIP3      16469           0.0000000000
     71658     16661  TIP3      H1            -19.2173854253      -27.4481352415      -25.9705573055  TIP3      16469           0.0000000000
     71659     16661  TIP3      H2            -19.2368593606      -25.9291529799      -26.1065430592  TIP3      16469           0.0000000000
     71660     16662  TIP3      OH2           -18.3550907451      -28.8281607277      -25.5257285186  TIP3      16470           0.0000000000
     71661     16662  TIP3      H1            -19.2314592181      -29.2490183434      -25.6372025021  TIP3      16470           0.0000000000
     71662     16662  TIP3      H2            -17.7654882025      -29.5983802976      -25.5350377791  TIP3      16470           0.0000000000
     71663     16663  TIP3      OH2           -20.5987792575      -32.6095547472      -42.3150680057  TIP3      16471           0.0000000000
     71664     16663  TIP3      H1            -20.0075365213      -33.0542841917      -41.6767706988  TIP3      16471           0.0000000000
     71665     16663  TIP3      H2            -21.4581544479      -33.0467233743      -42.1763217003  TIP3      16471           0.0000000000
     71666     16664  TIP3      OH2           -21.0554750261      -31.0749044670      -37.3884545936  TIP3      16472           0.0000000000
     71667     16664  TIP3      H1            -20.7389488721      -31.9914811496      -37.2313007830  TIP3      16472           0.0000000000
     71668     16664  TIP3      H2            -20.2316398912      -30.6727378854      -37.6936011850  TIP3      16472           0.0000000000
     71669     16665  TIP3      OH2           -20.3953934614      -30.5198086272      -31.9083574578  TIP3      16473           0.0000000000
     71670     16665  TIP3      H1            -19.4304119997      -30.3078886310      -31.9197296958  TIP3      16473           0.0000000000
     71671     16665  TIP3      H2            -20.5785437130      -30.4066496052      -30.9624484852  TIP3      16473           0.0000000000
     71672     16666  TIP3      OH2           -20.3419534497      -29.7988163415      -29.1292651385  TIP3      16474           0.0000000000
     71673     16666  TIP3      H1            -21.2238677152      -29.5166723819      -28.7979509196  TIP3      16474           0.0000000000
     71674     16666  TIP3      H2            -19.8962920570      -28.9473861462      -29.3455850492  TIP3      16474           0.0000000000
     71675     16667  TIP3      OH2           -35.8067334476      -31.4362526520      -25.6158024428  TIP3      16475           0.0000000000
     71676     16667  TIP3      H1            -34.9359787298      -31.6214566678      -25.2424092112  TIP3      16475           0.0000000000
     71677     16667  TIP3      H2            -36.3995064457      -32.0789693731      -25.1454756485  TIP3      16475           0.0000000000
     71678     16668  TIP3      OH2           -17.9213623748      -35.7356531512      -23.7626830482  TIP3      16476           0.0000000000
     71679     16668  TIP3      H1            -17.7641176574      -36.4246748279      -24.4253461354  TIP3      16476           0.0000000000
     71680     16668  TIP3      H2            -18.0078538797      -34.9274613635      -24.2962282839  TIP3      16476           0.0000000000
     71681     16669  TIP3      OH2           -20.3662052743      -33.7693085208      -37.2933382978  TIP3      16477           0.0000000000
     71682     16669  TIP3      H1            -20.1641426983      -34.2427905602      -36.4562994228  TIP3      16477           0.0000000000
     71683     16669  TIP3      H2            -20.9453906334      -34.4177120588      -37.7622542683  TIP3      16477           0.0000000000
     71684     16670  TIP3      OH2           -34.8600119312      -32.9792583334      -32.7998701025  TIP3      16478           0.0000000000
     71685     16670  TIP3      H1            -34.4339483003      -33.8086247613      -32.4753144608  TIP3      16478           0.0000000000
     71686     16670  TIP3      H2            -34.3312328583      -32.3104443138      -32.3320993740  TIP3      16478           0.0000000000
     71687     16671  TIP3      OH2           -36.0100946076      -29.2418691502      -31.3436994079  TIP3      16479           0.0000000000
     71688     16671  TIP3      H1            -35.9779108356      -29.6738429586      -32.2232434195  TIP3      16479           0.0000000000
     71689     16671  TIP3      H2            -35.9429784070      -28.3258227163      -31.6261709861  TIP3      16479           0.0000000000
     71690     16672  TIP3      OH2           -18.5273282991      -33.7274920318      -25.4287371962  TIP3      16480           0.0000000000
     71691     16672  TIP3      H1            -19.4455679370      -33.3962941415      -25.4968861697  TIP3      16480           0.0000000000
     71692     16672  TIP3      H2            -18.4802818974      -34.2180237050      -26.2672452163  TIP3      16480           0.0000000000
     71693     16673  TIP3      OH2           -18.5177077405      -33.7584487682      -40.7357861877  TIP3      16481           0.0000000000
     71694     16673  TIP3      H1            -18.1401779903      -34.4856030930      -41.2843403131  TIP3      16481           0.0000000000
     71695     16673  TIP3      H2            -17.8057982009      -33.1103077570      -40.7087940650  TIP3      16481           0.0000000000
     71696     16674  TIP3      OH2           -35.7687436249      -33.8070431488      -38.0487178536  TIP3      16482           0.0000000000
     71697     16674  TIP3      H1            -36.7030982963      -33.5838762316      -37.9369484749  TIP3      16482           0.0000000000
     71698     16674  TIP3      H2            -35.5354823629      -33.0694516321      -38.6506527912  TIP3      16482           0.0000000000
     71699     16675  TIP3      OH2           -21.4920805439      -18.7804156576      -35.6776685094  TIP3      16483           0.0000000000
     71700     16675  TIP3      H1            -20.8076889841      -19.0843960052      -36.3010993314  TIP3      16483           0.0000000000
     71701     16675  TIP3      H2            -20.9753207486      -18.2836938466      -35.0264618873  TIP3      16483           0.0000000000
     71702     16676  TIP3      OH2            36.9593405942      -35.0510839572      -29.0694739746  TIP3      16484           0.0000000000
     71703     16676  TIP3      H1             36.1563509611      -35.3165130721      -28.6277682996  TIP3      16484           0.0000000000
     71704     16676  TIP3      H2             36.5205351235      -34.6112177114      -29.8209832501  TIP3      16484           0.0000000000
     71705     16677  TIP3      OH2           -34.0827468610      -21.8307246305      -25.1132103626  TIP3      16485           0.0000000000
     71706     16677  TIP3      H1            -34.9139218311      -21.6837122441      -25.5912011041  TIP3      16485           0.0000000000
     71707     16677  TIP3      H2            -34.4113896987      -21.9723436245      -24.2350375651  TIP3      16485           0.0000000000
     71708     16678  TIP3      OH2           -31.1695910527      -20.8801016739      -29.0240475294  TIP3      16486           0.0000000000
     71709     16678  TIP3      H1            -31.4731223172      -19.9561186540      -29.1087801248  TIP3      16486           0.0000000000
     71710     16678  TIP3      H2            -30.2047267938      -20.7651296629      -29.1714117055  TIP3      16486           0.0000000000
     71711     16679  TIP3      OH2           -26.8056831610      -19.5310075766      -25.9704670170  TIP3      16487           0.0000000000
     71712     16679  TIP3      H1            -26.5949696927      -19.8053011587      -25.0778562145  TIP3      16487           0.0000000000
     71713     16679  TIP3      H2            -25.9561598143      -19.1164459707      -26.2426959171  TIP3      16487           0.0000000000
     71714     16680  TIP3      OH2           -24.5401940597      -18.1897688306      -26.6575712050  TIP3      16488           0.0000000000
     71715     16680  TIP3      H1            -23.7899564170      -18.7460045788      -26.9279996949  TIP3      16488           0.0000000000
     71716     16680  TIP3      H2            -24.1373702826      -17.7509032680      -25.8774175433  TIP3      16488           0.0000000000
     71717     16681  TIP3      OH2           -19.4965093587      -35.5253164775      -27.6957807934  TIP3      16489           0.0000000000
     71718     16681  TIP3      H1            -20.3599726463      -35.2434912487      -28.0379496437  TIP3      16489           0.0000000000
     71719     16681  TIP3      H2            -19.3529526032      -36.4012111889      -28.1150903389  TIP3      16489           0.0000000000
     71720     16682  TIP3      OH2           -33.7246010386      -17.6902527455      -28.9199265431  TIP3      16490           0.0000000000
     71721     16682  TIP3      H1            -34.4386545189      -17.1284865682      -29.2787864391  TIP3      16490           0.0000000000
     71722     16682  TIP3      H2            -34.0451889762      -17.8200811580      -28.0156137248  TIP3      16490           0.0000000000
     71723     16683  TIP3      OH2           -31.3681228864      -18.2036526027      -30.0014327365  TIP3      16491           0.0000000000
     71724     16683  TIP3      H1            -32.0983302787      -17.8963192500      -29.4112759947  TIP3      16491           0.0000000000
     71725     16683  TIP3      H2            -31.2540794623      -17.4043125010      -30.5546766497  TIP3      16491           0.0000000000
     71726     16684  TIP3      OH2           -26.5341723531      -18.1410529096      -30.6574578160  TIP3      16492           0.0000000000
     71727     16684  TIP3      H1            -27.0086858746      -17.5843299596      -31.2976301237  TIP3      16492           0.0000000000
     71728     16684  TIP3      H2            -26.4037698282      -17.5064340411      -29.9174883399  TIP3      16492           0.0000000000
     71729     16685  TIP3      OH2           -24.2407723567      -19.3427031828      -29.6431624812  TIP3      16493           0.0000000000
     71730     16685  TIP3      H1            -25.0945511688      -19.0671365180      -30.0133690220  TIP3      16493           0.0000000000
     71731     16685  TIP3      H2            -23.7605910556      -18.5006410594      -29.7147690559  TIP3      16493           0.0000000000
     71732     16686  TIP3      OH2           -21.6651367801      -17.7650591998      -29.4059218510  TIP3      16494           0.0000000000
     71733     16686  TIP3      H1            -21.7227322992      -16.8068703208      -29.6378909828  TIP3      16494           0.0000000000
     71734     16686  TIP3      H2            -21.4485510268      -18.1432639763      -30.2820178797  TIP3      16494           0.0000000000
     71735     16687  TIP3      OH2           -34.3392271686      -19.0477253186      -31.9860339562  TIP3      16495           0.0000000000
     71736     16687  TIP3      H1            -34.3280529514      -19.3571065185      -31.0617278069  TIP3      16495           0.0000000000
     71737     16687  TIP3      H2            -33.4700690788      -19.2327515394      -32.3804846106  TIP3      16495           0.0000000000
     71738     16688  TIP3      OH2           -32.1509210207      -20.1961899140      -33.4370858841  TIP3      16496           0.0000000000
     71739     16688  TIP3      H1            -32.2256430982      -21.1623173580      -33.4587860237  TIP3      16496           0.0000000000
     71740     16688  TIP3      H2            -31.2475418489      -20.0507345959      -33.0415284440  TIP3      16496           0.0000000000
     71741     16689  TIP3      OH2           -29.6911815251      -19.8565108060      -32.3834109952  TIP3      16497           0.0000000000
     71742     16689  TIP3      H1            -29.3653067804      -20.7242457612      -32.6818266794  TIP3      16497           0.0000000000
     71743     16689  TIP3      H2            -29.4802712246      -19.8373774415      -31.4400121659  TIP3      16497           0.0000000000
     71744     16690  TIP3      OH2           -26.2439375580      -34.0770948979      -33.3076815230  TIP3      16498           0.0000000000
     71745     16690  TIP3      H1            -26.8267156158      -34.7981988649      -33.0241056856  TIP3      16498           0.0000000000
     71746     16690  TIP3      H2            -25.5607286092      -34.5708743265      -33.8009911807  TIP3      16498           0.0000000000
     71747     16691  TIP3      OH2           -20.9823615261      -36.0673927904      -33.1926829821  TIP3      16499           0.0000000000
     71748     16691  TIP3      H1            -20.3619985244      -35.5144030490      -33.7149729753  TIP3      16499           0.0000000000
     71749     16691  TIP3      H2            -21.8478916405      -35.7252668511      -33.4343739884  TIP3      16499           0.0000000000
     71750     16692  TIP3      OH2           -19.2932556823      -34.8133664864      -34.9435593750  TIP3      16500           0.0000000000
     71751     16692  TIP3      H1            -18.6613194153      -35.4093411893      -35.3623639071  TIP3      16500           0.0000000000
     71752     16692  TIP3      H2            -18.7880152759      -33.9786413918      -34.8616666072  TIP3      16500           0.0000000000
     71753     16693  TIP3      OH2           -33.7716607727      -35.4838100287      -35.4200781650  TIP3      16501           0.0000000000
     71754     16693  TIP3      H1            -34.5153437427      -35.7389238853      -35.9777270887  TIP3      16501           0.0000000000
     71755     16693  TIP3      H2            -33.2921142424      -36.3296475714      -35.3730964609  TIP3      16501           0.0000000000
     71756     16694  TIP3      OH2           -34.9525443274      -35.7868815892      -39.7650399728  TIP3      16502           0.0000000000
     71757     16694  TIP3      H1            -34.4801124152      -35.1150824668      -40.2699491621  TIP3      16502           0.0000000000
     71758     16694  TIP3      H2            -35.5463464096      -35.2196417300      -39.2479136156  TIP3      16502           0.0000000000
     71759     16695  TIP3      OH2           -29.2177841971      -35.6546386536      -35.6702064200  TIP3      16503           0.0000000000
     71760     16695  TIP3      H1            -28.3635574292      -35.1962094439      -35.7062709292  TIP3      16503           0.0000000000
     71761     16695  TIP3      H2            -29.3246559183      -35.7894573660      -34.7230956737  TIP3      16503           0.0000000000
     71762     16696  TIP3      OH2           -23.8313488164      -35.2015958156      -33.8727346798  TIP3      16504           0.0000000000
     71763     16696  TIP3      H1            -23.6898460483      -35.2480440968      -34.8222631405  TIP3      16504           0.0000000000
     71764     16696  TIP3      H2            -23.9220403564      -36.1776024233      -33.7359020046  TIP3      16504           0.0000000000
     71765     16697  TIP3      OH2           -22.2925003007      -35.4993613875      -38.3119656447  TIP3      16505           0.0000000000
     71766     16697  TIP3      H1            -23.0477216255      -34.9355199807      -38.5353364931  TIP3      16505           0.0000000000
     71767     16697  TIP3      H2            -22.6979529729      -36.3626621232      -38.1625423562  TIP3      16505           0.0000000000
     71768     16698  TIP3      OH2           -35.0665119560      -19.7848866477      -38.6658755591  TIP3      16506           0.0000000000
     71769     16698  TIP3      H1            -35.6732146965      -19.8021183276      -39.4189144515  TIP3      16506           0.0000000000
     71770     16698  TIP3      H2            -35.0367701001      -18.8313953189      -38.5086560227  TIP3      16506           0.0000000000
     71771     16699  TIP3      OH2           -33.1765528429      -33.8528783244      -41.1637229847  TIP3      16507           0.0000000000
     71772     16699  TIP3      H1            -32.6420934746      -34.4314583168      -41.7441811538  TIP3      16507           0.0000000000
     71773     16699  TIP3      H2            -32.4845080007      -33.5082270244      -40.5744138559  TIP3      16507           0.0000000000
     71774     16700  TIP3      OH2           -28.2068547304      -33.5803818096      -38.7551777999  TIP3      16508           0.0000000000
     71775     16700  TIP3      H1            -27.8488205679      -34.1460426267      -38.0487597790  TIP3      16508           0.0000000000
     71776     16700  TIP3      H2            -28.0514582696      -32.7064207745      -38.3286998305  TIP3      16508           0.0000000000
     71777     16701  TIP3      OH2           -26.1966298964      -18.5033963370      -40.3566777634  TIP3      16509           0.0000000000
     71778     16701  TIP3      H1            -25.2787805322      -18.2776923338      -40.5785846551  TIP3      16509           0.0000000000
     71779     16701  TIP3      H2            -26.4170546115      -19.0238732365      -41.1576298691  TIP3      16509           0.0000000000
     71780     16702  TIP3      OH2           -19.5042307810      -19.0035270590      -37.6359891189  TIP3      16510           0.0000000000
     71781     16702  TIP3      H1            -19.6925388771      -19.7860293691      -38.2082251104  TIP3      16510           0.0000000000
     71782     16702  TIP3      H2            -19.5690727139      -18.2686987271      -38.2799833239  TIP3      16510           0.0000000000
     71783     16703  TIP3      OH2           -33.9901445958      -34.9613776311      -26.0916204751  TIP3      16511           0.0000000000
     71784     16703  TIP3      H1            -34.2970534178      -35.7289465641      -25.5915406526  TIP3      16511           0.0000000000
     71785     16703  TIP3      H2            -33.0744447914      -34.9672031322      -25.7106577233  TIP3      16511           0.0000000000
     71786     16704  TIP3      OH2           -32.1738375579      -35.4567947559      -24.4658160445  TIP3      16512           0.0000000000
     71787     16704  TIP3      H1            -31.2110091473      -35.5635983264      -24.5922410980  TIP3      16512           0.0000000000
     71788     16704  TIP3      H2            -32.2714264911      -36.2870238087      -23.9653811076  TIP3      16512           0.0000000000
     71789     16705  TIP3      OH2           -33.2759754621      -18.8573341701      -41.7774092538  TIP3      16513           0.0000000000
     71790     16705  TIP3      H1            -33.5257505097      -18.5822226695      -40.8857880649  TIP3      16513           0.0000000000
     71791     16705  TIP3      H2            -32.4695971182      -19.3790623022      -41.6015553568  TIP3      16513           0.0000000000
     71792     16706  TIP3      OH2           -20.2484250177      -20.2444182328      -25.5297419516  TIP3      16514           0.0000000000
     71793     16706  TIP3      H1            -21.0484078577      -20.4030604575      -26.0777422241  TIP3      16514           0.0000000000
     71794     16706  TIP3      H2            -20.3750030269      -19.2946344604      -25.3424626909  TIP3      16514           0.0000000000
     71795     16707  TIP3      OH2            -5.8082638117      -26.3814164544      -35.5958283630  TIP3      16515           0.0000000000
     71796     16707  TIP3      H1             -5.8264981150      -25.3997104519      -35.6115719340  TIP3      16515           0.0000000000
     71797     16707  TIP3      H2             -6.5416330649      -26.6118016987      -36.1881131788  TIP3      16515           0.0000000000
     71798     16708  TIP3      OH2            -6.9537249665      -27.1234756343      -32.0830688546  TIP3      16516           0.0000000000
     71799     16708  TIP3      H1             -6.9678043557      -27.7723813515      -31.3649968134  TIP3      16516           0.0000000000
     71800     16708  TIP3      H2             -7.3037554786      -27.6324660484      -32.8345711193  TIP3      16516           0.0000000000
     71801     16709  TIP3      OH2           -14.6020764888      -27.4446810547      -30.5297469641  TIP3      16517           0.0000000000
     71802     16709  TIP3      H1            -14.5211955913      -28.1275282004      -29.8315368724  TIP3      16517           0.0000000000
     71803     16709  TIP3      H2            -13.8522736781      -26.8745657279      -30.3077740331  TIP3      16517           0.0000000000
     71804     16710  TIP3      OH2            -3.2706422453      -24.1744778119      -33.7986558760  TIP3      16518           0.0000000000
     71805     16710  TIP3      H1             -3.6758051752      -24.8934994230      -33.3035369677  TIP3      16518           0.0000000000
     71806     16710  TIP3      H2             -3.2442299991      -23.4657035384      -33.1290022691  TIP3      16518           0.0000000000
     71807     16711  TIP3      OH2           -13.6762548372      -22.9944766278      -32.0377688349  TIP3      16519           0.0000000000
     71808     16711  TIP3      H1            -13.9865312496      -23.8672865591      -32.3473999415  TIP3      16519           0.0000000000
     71809     16711  TIP3      H2            -12.7211968368      -23.1802435549      -31.9840692762  TIP3      16519           0.0000000000
     71810     16712  TIP3      OH2           -17.0380445801      -29.4440288050      -36.5373565958  TIP3      16520           0.0000000000
     71811     16712  TIP3      H1            -17.4762677255      -28.5771847032      -36.6023493458  TIP3      16520           0.0000000000
     71812     16712  TIP3      H2            -17.5987768793      -29.9837207671      -37.1094331438  TIP3      16520           0.0000000000
     71813     16713  TIP3      OH2           -16.3228890507      -27.1996800853      -34.3919727640  TIP3      16521           0.0000000000
     71814     16713  TIP3      H1            -16.0548654993      -28.0278684451      -33.9451959314  TIP3      16521           0.0000000000
     71815     16713  TIP3      H2            -15.6302681529      -27.1064117028      -35.0623205349  TIP3      16521           0.0000000000
     71816     16714  TIP3      OH2            -6.1497347315      -19.0148603964      -33.5600317235  TIP3      16522           0.0000000000
     71817     16714  TIP3      H1             -5.5010027256      -19.7036037574      -33.8483377404  TIP3      16522           0.0000000000
     71818     16714  TIP3      H2             -6.3660889755      -19.3537344436      -32.6916460070  TIP3      16522           0.0000000000
     71819     16715  TIP3      OH2            -8.5788905212      -24.7257634033      -31.6101346941  TIP3      16523           0.0000000000
     71820     16715  TIP3      H1             -8.2413728558      -25.3505875526      -32.2694697536  TIP3      16523           0.0000000000
     71821     16715  TIP3      H2             -7.7689104449      -24.5651496525      -31.0952286041  TIP3      16523           0.0000000000
     71822     16716  TIP3      OH2             0.0062482207      -33.0681577107      -30.8885702115  TIP3      16524           0.0000000000
     71823     16716  TIP3      H1              0.1977895842      -32.4980301809      -30.1091588388  TIP3      16524           0.0000000000
     71824     16716  TIP3      H2              0.5704786587      -32.6418052048      -31.5485233051  TIP3      16524           0.0000000000
     71825     16717  TIP3      OH2            -5.4106947456      -30.2541903184      -31.2872468047  TIP3      16525           0.0000000000
     71826     16717  TIP3      H1             -5.2556063346      -31.2204501456      -31.2856740007  TIP3      16525           0.0000000000
     71827     16717  TIP3      H2             -5.5162379249      -30.1091166407      -32.2482184016  TIP3      16525           0.0000000000
     71828     16718  TIP3      OH2           -12.2871256298      -32.1523971074      -34.0814068127  TIP3      16526           0.0000000000
     71829     16718  TIP3      H1            -12.1879244889      -31.3208548404      -34.5837278031  TIP3      16526           0.0000000000
     71830     16718  TIP3      H2            -12.7017528663      -32.7231487100      -34.7586994447  TIP3      16526           0.0000000000
     71831     16719  TIP3      OH2            -4.5560887598      -32.1101778842      -35.7090108001  TIP3      16527           0.0000000000
     71832     16719  TIP3      H1             -3.9025930446      -32.3844956878      -35.0278069848  TIP3      16527           0.0000000000
     71833     16719  TIP3      H2             -4.0079238066      -31.5185574749      -36.2422069164  TIP3      16527           0.0000000000
     71834     16720  TIP3      OH2           -15.6786319195      -29.7509063255      -33.3456255994  TIP3      16528           0.0000000000
     71835     16720  TIP3      H1            -15.0073378810      -30.2959608064      -32.8925942237  TIP3      16528           0.0000000000
     71836     16720  TIP3      H2            -15.5703446190      -30.0693031798      -34.2574164929  TIP3      16528           0.0000000000
     71837     16721  TIP3      OH2           -10.5186303549      -28.1997048800      -34.0213830243  TIP3      16529           0.0000000000
     71838     16721  TIP3      H1             -9.8433295585      -28.7815609657      -33.6320117284  TIP3      16529           0.0000000000
     71839     16721  TIP3      H2            -11.0335911230      -28.8560079768      -34.5315119831  TIP3      16529           0.0000000000
     71840     16722  TIP3      OH2             0.4558126605      -31.6701699459      -28.5965161138  TIP3      16530           0.0000000000
     71841     16722  TIP3      H1             -0.1544366077      -30.9084036509      -28.7124862161  TIP3      16530           0.0000000000
     71842     16722  TIP3      H2              0.4976102754      -31.7608483394      -27.6349366772  TIP3      16530           0.0000000000
     71843     16723  TIP3      OH2           -13.3753504625      -33.2105104197      -30.0513779630  TIP3      16531           0.0000000000
     71844     16723  TIP3      H1            -13.7018525859      -32.6780836224      -30.8056522116  TIP3      16531           0.0000000000
     71845     16723  TIP3      H2            -14.0833587378      -33.0365298043      -29.3818372146  TIP3      16531           0.0000000000
     71846     16724  TIP3      OH2            -6.1017565600      -23.7881770042      -36.4961070743  TIP3      16532           0.0000000000
     71847     16724  TIP3      H1             -6.3634516453      -24.0578376795      -37.3862896074  TIP3      16532           0.0000000000
     71848     16724  TIP3      H2             -6.4077127889      -22.8530904872      -36.4451269824  TIP3      16532           0.0000000000
     71849     16725  TIP3      OH2           -10.8766322939      -25.6246353455      -29.8038901085  TIP3      16533           0.0000000000
     71850     16725  TIP3      H1            -11.5813644069      -24.9789886761      -29.5832513017  TIP3      16533           0.0000000000
     71851     16725  TIP3      H2            -10.1706241495      -25.0251783445      -30.0938293567  TIP3      16533           0.0000000000
     71852     16726  TIP3      OH2            -2.7358121123      -32.7557864891      -33.7265155472  TIP3      16534           0.0000000000
     71853     16726  TIP3      H1             -2.9920265920      -33.4949389904      -33.1639167363  TIP3      16534           0.0000000000
     71854     16726  TIP3      H2             -2.0831964038      -32.3053258518      -33.1630228278  TIP3      16534           0.0000000000
     71855     16727  TIP3      OH2           -13.8304139313      -31.3609908502      -32.0307454531  TIP3      16535           0.0000000000
     71856     16727  TIP3      H1            -13.1772180011      -30.7151763753      -31.6902736360  TIP3      16535           0.0000000000
     71857     16727  TIP3      H2            -13.3112938913      -31.8079695159      -32.7459358276  TIP3      16535           0.0000000000
     71858     16728  TIP3      OH2           -12.4204621296      -23.6252038041      -28.9837322395  TIP3      16536           0.0000000000
     71859     16728  TIP3      H1            -12.4741755103      -22.7066982345      -29.3133074949  TIP3      16536           0.0000000000
     71860     16728  TIP3      H2            -13.3044017108      -23.6985945082      -28.5411271375  TIP3      16536           0.0000000000
     71861     16729  TIP3      OH2           -16.3482380153      -24.0121352711      -38.1998822101  TIP3      16537           0.0000000000
     71862     16729  TIP3      H1            -16.5877203034      -23.6739079878      -39.0813923645  TIP3      16537           0.0000000000
     71863     16729  TIP3      H2            -16.2704793853      -23.1840531759      -37.6814511229  TIP3      16537           0.0000000000
     71864     16730  TIP3      OH2            -2.7415155812      -22.3367325144      -31.4333899354  TIP3      16538           0.0000000000
     71865     16730  TIP3      H1             -3.7091942115      -22.2244118804      -31.3131645825  TIP3      16538           0.0000000000
     71866     16730  TIP3      H2             -2.4705654115      -21.4202182461      -31.6371923029  TIP3      16538           0.0000000000
     71867     16731  TIP3      OH2            -2.3847272896      -34.0556541557      -29.9871538933  TIP3      16539           0.0000000000
     71868     16731  TIP3      H1             -3.1322697558      -33.4631477896      -30.1378141432  TIP3      16539           0.0000000000
     71869     16731  TIP3      H2             -1.6971410137      -33.6478405838      -30.5511089330  TIP3      16539           0.0000000000
     71870     16732  TIP3      OH2            -9.4798304691      -35.9242416759      -32.7593573412  TIP3      16540           0.0000000000
     71871     16732  TIP3      H1             -9.4887021712      -36.8804717944      -32.5873026055  TIP3      16540           0.0000000000
     71872     16732  TIP3      H2            -10.2621101265      -35.6572185192      -32.2506499203  TIP3      16540           0.0000000000
     71873     16733  TIP3      OH2            -4.4794109222      -20.5506439313      -34.8455310290  TIP3      16541           0.0000000000
     71874     16733  TIP3      H1             -4.0518224714      -21.2713916481      -35.3522938337  TIP3      16541           0.0000000000
     71875     16733  TIP3      H2             -4.0443223928      -19.7627350588      -35.2349923565  TIP3      16541           0.0000000000
     71876     16734  TIP3      OH2            -3.2649911863      -22.6256830343      -36.3237525472  TIP3      16542           0.0000000000
     71877     16734  TIP3      H1             -3.5684121505      -23.3221000070      -36.9276289570  TIP3      16542           0.0000000000
     71878     16734  TIP3      H2             -3.2330381270      -23.1161376575      -35.4827872750  TIP3      16542           0.0000000000
     71879     16735  TIP3      OH2            -1.6823073360      -24.0215292149      -27.8358874691  TIP3      16543           0.0000000000
     71880     16735  TIP3      H1             -1.5107938067      -24.6850933552      -28.5416336622  TIP3      16543           0.0000000000
     71881     16735  TIP3      H2             -1.4379017795      -23.1818626198      -28.2754985276  TIP3      16543           0.0000000000
     71882     16736  TIP3      OH2            -7.1629705265      -27.1469440734      -38.0800154010  TIP3      16544           0.0000000000
     71883     16736  TIP3      H1             -7.8553829952      -26.5623862685      -38.4499463705  TIP3      16544           0.0000000000
     71884     16736  TIP3      H2             -6.4451909937      -27.0413082096      -38.7313990519  TIP3      16544           0.0000000000
     71885     16737  TIP3      OH2            -7.0717631447      -28.5668421546      -41.0624616049  TIP3      16545           0.0000000000
     71886     16737  TIP3      H1             -6.3653955093      -28.5852508329      -40.3973922372  TIP3      16545           0.0000000000
     71887     16737  TIP3      H2             -6.7683782426      -29.2890146444      -41.6282413939  TIP3      16545           0.0000000000
     71888     16738  TIP3      OH2             0.2165363726      -27.7372836753      -29.8298331139  TIP3      16546           0.0000000000
     71889     16738  TIP3      H1             -0.4088239711      -26.9899325407      -29.7369130044  TIP3      16546           0.0000000000
     71890     16738  TIP3      H2              0.7322770607      -27.4748598550      -30.6114854246  TIP3      16546           0.0000000000
     71891     16739  TIP3      OH2            -3.7018971929      -26.9430238449      -37.1500804027  TIP3      16547           0.0000000000
     71892     16739  TIP3      H1             -4.4426360086      -26.6905267878      -36.5494037016  TIP3      16547           0.0000000000
     71893     16739  TIP3      H2             -3.2289872139      -27.6101778633      -36.6229131279  TIP3      16547           0.0000000000
     71894     16740  TIP3      OH2            -3.7865285207      -28.7702336966      -28.0557474195  TIP3      16548           0.0000000000
     71895     16740  TIP3      H1             -3.7573542548      -27.9733661945      -27.4934303850  TIP3      16548           0.0000000000
     71896     16740  TIP3      H2             -4.4201119343      -28.4562378303      -28.7289989023  TIP3      16548           0.0000000000
     71897     16741  TIP3      OH2           -12.0941779354      -26.2673593694      -35.2300960985  TIP3      16549           0.0000000000
     71898     16741  TIP3      H1            -12.4144979746      -26.6609489446      -36.0781516418  TIP3      16549           0.0000000000
     71899     16741  TIP3      H2            -11.4807243867      -26.9614566810      -34.8955033826  TIP3      16549           0.0000000000
     71900     16742  TIP3      OH2           -10.7803176704      -22.8917135120      -32.5427390811  TIP3      16550           0.0000000000
     71901     16742  TIP3      H1            -10.7803715163      -23.4095591626      -33.3584258743  TIP3      16550           0.0000000000
     71902     16742  TIP3      H2             -9.9874300065      -23.2385873676      -32.0932756078  TIP3      16550           0.0000000000
     71903     16743  TIP3      OH2           -11.7665745652      -27.5233730353      -31.5659609006  TIP3      16551           0.0000000000
     71904     16743  TIP3      H1            -11.2173104944      -27.4265289524      -32.3688075592  TIP3      16551           0.0000000000
     71905     16743  TIP3      H2            -11.3744397565      -26.8564460174      -30.9587747386  TIP3      16551           0.0000000000
     71906     16744  TIP3      OH2            -5.3440797481      -21.9501666425      -30.8589293800  TIP3      16552           0.0000000000
     71907     16744  TIP3      H1             -5.6305851917      -21.3131850882      -30.1971589876  TIP3      16552           0.0000000000
     71908     16744  TIP3      H2             -5.6025504473      -22.8023163285      -30.4370190359  TIP3      16552           0.0000000000
     71909     16745  TIP3      OH2           -10.8141953987      -23.0906517321      -26.8442898762  TIP3      16553           0.0000000000
     71910     16745  TIP3      H1            -11.2299297556      -22.3472166575      -26.3594410362  TIP3      16553           0.0000000000
     71911     16745  TIP3      H2            -11.4791575292      -23.2884264652      -27.5480329288  TIP3      16553           0.0000000000
     71912     16746  TIP3      OH2            -4.8273056339      -27.7273191480      -39.4823872535  TIP3      16554           0.0000000000
     71913     16746  TIP3      H1             -4.2713882052      -27.5535064902      -38.6819512937  TIP3      16554           0.0000000000
     71914     16746  TIP3      H2             -4.3761853546      -27.2328295493      -40.2034148887  TIP3      16554           0.0000000000
     71915     16747  TIP3      OH2           -13.8681653114      -26.9274269290      -27.7015096278  TIP3      16555           0.0000000000
     71916     16747  TIP3      H1            -13.8365791165      -26.2640100919      -26.9799113551  TIP3      16555           0.0000000000
     71917     16747  TIP3      H2            -14.8095849956      -26.8441336509      -27.9296913256  TIP3      16555           0.0000000000
     71918     16748  TIP3      OH2            -7.1160844565      -21.0051972873      -36.0101846367  TIP3      16556           0.0000000000
     71919     16748  TIP3      H1             -6.6825806042      -20.6989419064      -35.2021987199  TIP3      16556           0.0000000000
     71920     16748  TIP3      H2             -7.6736438315      -20.2563288167      -36.2478308640  TIP3      16556           0.0000000000
     71921     16749  TIP3      OH2           -12.5941330926      -21.0958493697      -26.1532210814  TIP3      16557           0.0000000000
     71922     16749  TIP3      H1            -12.6318628528      -21.1900787682      -27.1152462465  TIP3      16557           0.0000000000
     71923     16749  TIP3      H2            -13.5195788807      -21.2171092566      -25.8799927219  TIP3      16557           0.0000000000
     71924     16750  TIP3      OH2            -1.1396222661      -35.8517157485      -39.8292487108  TIP3      16558           0.0000000000
     71925     16750  TIP3      H1             -1.9951771324      -35.8125878664      -39.3658910017  TIP3      16558           0.0000000000
     71926     16750  TIP3      H2             -0.8986512227      -34.9401676260      -40.0400507427  TIP3      16558           0.0000000000
     71927     16751  TIP3      OH2           -13.1337910919      -27.2535953951      -37.6023400877  TIP3      16559           0.0000000000
     71928     16751  TIP3      H1            -13.4101808626      -26.4682486996      -38.1209822467  TIP3      16559           0.0000000000
     71929     16751  TIP3      H2            -13.7804299405      -27.9174696678      -37.8473734816  TIP3      16559           0.0000000000
     71930     16752  TIP3      OH2             0.0089765093      -21.6443802274      -41.2295862155  TIP3      16560           0.0000000000
     71931     16752  TIP3      H1              0.1752928485      -20.7015318673      -41.0593693403  TIP3      16560           0.0000000000
     71932     16752  TIP3      H2              0.9324186421      -21.9574671566      -41.2320543158  TIP3      16560           0.0000000000
     71933     16753  TIP3      OH2           -17.0320787906      -24.8167019319      -28.7206400404  TIP3      16561           0.0000000000
     71934     16753  TIP3      H1            -17.4801764778      -24.9073737365      -29.5806681355  TIP3      16561           0.0000000000
     71935     16753  TIP3      H2            -16.9527958168      -25.7585875774      -28.4763895340  TIP3      16561           0.0000000000
     71936     16754  TIP3      OH2           -17.2722430178      -22.0844559884      -31.9326595434  TIP3      16562           0.0000000000
     71937     16754  TIP3      H1            -16.3146343596      -22.2005277550      -31.9598374074  TIP3      16562           0.0000000000
     71938     16754  TIP3      H2            -17.3551957563      -21.2633286943      -31.4332219328  TIP3      16562           0.0000000000
     71939     16755  TIP3      OH2             0.9425190443      -21.3849481916      -26.3182291713  TIP3      16563           0.0000000000
     71940     16755  TIP3      H1              0.8749671245      -22.3452279800      -26.2411651716  TIP3      16563           0.0000000000
     71941     16755  TIP3      H2              0.0983003572      -21.1257173841      -25.8773105123  TIP3      16563           0.0000000000
     71942     16756  TIP3      OH2            -8.0810928053      -21.8263055721      -27.4115954922  TIP3      16564           0.0000000000
     71943     16756  TIP3      H1             -8.0231887713      -21.0085396505      -26.8659632102  TIP3      16564           0.0000000000
     71944     16756  TIP3      H2             -8.9316821596      -22.2064269474      -27.1281391706  TIP3      16564           0.0000000000
     71945     16757  TIP3      OH2            -7.6336528042      -18.0982668634      -37.5987497168  TIP3      16565           0.0000000000
     71946     16757  TIP3      H1             -7.7457624146      -18.1760429236      -38.5637436563  TIP3      16565           0.0000000000
     71947     16757  TIP3      H2             -7.6332254182      -17.1358417185      -37.4421404650  TIP3      16565           0.0000000000
     71948     16758  TIP3      OH2           -13.9990622838      -19.2177863264      -35.7727544080  TIP3      16566           0.0000000000
     71949     16758  TIP3      H1            -13.8533374451      -19.6288132951      -34.8937235816  TIP3      16566           0.0000000000
     71950     16758  TIP3      H2            -14.8466057167      -19.6285469856      -36.0124189140  TIP3      16566           0.0000000000
     71951     16759  TIP3      OH2            -4.5809103097      -18.8839039878      -40.6144081581  TIP3      16567           0.0000000000
     71952     16759  TIP3      H1             -4.1262270188      -19.6424536132      -41.0486855090  TIP3      16567           0.0000000000
     71953     16759  TIP3      H2             -4.5415341215      -19.1456335893      -39.6710541632  TIP3      16567           0.0000000000
     71954     16760  TIP3      OH2            -4.8834814070      -18.9483713705      -37.8387405477  TIP3      16568           0.0000000000
     71955     16760  TIP3      H1             -5.8460773952      -18.8735273144      -37.6691743460  TIP3      16568           0.0000000000
     71956     16760  TIP3      H2             -4.6516557945      -19.6917821888      -37.2615096093  TIP3      16568           0.0000000000
     71957     16761  TIP3      OH2            -1.8505491198      -29.9350085217      -25.8470425650  TIP3      16569           0.0000000000
     71958     16761  TIP3      H1             -2.3775201289      -29.4723212288      -26.5090338566  TIP3      16569           0.0000000000
     71959     16761  TIP3      H2             -1.8968372182      -30.8626264978      -26.0955877476  TIP3      16569           0.0000000000
     71960     16762  TIP3      OH2           -14.7575127246      -23.5290954992      -27.8382039710  TIP3      16570           0.0000000000
     71961     16762  TIP3      H1            -14.5403542019      -23.8593173411      -26.9368926269  TIP3      16570           0.0000000000
     71962     16762  TIP3      H2            -15.6397522844      -23.9173919865      -27.9974289088  TIP3      16570           0.0000000000
     71963     16763  TIP3      OH2           -12.0929363843      -35.0649392385      -31.7942312015  TIP3      16571           0.0000000000
     71964     16763  TIP3      H1            -12.9833222457      -35.1254271307      -32.1927483312  TIP3      16571           0.0000000000
     71965     16763  TIP3      H2            -12.2013443222      -34.2084567956      -31.3506169670  TIP3      16571           0.0000000000
     71966     16764  TIP3      OH2            -7.4465135047      -35.3366678486      -28.4110830086  TIP3      16572           0.0000000000
     71967     16764  TIP3      H1             -7.0234375606      -35.7579225410      -27.6604892154  TIP3      16572           0.0000000000
     71968     16764  TIP3      H2             -8.3997197594      -35.4471255842      -28.2517158848  TIP3      16572           0.0000000000
     71969     16765  TIP3      OH2            -4.1836384363      -31.5728423660      -27.6037206333  TIP3      16573           0.0000000000
     71970     16765  TIP3      H1             -4.7001649568      -31.7007627619      -26.7690404097  TIP3      16573           0.0000000000
     71971     16765  TIP3      H2             -4.2763978202      -30.6168621518      -27.7790160655  TIP3      16573           0.0000000000
     71972     16766  TIP3      OH2            -3.3754342743      -26.6997579455      -41.6624316843  TIP3      16574           0.0000000000
     71973     16766  TIP3      H1             -3.4006282624      -26.8842588110      -42.6296412413  TIP3      16574           0.0000000000
     71974     16766  TIP3      H2             -2.5188952922      -26.2524768164      -41.6142460589  TIP3      16574           0.0000000000
     71975     16767  TIP3      OH2            -7.7803237606      -32.7850434768      -41.1422881855  TIP3      16575           0.0000000000
     71976     16767  TIP3      H1             -8.1063454306      -32.8551744933      -40.2329747190  TIP3      16575           0.0000000000
     71977     16767  TIP3      H2             -8.0982715023      -33.6544933989      -41.4546637611  TIP3      16575           0.0000000000
     71978     16768  TIP3      OH2           -11.9637210346      -30.0503855874      -30.5613043796  TIP3      16576           0.0000000000
     71979     16768  TIP3      H1            -12.7070605482      -30.0635772392      -29.9340537115  TIP3      16576           0.0000000000
     71980     16768  TIP3      H2            -12.0142861983      -29.1453854831      -30.9447578802  TIP3      16576           0.0000000000
     71981     16769  TIP3      OH2           -12.0055894522      -29.9388030587      -35.7110343576  TIP3      16577           0.0000000000
     71982     16769  TIP3      H1            -12.9457007130      -30.1793174214      -35.8416570087  TIP3      16577           0.0000000000
     71983     16769  TIP3      H2            -11.6292809615      -30.2306700766      -36.5644622221  TIP3      16577           0.0000000000
     71984     16770  TIP3      OH2            -6.4822927633      -29.4266714829      -36.9367785148  TIP3      16578           0.0000000000
     71985     16770  TIP3      H1             -6.8790100852      -28.6066453463      -37.3077492055  TIP3      16578           0.0000000000
     71986     16770  TIP3      H2             -5.7927151138      -29.6072938517      -37.5979616659  TIP3      16578           0.0000000000
     71987     16771  TIP3      OH2            -7.4495090920      -29.2135433506      -25.5066782144  TIP3      16579           0.0000000000
     71988     16771  TIP3      H1             -7.9615051207      -29.9976007524      -25.1858758264  TIP3      16579           0.0000000000
     71989     16771  TIP3      H2             -6.5952316476      -29.3402516137      -25.0747554456  TIP3      16579           0.0000000000
     71990     16772  TIP3      OH2            -5.4450420121      -29.9422634089      -34.0908712575  TIP3      16580           0.0000000000
     71991     16772  TIP3      H1             -5.7368257410      -29.3845475797      -34.8319998025  TIP3      16580           0.0000000000
     71992     16772  TIP3      H2             -5.3597362369      -30.7916954254      -34.5591366677  TIP3      16580           0.0000000000
     71993     16773  TIP3      OH2           -14.3515923502      -29.7987720322      -28.8854693514  TIP3      16581           0.0000000000
     71994     16773  TIP3      H1            -14.2643490792      -29.3964178862      -28.0021995247  TIP3      16581           0.0000000000
     71995     16773  TIP3      H2            -14.7960694968      -30.6334501409      -28.6795385950  TIP3      16581           0.0000000000
     71996     16774  TIP3      OH2           -10.9777462694      -32.3905088124      -42.0256671196  TIP3      16582           0.0000000000
     71997     16774  TIP3      H1            -11.4418393157      -32.8282461132      -41.2868591454  TIP3      16582           0.0000000000
     71998     16774  TIP3      H2            -11.6833455952      -31.9948313569      -42.5527349166  TIP3      16582           0.0000000000
     71999     16775  TIP3      OH2           -17.6798718078      -32.6639408919      -34.9248745424  TIP3      16583           0.0000000000
     72000     16775  TIP3      H1            -17.0024207339      -32.7007321676      -34.2157584751  TIP3      16583           0.0000000000
     72001     16775  TIP3      H2            -17.2319869431      -33.0575384576      -35.6917241476  TIP3      16583           0.0000000000
     72002     16776  TIP3      OH2           -16.4204027926      -31.9580764731      -39.5247076239  TIP3      16584           0.0000000000
     72003     16776  TIP3      H1            -15.9089686107      -31.3741771912      -40.1168645190  TIP3      16584           0.0000000000
     72004     16776  TIP3      H2            -17.1148598387      -31.3358601787      -39.2333157205  TIP3      16584           0.0000000000
     72005     16777  TIP3      OH2            -6.2626734557      -28.3580251422      -29.5431042798  TIP3      16585           0.0000000000
     72006     16777  TIP3      H1             -5.8747104097      -29.0460061823      -30.1241757353  TIP3      16585           0.0000000000
     72007     16777  TIP3      H2             -6.7225161398      -28.8910155540      -28.8714596317  TIP3      16585           0.0000000000
     72008     16778  TIP3      OH2            -9.4462907131      -32.3922149856      -34.7250207294  TIP3      16586           0.0000000000
     72009     16778  TIP3      H1            -10.3747624889      -32.3917709642      -34.4139907449  TIP3      16586           0.0000000000
     72010     16778  TIP3      H2             -8.9564185006      -32.5422155400      -33.8990707560  TIP3      16586           0.0000000000
     72011     16779  TIP3      OH2           -14.6403725366      -30.8324738720      -35.8357701405  TIP3      16587           0.0000000000
     72012     16779  TIP3      H1            -15.5258941911      -30.6833219399      -36.2272306701  TIP3      16587           0.0000000000
     72013     16779  TIP3      H2            -14.3443875592      -31.6615733946      -36.2495293153  TIP3      16587           0.0000000000
     72014     16780  TIP3      OH2           -10.9970114664      -30.7897467916      -38.2098265951  TIP3      16588           0.0000000000
     72015     16780  TIP3      H1            -10.0413406754      -30.6831129355      -38.0477919245  TIP3      16588           0.0000000000
     72016     16780  TIP3      H2            -11.2349143068      -30.0972265758      -38.8565267081  TIP3      16588           0.0000000000
     72017     16781  TIP3      OH2            -5.0448222324      -33.1720876250      -31.4693111664  TIP3      16589           0.0000000000
     72018     16781  TIP3      H1             -5.7334300864      -33.0902911341      -30.7743872816  TIP3      16589           0.0000000000
     72019     16781  TIP3      H2             -5.5477869541      -33.4361232339      -32.2507282449  TIP3      16589           0.0000000000
     72020     16782  TIP3      OH2           -12.2960471711      -29.6052759472      -40.6200726336  TIP3      16590           0.0000000000
     72021     16782  TIP3      H1            -12.8231263616      -29.9999308894      -41.3356039333  TIP3      16590           0.0000000000
     72022     16782  TIP3      H2            -11.4706557997      -29.4075604487      -41.0914269019  TIP3      16590           0.0000000000
     72023     16783  TIP3      OH2            -1.8307853770      -17.4868721431      -25.0955623922  TIP3      16591           0.0000000000
     72024     16783  TIP3      H1             -1.6178908431      -17.1348662388      -25.9841230630  TIP3      16591           0.0000000000
     72025     16783  TIP3      H2             -1.0901414603      -17.1948721731      -24.5638341615  TIP3      16591           0.0000000000
     72026     16784  TIP3      OH2           -14.1943116291      -25.0366361003      -25.5367761738  TIP3      16592           0.0000000000
     72027     16784  TIP3      H1            -13.4845498284      -24.7733159082      -24.9231878422  TIP3      16592           0.0000000000
     72028     16784  TIP3      H2            -14.9561956416      -24.9602377899      -24.9274313635  TIP3      16592           0.0000000000
     72029     16785  TIP3      OH2            -8.1638347600      -29.6324046341      -32.8135438284  TIP3      16593           0.0000000000
     72030     16785  TIP3      H1             -7.5680029300      -30.1773913100      -33.3411221276  TIP3      16593           0.0000000000
     72031     16785  TIP3      H2             -8.3183245846      -30.1758766371      -32.0281979190  TIP3      16593           0.0000000000
     72032     16786  TIP3      OH2           -13.1733518870      -33.4527295916      -36.3677153880  TIP3      16594           0.0000000000
     72033     16786  TIP3      H1            -13.4861282554      -34.3729716538      -36.3502858756  TIP3      16594           0.0000000000
     72034     16786  TIP3      H2            -12.3930132197      -33.5375643206      -36.9268389024  TIP3      16594           0.0000000000
     72035     16787  TIP3      OH2            -9.5203490426      -31.2525865794      -30.4092938908  TIP3      16595           0.0000000000
     72036     16787  TIP3      H1            -10.3640637602      -30.7666486109      -30.2999128111  TIP3      16595           0.0000000000
     72037     16787  TIP3      H2             -8.9759728597      -30.9390891154      -29.6641086727  TIP3      16595           0.0000000000
     72038     16788  TIP3      OH2            -8.9411407714      -25.0755788728      -38.7145102986  TIP3      16596           0.0000000000
     72039     16788  TIP3      H1             -9.7434597266      -25.5456133146      -39.0403057666  TIP3      16596           0.0000000000
     72040     16788  TIP3      H2             -9.1686717324      -24.9519610011      -37.7712859789  TIP3      16596           0.0000000000
     72041     16789  TIP3      OH2            -1.7557725822      -25.8716683071      -29.9042673488  TIP3      16597           0.0000000000
     72042     16789  TIP3      H1             -1.1933651221      -25.3891390959      -30.5361042464  TIP3      16597           0.0000000000
     72043     16789  TIP3      H2             -2.6172835103      -25.8294083254      -30.3652542713  TIP3      16597           0.0000000000
     72044     16790  TIP3      OH2            -5.1268003248      -32.2539739774      -40.5071425221  TIP3      16598           0.0000000000
     72045     16790  TIP3      H1             -6.0758212450      -32.1009165650      -40.6659493317  TIP3      16598           0.0000000000
     72046     16790  TIP3      H2             -4.7771357820      -31.4034924061      -40.1696576364  TIP3      16598           0.0000000000
     72047     16791  TIP3      OH2            -7.4721840413      -24.8064763452      -27.4826404398  TIP3      16599           0.0000000000
     72048     16791  TIP3      H1             -7.8025107634      -25.2305945389      -26.6803350241  TIP3      16599           0.0000000000
     72049     16791  TIP3      H2             -7.6748402660      -23.8730189730      -27.3489980790  TIP3      16599           0.0000000000
     72050     16792  TIP3      OH2            -4.3680753912      -30.3521027095      -38.9051487517  TIP3      16600           0.0000000000
     72051     16792  TIP3      H1             -3.4887710488      -30.4892006282      -38.4944912148  TIP3      16600           0.0000000000
     72052     16792  TIP3      H2             -4.2678489669      -29.5197846445      -39.3997292674  TIP3      16600           0.0000000000
     72053     16793  TIP3      OH2           -13.8290489567      -25.6794840005      -32.8982529400  TIP3      16601           0.0000000000
     72054     16793  TIP3      H1            -13.1520840704      -25.7654432687      -33.5981298671  TIP3      16601           0.0000000000
     72055     16793  TIP3      H2            -13.7727640680      -26.5388755002      -32.4425275190  TIP3      16601           0.0000000000
     72056     16794  TIP3      OH2            -6.8353310990      -23.6088977252      -39.6576921805  TIP3      16602           0.0000000000
     72057     16794  TIP3      H1             -7.1901117121      -22.7636858464      -39.3113477581  TIP3      16602           0.0000000000
     72058     16794  TIP3      H2             -7.5741685729      -24.2240431282      -39.4515420031  TIP3      16602           0.0000000000
     72059     16795  TIP3      OH2           -16.8223754006      -27.3043072635      -27.6685857473  TIP3      16603           0.0000000000
     72060     16795  TIP3      H1            -16.6798011913      -27.6842311003      -26.7718077972  TIP3      16603           0.0000000000
     72061     16795  TIP3      H2            -17.4687757875      -27.9054820048      -28.0697678964  TIP3      16603           0.0000000000
     72062     16796  TIP3      OH2            -9.8231873059      -27.7437079119      -25.4513943720  TIP3      16604           0.0000000000
     72063     16796  TIP3      H1            -10.1358725936      -28.0287977877      -26.3240005910  TIP3      16604           0.0000000000
     72064     16796  TIP3      H2             -8.8881621746      -28.0327937229      -25.4649617563  TIP3      16604           0.0000000000
     72065     16797  TIP3      OH2            -5.1396627696      -22.3819423624      -27.4951456400  TIP3      16605           0.0000000000
     72066     16797  TIP3      H1             -6.0619525385      -22.2087634211      -27.7447237880  TIP3      16605           0.0000000000
     72067     16797  TIP3      H2             -5.1842919096      -22.0868636978      -26.5638837872  TIP3      16605           0.0000000000
     72068     16798  TIP3      OH2             0.5366940920      -30.1952882867      -39.1221602433  TIP3      16606           0.0000000000
     72069     16798  TIP3      H1             -0.0383277216      -30.4868361054      -39.8557244844  TIP3      16606           0.0000000000
     72070     16798  TIP3      H2              0.6023830111      -29.2454855727      -39.3728629473  TIP3      16606           0.0000000000
     72071     16799  TIP3      OH2             0.5097025455      -24.3407309770      -26.3186200103  TIP3      16607           0.0000000000
     72072     16799  TIP3      H1             -0.3695210863      -24.1396784285      -26.7094448496  TIP3      16607           0.0000000000
     72073     16799  TIP3      H2              1.0711330992      -24.4233576285      -27.1096926684  TIP3      16607           0.0000000000
     72074     16800  TIP3      OH2            -1.2221025082      -21.3765578458      -38.7290476712  TIP3      16608           0.0000000000
     72075     16800  TIP3      H1             -1.5524953351      -22.2130149395      -38.3766334055  TIP3      16608           0.0000000000
     72076     16800  TIP3      H2             -0.8821547010      -21.5944220445      -39.6133755604  TIP3      16608           0.0000000000
     72077     16801  TIP3      OH2            -3.9795401770      -26.5618453036      -31.6153424144  TIP3      16609           0.0000000000
     72078     16801  TIP3      H1             -4.9221229517      -26.7753887715      -31.7245771428  TIP3      16609           0.0000000000
     72079     16801  TIP3      H2             -3.5505115636      -27.3208329483      -32.0519827846  TIP3      16609           0.0000000000
     72080     16802  TIP3      OH2           -11.4562279014      -22.2249693549      -35.5129987526  TIP3      16610           0.0000000000
     72081     16802  TIP3      H1            -10.9592868999      -21.4186431098      -35.7202135429  TIP3      16610           0.0000000000
     72082     16802  TIP3      H2            -12.3362296719      -21.9967314161      -35.8437767099  TIP3      16610           0.0000000000
     72083     16803  TIP3      OH2           -15.6814435352      -27.3898841408      -40.9448750590  TIP3      16611           0.0000000000
     72084     16803  TIP3      H1            -15.1122233361      -26.7213242776      -40.5287875166  TIP3      16611           0.0000000000
     72085     16803  TIP3      H2            -16.5768756910      -27.0789683855      -40.7021910100  TIP3      16611           0.0000000000
     72086     16804  TIP3      OH2           -10.0506158100      -24.5593670138      -36.0056312070  TIP3      16612           0.0000000000
     72087     16804  TIP3      H1            -10.3614605397      -23.6412735872      -35.9027572568  TIP3      16612           0.0000000000
     72088     16804  TIP3      H2            -10.7606878386      -25.0563653270      -35.5530496533  TIP3      16612           0.0000000000
     72089     16805  TIP3      OH2            -9.5901697737      -20.3835443191      -29.5970205113  TIP3      16613           0.0000000000
     72090     16805  TIP3      H1             -9.1348912384      -19.5716833013      -29.8637992391  TIP3      16613           0.0000000000
     72091     16805  TIP3      H2             -8.9834877193      -20.7262886245      -28.9131892499  TIP3      16613           0.0000000000
     72092     16806  TIP3      OH2           -11.3685413365      -19.5731773174      -36.4725402676  TIP3      16614           0.0000000000
     72093     16806  TIP3      H1            -12.3316519836      -19.4302065773      -36.3357119523  TIP3      16614           0.0000000000
     72094     16806  TIP3      H2            -11.0022816418      -18.7374432428      -36.1263816206  TIP3      16614           0.0000000000
     72095     16807  TIP3      OH2            -6.0749581349      -24.3848031144      -29.9691690280  TIP3      16615           0.0000000000
     72096     16807  TIP3      H1             -6.3966556846      -24.5750304807      -29.0631395211  TIP3      16615           0.0000000000
     72097     16807  TIP3      H2             -5.4317766776      -25.0923644953      -30.1356668931  TIP3      16615           0.0000000000
     72098     16808  TIP3      OH2            -3.7358568827      -23.3036474217      -40.8794580216  TIP3      16616           0.0000000000
     72099     16808  TIP3      H1             -3.4397355901      -23.7777937110      -40.0755598717  TIP3      16616           0.0000000000
     72100     16808  TIP3      H2             -4.6912949985      -23.4935338019      -40.8057860260  TIP3      16616           0.0000000000
     72101     16809  TIP3      OH2            -3.2725478889      -19.8374815679      -27.4896915507  TIP3      16617           0.0000000000
     72102     16809  TIP3      H1             -3.9710244882      -20.2834726009      -27.9901135600  TIP3      16617           0.0000000000
     72103     16809  TIP3      H2             -3.0785763175      -19.0764266531      -28.0821815123  TIP3      16617           0.0000000000
     72104     16810  TIP3      OH2             0.7310984963      -18.9531611761      -40.6228967147  TIP3      16618           0.0000000000
     72105     16810  TIP3      H1              1.4190217714      -18.2884121453      -40.8285210410  TIP3      16618           0.0000000000
     72106     16810  TIP3      H2              0.0163687571      -18.3417126346      -40.3373825637  TIP3      16618           0.0000000000
     72107     16811  TIP3      OH2           -15.2043255825      -32.5663459236      -28.0689328147  TIP3      16619           0.0000000000
     72108     16811  TIP3      H1            -16.1082476957      -32.2120817379      -28.1063318736  TIP3      16619           0.0000000000
     72109     16811  TIP3      H2            -15.3290725364      -33.4354216852      -27.6510432081  TIP3      16619           0.0000000000
     72110     16812  TIP3      OH2            -2.9588957510      -24.6712139215      -38.6356397714  TIP3      16620           0.0000000000
     72111     16812  TIP3      H1             -3.1944499159      -25.4583160782      -38.0989802801  TIP3      16620           0.0000000000
     72112     16812  TIP3      H2             -2.0040893515      -24.6279339426      -38.4581891349  TIP3      16620           0.0000000000
     72113     16813  TIP3      OH2           -15.5754356519      -20.7574963436      -29.6507190334  TIP3      16621           0.0000000000
     72114     16813  TIP3      H1            -15.2776102261      -21.6822239698      -29.6513329826  TIP3      16621           0.0000000000
     72115     16813  TIP3      H2            -15.3061286009      -20.4701611155      -28.7708047914  TIP3      16621           0.0000000000
     72116     16814  TIP3      OH2            -9.5817588417      -22.2339882027      -42.3646345355  TIP3      16622           0.0000000000
     72117     16814  TIP3      H1             -9.5137775044      -22.9905484492      -42.9769727165  TIP3      16622           0.0000000000
     72118     16814  TIP3      H2            -10.0563970865      -22.6757352530      -41.6280809786  TIP3      16622           0.0000000000
     72119     16815  TIP3      OH2           -10.8352992792      -22.7067845127      -39.9368809331  TIP3      16623           0.0000000000
     72120     16815  TIP3      H1            -10.5621630504      -23.2216643927      -39.1653077387  TIP3      16623           0.0000000000
     72121     16815  TIP3      H2            -10.7395971355      -21.7821584659      -39.6093604556  TIP3      16623           0.0000000000
     72122     16816  TIP3      OH2           -14.2879171631      -25.4614128495      -39.4444365194  TIP3      16624           0.0000000000
     72123     16816  TIP3      H1            -15.0034572210      -25.0658491417      -38.9069550352  TIP3      16624           0.0000000000
     72124     16816  TIP3      H2            -13.7836693525      -24.6803549844      -39.7355121953  TIP3      16624           0.0000000000
     72125     16817  TIP3      OH2            -6.4502901398      -32.7786737721      -29.1519770734  TIP3      16625           0.0000000000
     72126     16817  TIP3      H1             -5.7299713582      -32.7185492327      -28.5107935843  TIP3      16625           0.0000000000
     72127     16817  TIP3      H2             -6.8210709460      -33.6616357191      -28.9585031138  TIP3      16625           0.0000000000
     72128     16818  TIP3      OH2            -5.6821290090      -33.2093716314      -38.0153196792  TIP3      16626           0.0000000000
     72129     16818  TIP3      H1             -5.4929362584      -32.7489420465      -38.8615690296  TIP3      16626           0.0000000000
     72130     16818  TIP3      H2             -5.1460819234      -32.7024562006      -37.3916828498  TIP3      16626           0.0000000000
     72131     16819  TIP3      OH2            -8.0264827895      -21.0441753591      -39.2341185065  TIP3      16627           0.0000000000
     72132     16819  TIP3      H1             -8.8443239239      -20.5119408300      -39.1631349705  TIP3      16627           0.0000000000
     72133     16819  TIP3      H2             -7.4880286425      -20.4942208801      -39.8215939479  TIP3      16627           0.0000000000
     72134     16820  TIP3      OH2            -8.4703826054      -31.4835654167      -37.2105898968  TIP3      16628           0.0000000000
     72135     16820  TIP3      H1             -7.7093553220      -30.8714810780      -37.1787935999  TIP3      16628           0.0000000000
     72136     16820  TIP3      H2             -8.7352086847      -31.5651519400      -36.2734011000  TIP3      16628           0.0000000000
     72137     16821  TIP3      OH2            -7.9237309981      -30.4233420281      -28.0441115321  TIP3      16629           0.0000000000
     72138     16821  TIP3      H1             -7.8536380819      -29.8724861017      -27.2400972573  TIP3      16629           0.0000000000
     72139     16821  TIP3      H2             -7.2692169663      -31.1253671123      -27.9362443654  TIP3      16629           0.0000000000
     72140     16822  TIP3      OH2            -7.6125942451      -34.3875527351      -36.2915876950  TIP3      16630           0.0000000000
     72141     16822  TIP3      H1             -7.9613756145      -33.7164727609      -35.6803132681  TIP3      16630           0.0000000000
     72142     16822  TIP3      H2             -6.9560195281      -33.8383014057      -36.7796147412  TIP3      16630           0.0000000000
     72143     16823  TIP3      OH2           -10.6251981185      -20.0095221302      -39.2039106650  TIP3      16631           0.0000000000
     72144     16823  TIP3      H1            -10.5330902986      -19.1950680939      -39.7552337205  TIP3      16631           0.0000000000
     72145     16823  TIP3      H2            -10.8991637676      -19.6450681683      -38.3339885906  TIP3      16631           0.0000000000
     72146     16824  TIP3      OH2           -11.9957566419      -33.2985973128      -39.6402116631  TIP3      16632           0.0000000000
     72147     16824  TIP3      H1            -12.0495661435      -32.4035122633      -39.2511026518  TIP3      16632           0.0000000000
     72148     16824  TIP3      H2            -11.0718637756      -33.4985804461      -39.3900048303  TIP3      16632           0.0000000000
     72149     16825  TIP3      OH2            -1.7617324304      -32.5667274004      -27.1798719438  TIP3      16633           0.0000000000
     72150     16825  TIP3      H1             -2.6847272672      -32.2320823945      -27.2921988912  TIP3      16633           0.0000000000
     72151     16825  TIP3      H2             -1.4597399064      -32.5712443770      -28.1042982124  TIP3      16633           0.0000000000
     72152     16826  TIP3      OH2            -3.1396521172      -28.7672738724      -33.1829618682  TIP3      16634           0.0000000000
     72153     16826  TIP3      H1             -3.9676955984      -29.2110065097      -33.4521949167  TIP3      16634           0.0000000000
     72154     16826  TIP3      H2             -2.6596384449      -29.4523958781      -32.6618967967  TIP3      16634           0.0000000000
     72155     16827  TIP3      OH2           -13.7436582211      -22.8445968129      -40.5889935313  TIP3      16635           0.0000000000
     72156     16827  TIP3      H1            -13.0836848840      -22.2182164681      -40.2553253566  TIP3      16635           0.0000000000
     72157     16827  TIP3      H2            -13.2160501435      -23.3093152994      -41.2768958992  TIP3      16635           0.0000000000
     72158     16828  TIP3      OH2           -15.4127146613      -30.1640102565      -41.4312998797  TIP3      16636           0.0000000000
     72159     16828  TIP3      H1            -15.3905136517      -29.2052997672      -41.2326457810  TIP3      16636           0.0000000000
     72160     16828  TIP3      H2            -16.2997997941      -30.3406739585      -41.7493951495  TIP3      16636           0.0000000000
     72161     16829  TIP3      OH2            -2.0744147055      -19.5381605308      -31.5520972458  TIP3      16637           0.0000000000
     72162     16829  TIP3      H1             -2.1713079124      -18.8081517157      -32.1906738101  TIP3      16637           0.0000000000
     72163     16829  TIP3      H2             -1.1221669283      -19.4495933625      -31.3241015459  TIP3      16637           0.0000000000
     72164     16830  TIP3      OH2           -14.8251922427      -35.2255203071      -32.6435214040  TIP3      16638           0.0000000000
     72165     16830  TIP3      H1            -14.7656832688      -35.3266856264      -33.6220086051  TIP3      16638           0.0000000000
     72166     16830  TIP3      H2            -14.9707124944      -36.1490837392      -32.4172619557  TIP3      16638           0.0000000000
     72167     16831  TIP3      OH2           -15.6295458928      -21.4667899705      -36.5498086351  TIP3      16639           0.0000000000
     72168     16831  TIP3      H1            -16.4822897153      -21.0181420822      -36.5967307750  TIP3      16639           0.0000000000
     72169     16831  TIP3      H2            -15.1537214512      -21.0018699944      -37.2511284142  TIP3      16639           0.0000000000
     72170     16832  TIP3      OH2           -16.4070517427      -18.8076258491      -25.2757317901  TIP3      16640           0.0000000000
     72171     16832  TIP3      H1            -15.8181835495      -19.0669239966      -24.5600204353  TIP3      16640           0.0000000000
     72172     16832  TIP3      H2            -16.8554798574      -19.6531784868      -25.4790461898  TIP3      16640           0.0000000000
     72173     16833  TIP3      OH2            -7.6063413651      -20.3779815729      -42.2483854715  TIP3      16641           0.0000000000
     72174     16833  TIP3      H1             -8.3009979125      -21.0412783886      -42.0322312043  TIP3      16641           0.0000000000
     72175     16833  TIP3      H2             -6.8926537335      -20.9801936430      -42.5072171049  TIP3      16641           0.0000000000
     72176     16834  TIP3      OH2            -5.1709952143      -21.5506908855      -24.9558075949  TIP3      16642           0.0000000000
     72177     16834  TIP3      H1             -5.5913495103      -22.3662720546      -24.6046159411  TIP3      16642           0.0000000000
     72178     16834  TIP3      H2             -4.4593020606      -21.4169933271      -24.3175810652  TIP3      16642           0.0000000000
     72179     16835  TIP3      OH2            -3.0494289782      -20.6396878402      -42.0712612616  TIP3      16643           0.0000000000
     72180     16835  TIP3      H1             -2.7550590928      -21.4158341359      -41.5687333984  TIP3      16643           0.0000000000
     72181     16835  TIP3      H2             -2.2882716023      -20.4157452437      -42.6247501947  TIP3      16643           0.0000000000
     72182     16836  TIP3      OH2           -12.1318496662      -24.6705192570      -42.1941093631  TIP3      16644           0.0000000000
     72183     16836  TIP3      H1            -12.0198829053      -25.4856504185      -41.6928729709  TIP3      16644           0.0000000000
     72184     16836  TIP3      H2            -11.4758749314      -24.8215158526      -42.9096006510  TIP3      16644           0.0000000000
     72185     16837  TIP3      OH2            -9.7526848478      -25.0531746553      -24.8992470348  TIP3      16645           0.0000000000
     72186     16837  TIP3      H1            -10.1418868157      -24.7361002706      -25.7387934735  TIP3      16645           0.0000000000
     72187     16837  TIP3      H2             -9.7202156478      -26.0315085590      -24.9956604665  TIP3      16645           0.0000000000
     72188     16838  TIP3      OH2            -6.7418039548      -23.5904340337      -42.4812071860  TIP3      16646           0.0000000000
     72189     16838  TIP3      H1             -7.0041809071      -23.5092988928      -41.5509237346  TIP3      16646           0.0000000000
     72190     16838  TIP3      H2             -6.9425387338      -24.5464983751      -42.6303648932  TIP3      16646           0.0000000000
     72191     16839  TIP3      OH2            -4.1026357846      -25.1780396637      -27.4735659469  TIP3      16647           0.0000000000
     72192     16839  TIP3      H1             -3.3049630486      -24.6105427796      -27.5674854900  TIP3      16647           0.0000000000
     72193     16839  TIP3      H2             -4.7992293042      -24.5080880011      -27.4732008420  TIP3      16647           0.0000000000
     72194     16840  TIP3      OH2           -15.6221110412      -27.8201489432      -24.9383030305  TIP3      16648           0.0000000000
     72195     16840  TIP3      H1            -15.1815748491      -28.6691984720      -24.9841030883  TIP3      16648           0.0000000000
     72196     16840  TIP3      H2            -15.8636672113      -27.7501229350      -24.0075417665  TIP3      16648           0.0000000000
     72197     16841  TIP3      OH2           -10.9545686066      -26.6815094863      -39.8144966427  TIP3      16649           0.0000000000
     72198     16841  TIP3      H1            -11.4645419399      -27.2249852940      -39.1949623321  TIP3      16649           0.0000000000
     72199     16841  TIP3      H2            -10.6718802971      -27.3405384357      -40.4908681043  TIP3      16649           0.0000000000
     72200     16842  TIP3      OH2           -11.6920727909      -28.8901444517      -27.5264037013  TIP3      16650           0.0000000000
     72201     16842  TIP3      H1            -12.2859095417      -28.1678287932      -27.2585388252  TIP3      16650           0.0000000000
     72202     16842  TIP3      H2            -11.2993360853      -28.5147816807      -28.3341526841  TIP3      16650           0.0000000000
     72203     16843  TIP3      OH2            -9.8833002480      -28.4878004447      -41.6213677525  TIP3      16651           0.0000000000
     72204     16843  TIP3      H1            -10.0591612316      -28.5200672676      -42.5868670352  TIP3      16651           0.0000000000
     72205     16843  TIP3      H2             -8.9110975833      -28.3931373025      -41.5766323503  TIP3      16651           0.0000000000
     72206     16844  TIP3      OH2            -6.6401473346      -26.2799671367      -24.1584086467  TIP3      16652           0.0000000000
     72207     16844  TIP3      H1             -5.6980261413      -26.3123290511      -24.3709357367  TIP3      16652           0.0000000000
     72208     16844  TIP3      H2             -6.8054526044      -27.0805695821      -23.6419037553  TIP3      16652           0.0000000000
     72209     16845  TIP3      OH2            -0.5616424679      -26.1322833574      -42.2133029348  TIP3      16653           0.0000000000
     72210     16845  TIP3      H1             -0.7467857907      -26.5179709690      -43.0849659621  TIP3      16653           0.0000000000
     72211     16845  TIP3      H2             -0.4674752402      -25.1731540458      -42.4025571811  TIP3      16653           0.0000000000
     72212     16846  TIP3      OH2           -11.2795267033      -31.4983628162      -26.4842949255  TIP3      16654           0.0000000000
     72213     16846  TIP3      H1            -11.1693420442      -32.2029485975      -27.1477390682  TIP3      16654           0.0000000000
     72214     16846  TIP3      H2            -11.3398909305      -30.6861420346      -27.0315933268  TIP3      16654           0.0000000000
     72215     16847  TIP3      OH2           -10.8874869591      -33.0889136778      -28.9431116795  TIP3      16655           0.0000000000
     72216     16847  TIP3      H1            -10.3743267758      -32.6212528801      -29.6441232959  TIP3      16655           0.0000000000
     72217     16847  TIP3      H2            -11.7824860612      -33.1948573336      -29.3460975409  TIP3      16655           0.0000000000
     72218     16848  TIP3      OH2            -9.3493628281      -27.6228499530      -28.6764493532  TIP3      16656           0.0000000000
     72219     16848  TIP3      H1             -8.5962555887      -27.7910779014      -29.2531768645  TIP3      16656           0.0000000000
     72220     16848  TIP3      H2             -9.7123960785      -26.7904337862      -29.0200983540  TIP3      16656           0.0000000000
     72221     16849  TIP3      OH2            -3.6350203756      -27.0660908195      -25.5722001717  TIP3      16657           0.0000000000
     72222     16849  TIP3      H1             -3.8397142529      -26.3422058500      -26.1950001651  TIP3      16657           0.0000000000
     72223     16849  TIP3      H2             -2.6713791219      -27.1149260960      -25.7273153951  TIP3      16657           0.0000000000
     72224     16850  TIP3      OH2           -12.8150905789      -30.2561358962      -24.5271825294  TIP3      16658           0.0000000000
     72225     16850  TIP3      H1            -13.5988573827      -30.7975706629      -24.7417820121  TIP3      16658           0.0000000000
     72226     16850  TIP3      H2            -12.1734100212      -30.6130755987      -25.1681760496  TIP3      16658           0.0000000000
     72227     16851  TIP3      OH2           -10.2444872249      -35.4856153511      -28.2618630416  TIP3      16659           0.0000000000
     72228     16851  TIP3      H1            -10.2955334661      -34.5462030892      -28.5668614614  TIP3      16659           0.0000000000
     72229     16851  TIP3      H2            -10.8243120492      -35.8991252999      -28.9150493203  TIP3      16659           0.0000000000
     72230     16852  TIP3      OH2            -8.8477591038      -31.3337391679      -24.9498563340  TIP3      16660           0.0000000000
     72231     16852  TIP3      H1             -9.0759809641      -31.5981633883      -24.0484509359  TIP3      16660           0.0000000000
     72232     16852  TIP3      H2             -9.6539876091      -31.5459855304      -25.4622254903  TIP3      16660           0.0000000000
     72233     16853  TIP3      OH2            -6.1114209261      -32.1865240998      -25.8226547712  TIP3      16661           0.0000000000
     72234     16853  TIP3      H1             -7.0737734839      -32.1739814266      -25.6925156006  TIP3      16661           0.0000000000
     72235     16853  TIP3      H2             -5.7875162053      -32.8154232220      -25.1438915547  TIP3      16661           0.0000000000
     72236     16854  TIP3      OH2            -4.5499537871      -33.4775928380      -23.8962075965  TIP3      16662           0.0000000000
     72237     16854  TIP3      H1             -4.6057789677      -34.4682654169      -23.9196997273  TIP3      16662           0.0000000000
     72238     16854  TIP3      H2             -4.7730552406      -33.2648610395      -22.9975045271  TIP3      16662           0.0000000000
     72239     16855  TIP3      OH2           -14.7612280004      -32.3118116842      -24.7943154227  TIP3      16663           0.0000000000
     72240     16855  TIP3      H1            -14.4955977288      -33.0267616149      -25.4086947572  TIP3      16663           0.0000000000
     72241     16855  TIP3      H2            -14.8161043434      -32.7929756044      -23.9620661422  TIP3      16663           0.0000000000
     72242     16856  TIP3      OH2            -9.8675701270       36.7342943661      -25.7879722661  TIP3      16664           0.0000000000
     72243     16856  TIP3      H1             -9.2000990288       36.0491260935      -25.7712156106  TIP3      16664           0.0000000000
     72244     16856  TIP3      H2            -10.0123552604       36.9279041314      -26.7330825982  TIP3      16664           0.0000000000
     72245     16857  TIP3      OH2            -9.5380025258      -34.5525956398      -23.7459623172  TIP3      16665           0.0000000000
     72246     16857  TIP3      H1             -9.6327678255      -35.1717193789      -24.5140045560  TIP3      16665           0.0000000000
     72247     16857  TIP3      H2            -10.1664897930      -33.8797461304      -23.9618771832  TIP3      16665           0.0000000000
     72248     16858  TIP3      OH2           -10.0549860561      -17.7554708458      -40.5474657125  TIP3      16666           0.0000000000
     72249     16858  TIP3      H1             -9.0879341344      -17.6716225382      -40.4800723067  TIP3      16666           0.0000000000
     72250     16858  TIP3      H2            -10.2015157710      -17.1543128824      -41.2873672411  TIP3      16666           0.0000000000
     72251     16859  TIP3      OH2           -16.4986697319      -23.1787175717      -41.0775868337  TIP3      16667           0.0000000000
     72252     16859  TIP3      H1            -15.5319284007      -23.0885493380      -40.8966829068  TIP3      16667           0.0000000000
     72253     16859  TIP3      H2            -16.4583459437      -23.8288376656      -41.8202589446  TIP3      16667           0.0000000000
     72254     16860  TIP3      OH2           -17.7185552017      -17.8019054702      -36.1119541077  TIP3      16668           0.0000000000
     72255     16860  TIP3      H1            -18.4393415494      -18.2853638198      -36.5722051905  TIP3      16668           0.0000000000
     72256     16860  TIP3      H2            -17.4387724190      -18.4557399162      -35.4455389308  TIP3      16668           0.0000000000
     72257     16861  TIP3      OH2           -16.8967192806      -19.6617074604      -34.2380838335  TIP3      16669           0.0000000000
     72258     16861  TIP3      H1            -17.2477904440      -20.5416562284      -34.0421049786  TIP3      16669           0.0000000000
     72259     16861  TIP3      H2            -16.6709309353      -19.3321909344      -33.3519911269  TIP3      16669           0.0000000000
     72260     16862  TIP3      OH2             0.6409593211      -18.8642780553      -31.3137287633  TIP3      16670           0.0000000000
     72261     16862  TIP3      H1              0.6710759406      -18.7144761885      -30.3527771147  TIP3      16670           0.0000000000
     72262     16862  TIP3      H2              1.3474569730      -18.2818790484      -31.6100423968  TIP3      16670           0.0000000000
     72263     16863  TIP3      OH2             0.3056898505      -19.2956305622      -28.3917671349  TIP3      16671           0.0000000000
     72264     16863  TIP3      H1             -0.2741339117      -20.0137220142      -28.7334255616  TIP3      16671           0.0000000000
     72265     16863  TIP3      H2              0.7174622452      -19.7595223681      -27.6432325953  TIP3      16671           0.0000000000
     72266     16864  TIP3      OH2            -0.0248158836      -25.2186212982      -38.2616850019  TIP3      16672           0.0000000000
     72267     16864  TIP3      H1              0.8425009195      -24.8278530858      -38.0747092389  TIP3      16672           0.0000000000
     72268     16864  TIP3      H2             -0.0406572675      -25.9377309217      -37.5924944063  TIP3      16672           0.0000000000
     72269     16865  TIP3      OH2             0.3357764470      -27.1424710884      -36.3702895312  TIP3      16673           0.0000000000
     72270     16865  TIP3      H1             -0.4158721434      -27.6422071493      -35.9791865862  TIP3      16673           0.0000000000
     72271     16865  TIP3      H2              0.9338605984      -27.0119334370      -35.6077503075  TIP3      16673           0.0000000000
     72272     16866  TIP3      OH2             0.0892422388      -24.4580101538      -31.4022348172  TIP3      16674           0.0000000000
     72273     16866  TIP3      H1              0.9101163841      -24.8282499346      -31.7698739035  TIP3      16674           0.0000000000
     72274     16866  TIP3      H2              0.2363452452      -23.5017571909      -31.5520020435  TIP3      16674           0.0000000000
     72275     16867  TIP3      OH2            -1.3674408146      -21.5427052898      -29.1225706846  TIP3      16675           0.0000000000
     72276     16867  TIP3      H1             -2.0349459088      -21.1732636776      -28.5187747150  TIP3      16675           0.0000000000
     72277     16867  TIP3      H2             -1.9170051084      -21.9403735615      -29.8288178190  TIP3      16675           0.0000000000
     72278     16868  TIP3      OH2             0.6362585367      -27.3198267999      -39.9814889603  TIP3      16676           0.0000000000
     72279     16868  TIP3      H1              0.0696207630      -26.9790513235      -40.7053387208  TIP3      16676           0.0000000000
     72280     16868  TIP3      H2              0.5363542001      -26.6065270119      -39.3235970385  TIP3      16676           0.0000000000
     72281     16869  TIP3      OH2            -0.9771297161      -30.0853938576      -41.4745259861  TIP3      16677           0.0000000000
     72282     16869  TIP3      H1             -0.9197731230      -29.4180154584      -42.1653340869  TIP3      16677           0.0000000000
     72283     16869  TIP3      H2             -1.1746504866      -30.9092452147      -41.9632682038  TIP3      16677           0.0000000000
     72284     16870  TIP3      OH2            -1.8435130754      -28.6703976752      -35.7994429279  TIP3      16678           0.0000000000
     72285     16870  TIP3      H1             -1.9913912286      -29.6250345481      -35.8434269013  TIP3      16678           0.0000000000
     72286     16870  TIP3      H2             -2.1710051580      -28.4581231575      -34.9050552128  TIP3      16678           0.0000000000
     72287     16871  TIP3      OH2           -16.8371290123      -26.5826674131      -31.7400158679  TIP3      16679           0.0000000000
     72288     16871  TIP3      H1            -16.6613770727      -26.6649673772      -32.7042919388  TIP3      16679           0.0000000000
     72289     16871  TIP3      H2            -15.9438720107      -26.7624419132      -31.3895574746  TIP3      16679           0.0000000000
     72290     16872  TIP3      OH2            -1.0091734506      -26.6943346408      -26.1964950174  TIP3      16680           0.0000000000
     72291     16872  TIP3      H1             -0.4038845877      -27.4294798522      -25.9651682482  TIP3      16680           0.0000000000
     72292     16872  TIP3      H2             -0.3912861276      -25.9454073119      -26.0918327382  TIP3      16680           0.0000000000
     72293     16873  TIP3      OH2             0.5214540511      -28.8232958201      -25.5541222900  TIP3      16681           0.0000000000
     72294     16873  TIP3      H1             -0.3875691309      -29.2106088380      -25.5910075782  TIP3      16681           0.0000000000
     72295     16873  TIP3      H2              1.0693075603      -29.6249512486      -25.5356181721  TIP3      16681           0.0000000000
     72296     16874  TIP3      OH2            -1.7379132230      -32.6096278071      -42.3169400296  TIP3      16682           0.0000000000
     72297     16874  TIP3      H1             -1.1515948180      -33.0537405627      -41.6754638304  TIP3      16682           0.0000000000
     72298     16874  TIP3      H2             -2.6007266666      -33.0457785217      -42.1768625206  TIP3      16682           0.0000000000
     72299     16875  TIP3      OH2            -2.1997026294      -31.0746899116      -37.3886867099  TIP3      16683           0.0000000000
     72300     16875  TIP3      H1             -1.8825373661      -31.9910767165      -37.2313778816  TIP3      16683           0.0000000000
     72301     16875  TIP3      H2             -1.3765620911      -30.6718392487      -37.6949042826  TIP3      16683           0.0000000000
     72302     16876  TIP3      OH2            -1.5390809615      -30.5212023036      -31.9090326625  TIP3      16684           0.0000000000
     72303     16876  TIP3      H1             -0.5745289898      -30.3076689686      -31.9188152461  TIP3      16684           0.0000000000
     72304     16876  TIP3      H2             -1.7234072602      -30.4057213001      -30.9626682165  TIP3      16684           0.0000000000
     72305     16877  TIP3      OH2            -1.4852063703      -29.7929795334      -29.1575707935  TIP3      16685           0.0000000000
     72306     16877  TIP3      H1             -2.3409759213      -29.5112292691      -28.7702426525  TIP3      16685           0.0000000000
     72307     16877  TIP3      H2             -1.0340179705      -28.9352852648      -29.3410171248  TIP3      16685           0.0000000000
     72308     16878  TIP3      OH2           -17.2384969448      -31.2703263824      -25.5700902270  TIP3      16686           0.0000000000
     72309     16878  TIP3      H1            -16.2943046629      -31.4825012262      -25.4207215027  TIP3      16686           0.0000000000
     72310     16878  TIP3      H2            -17.6728941849      -32.1114333838      -25.3168881244  TIP3      16686           0.0000000000
     72311     16879  TIP3      OH2             0.7547432809      -35.8555435198      -23.8321088965  TIP3      16687           0.0000000000
     72312     16879  TIP3      H1              1.1666582143      -36.4393181702      -24.4562249147  TIP3      16687           0.0000000000
     72313     16879  TIP3      H2              0.8958310667      -34.9393041790      -24.1559357449  TIP3      16687           0.0000000000
     72314     16880  TIP3      OH2            -1.5103251795      -33.7693205375      -37.2933122077  TIP3      16688           0.0000000000
     72315     16880  TIP3      H1             -1.3083347005      -34.2427329639      -36.4561574083  TIP3      16688           0.0000000000
     72316     16880  TIP3      H2             -2.0893746682      -34.4177723898      -37.7622710211  TIP3      16688           0.0000000000
     72317     16881  TIP3      OH2           -16.0523198228      -32.9410846882      -32.7816801192  TIP3      16689           0.0000000000
     72318     16881  TIP3      H1            -15.6183709162      -33.7850093111      -32.5057130424  TIP3      16689           0.0000000000
     72319     16881  TIP3      H2            -15.4777700002      -32.2927842490      -32.3575491386  TIP3      16689           0.0000000000
     72320     16882  TIP3      OH2           -17.7375593663      -29.9941773686      -31.7040596452  TIP3      16690           0.0000000000
     72321     16882  TIP3      H1            -17.1724218500      -30.2427766452      -32.4629675182  TIP3      16690           0.0000000000
     72322     16882  TIP3      H2            -17.2715739194      -29.1891996468      -31.4348337543  TIP3      16690           0.0000000000
     72323     16883  TIP3      OH2             0.3295883166      -33.6809821604      -25.4498800520  TIP3      16691           0.0000000000
     72324     16883  TIP3      H1             -0.5971371487      -33.3894296624      -25.5018977760  TIP3      16691           0.0000000000
     72325     16883  TIP3      H2              0.3729507068      -34.2280337011      -26.2462435881  TIP3      16691           0.0000000000
     72326     16884  TIP3      OH2             0.3382360322      -33.7585096683      -40.7357576176  TIP3      16692           0.0000000000
     72327     16884  TIP3      H1              0.7155473589      -34.4856875001      -41.2842658244  TIP3      16692           0.0000000000
     72328     16884  TIP3      H2              1.0499135658      -33.1099937108      -40.7084342697  TIP3      16692           0.0000000000
     72329     16885  TIP3      OH2           -17.3638211661      -33.7589586325      -37.5993942280  TIP3      16693           0.0000000000
     72330     16885  TIP3      H1            -18.3048216804      -33.5753907175      -37.7793037458  TIP3      16693           0.0000000000
     72331     16885  TIP3      H2            -16.9482065220      -33.2766640888      -38.3397823685  TIP3      16693           0.0000000000
     72332     16886  TIP3      OH2            -2.6349360947      -18.7799710461      -35.6777381297  TIP3      16694           0.0000000000
     72333     16886  TIP3      H1             -1.9520645050      -19.0845135977      -36.3004656178  TIP3      16694           0.0000000000
     72334     16886  TIP3      H2             -2.1190568178      -18.2845378720      -35.0254566643  TIP3      16694           0.0000000000
     72335     16887  TIP3      OH2           -17.4154026417      -34.9989863564      -29.3172469344  TIP3      16695           0.0000000000
     72336     16887  TIP3      H1            -18.0943364882      -35.2411452768      -28.6677514124  TIP3      16695           0.0000000000
     72337     16887  TIP3      H2            -17.8992535041      -34.4046910695      -29.9162968716  TIP3      16695           0.0000000000
     72338     16888  TIP3      OH2           -15.1948680548      -21.8185137086      -25.1710814679  TIP3      16696           0.0000000000
     72339     16888  TIP3      H1            -16.0601270563      -21.7072308481      -25.5958046430  TIP3      16696           0.0000000000
     72340     16888  TIP3      H2            -15.4327077926      -22.0117176027      -24.2502878838  TIP3      16696           0.0000000000
     72341     16889  TIP3      OH2           -12.2942470080      -20.8846238427      -28.9159840670  TIP3      16697           0.0000000000
     72342     16889  TIP3      H1            -12.6197855963      -20.0116628062      -29.1764723820  TIP3      16697           0.0000000000
     72343     16889  TIP3      H2            -11.3563303848      -20.7804987064      -29.1858197375  TIP3      16697           0.0000000000
     72344     16890  TIP3      OH2            -8.0045296021      -19.4881360820      -25.9260899280  TIP3      16698           0.0000000000
     72345     16890  TIP3      H1             -7.7785609157      -19.8396761520      -25.0540527077  TIP3      16698           0.0000000000
     72346     16890  TIP3      H2             -7.1091024255      -19.1726057846      -26.2162863835  TIP3      16698           0.0000000000
     72347     16891  TIP3      OH2            -5.7421760428      -18.4244338099      -26.4515366427  TIP3      16699           0.0000000000
     72348     16891  TIP3      H1             -4.9892974198      -18.7424661203      -26.9688631276  TIP3      16699           0.0000000000
     72349     16891  TIP3      H2             -5.2841562657      -17.6980721440      -26.0076799502  TIP3      16699           0.0000000000
     72350     16892  TIP3      OH2            -0.6457294977      -35.5432449640      -27.6779903536  TIP3      16700           0.0000000000
     72351     16892  TIP3      H1             -1.4974514149      -35.2452572807      -28.0382843298  TIP3      16700           0.0000000000
     72352     16892  TIP3      H2             -0.5004134970      -36.4071552454      -28.1192118867  TIP3      16700           0.0000000000
     72353     16893  TIP3      OH2           -14.8571770085      -17.6258720895      -28.9049090652  TIP3      16701           0.0000000000
     72354     16893  TIP3      H1            -15.5938606515      -17.1382928188      -29.3067278557  TIP3      16701           0.0000000000
     72355     16893  TIP3      H2            -15.1839818227      -17.8338605259      -28.0211670910  TIP3      16701           0.0000000000
     72356     16894  TIP3      OH2           -12.3929382792      -18.0591436181      -29.8385115522  TIP3      16702           0.0000000000
     72357     16894  TIP3      H1            -13.2803001660      -17.9120883854      -29.4346665466  TIP3      16702           0.0000000000
     72358     16894  TIP3      H2            -12.4520545704      -17.4637453304      -30.6066747985  TIP3      16702           0.0000000000
     72359     16895  TIP3      OH2            -7.7079157351      -18.1566252898      -30.6549599558  TIP3      16703           0.0000000000
     72360     16895  TIP3      H1             -8.1428601609      -17.5777299681      -31.2986221101  TIP3      16703           0.0000000000
     72361     16895  TIP3      H2             -7.5414629434      -17.5284933348      -29.9144015030  TIP3      16703           0.0000000000
     72362     16896  TIP3      OH2            -5.3954843506      -19.3472429465      -29.6438995632  TIP3      16704           0.0000000000
     72363     16896  TIP3      H1             -6.2507744407      -19.0425599206      -29.9829337424  TIP3      16704           0.0000000000
     72364     16896  TIP3      H2             -4.9075565468      -18.5011937971      -29.6863399759  TIP3      16704           0.0000000000
     72365     16897  TIP3      OH2            -2.6871666102      -17.8260001740      -29.4558413820  TIP3      16705           0.0000000000
     72366     16897  TIP3      H1             -2.8822207003      -16.8620761547      -29.5886604447  TIP3      16705           0.0000000000
     72367     16897  TIP3      H2             -2.5916595641      -18.1494962920      -30.3586759275  TIP3      16705           0.0000000000
     72368     16898  TIP3      OH2           -15.3986422944      -18.9900511927      -31.9554335991  TIP3      16706           0.0000000000
     72369     16898  TIP3      H1            -15.4818520350      -19.4529684783      -31.0956055064  TIP3      16706           0.0000000000
     72370     16898  TIP3      H2            -14.5848898967      -19.3685465574      -32.3452691355  TIP3      16706           0.0000000000
     72371     16899  TIP3      OH2           -13.3241949932      -20.2775987687      -33.3043002055  TIP3      16707           0.0000000000
     72372     16899  TIP3      H1            -13.4889530500      -21.2110727363      -33.0699130151  TIP3      16707           0.0000000000
     72373     16899  TIP3      H2            -12.4663075864      -20.1242061792      -32.8552606302  TIP3      16707           0.0000000000
     72374     16900  TIP3      OH2           -10.7184494909      -19.7922503719      -32.4271978304  TIP3      16708           0.0000000000
     72375     16900  TIP3      H1            -10.5657085775      -20.7166878722      -32.6882991236  TIP3      16708           0.0000000000
     72376     16900  TIP3      H2            -10.6752277409      -19.8491375825      -31.4603179933  TIP3      16708           0.0000000000
     72377     16901  TIP3      OH2            -7.3877370786      -34.0772969755      -33.3080633867  TIP3      16709           0.0000000000
     72378     16901  TIP3      H1             -7.9714310365      -34.7974062030      -33.0237003344  TIP3      16709           0.0000000000
     72379     16901  TIP3      H2             -6.7041171125      -34.5726440532      -33.7992179229  TIP3      16709           0.0000000000
     72380     16902  TIP3      OH2            -2.1262367216      -36.0672167326      -33.1923944805  TIP3      16710           0.0000000000
     72381     16902  TIP3      H1             -1.5060002882      -35.5143363616      -33.7149219544  TIP3      16710           0.0000000000
     72382     16902  TIP3      H2             -2.9915932578      -35.7247369274      -33.4342509973  TIP3      16710           0.0000000000
     72383     16903  TIP3      OH2            -0.4353531961      -34.8141536042      -34.9452191571  TIP3      16711           0.0000000000
     72384     16903  TIP3      H1              0.1951854480      -35.4095218196      -35.3625903836  TIP3      16711           0.0000000000
     72385     16903  TIP3      H2              0.0680193478      -33.9786730502      -34.8616472372  TIP3      16711           0.0000000000
     72386     16904  TIP3      OH2           -14.9309197220      -35.4829031207      -35.4170923894  TIP3      16712           0.0000000000
     72387     16904  TIP3      H1            -15.6983009091      -35.7210254941      -35.9566568215  TIP3      16712           0.0000000000
     72388     16904  TIP3      H2            -14.4494772402      -36.3299224866      -35.3863458218  TIP3      16712           0.0000000000
     72389     16905  TIP3      OH2           -16.1048610647      -35.7628246129      -39.7066996359  TIP3      16713           0.0000000000
     72390     16905  TIP3      H1            -15.6831200693      -35.1119135755      -40.2840550183  TIP3      16713           0.0000000000
     72391     16905  TIP3      H2            -16.7379419269      -35.2133711671      -39.2297580343  TIP3      16713           0.0000000000
     72392     16906  TIP3      OH2           -10.3632209754      -35.6590791897      -35.6650152999  TIP3      16714           0.0000000000
     72393     16906  TIP3      H1             -9.5107249079      -35.1966590333      -35.7030342891  TIP3      16714           0.0000000000
     72394     16906  TIP3      H2            -10.4630811271      -35.8144149792      -34.7196600928  TIP3      16714           0.0000000000
     72395     16907  TIP3      OH2            -4.9755660854      -35.2012888321      -33.8736651215  TIP3      16715           0.0000000000
     72396     16907  TIP3      H1             -4.8340606892      -35.2482726536      -34.8234899549  TIP3      16715           0.0000000000
     72397     16907  TIP3      H2             -5.0652323675      -36.1773523628      -33.7362993731  TIP3      16715           0.0000000000
     72398     16908  TIP3      OH2            -3.4364258504      -35.4992456890      -38.3121916540  TIP3      16716           0.0000000000
     72399     16908  TIP3      H1             -4.1918915253      -34.9356801110      -38.5352424316  TIP3      16716           0.0000000000
     72400     16908  TIP3      H2             -3.8419820540      -36.3626472655      -38.1622530534  TIP3      16716           0.0000000000
     72401     16909  TIP3      OH2           -16.2153247628      -19.8161324374      -38.6888406012  TIP3      16717           0.0000000000
     72402     16909  TIP3      H1            -16.8717943307      -19.8300540824      -39.4095807303  TIP3      16717           0.0000000000
     72403     16909  TIP3      H2            -16.2177926914      -18.8609472291      -38.5179989459  TIP3      16717           0.0000000000
     72404     16910  TIP3      OH2           -14.3320271058      -33.8893988633      -41.1861087715  TIP3      16718           0.0000000000
     72405     16910  TIP3      H1            -13.7583800326      -34.4376036770      -41.7513244216  TIP3      16718           0.0000000000
     72406     16910  TIP3      H2            -13.6761186989      -33.5067451570      -40.5715562991  TIP3      16718           0.0000000000
     72407     16911  TIP3      OH2            -9.3538626400      -33.5808263344      -38.7551391967  TIP3      16719           0.0000000000
     72408     16911  TIP3      H1             -8.9925619862      -34.1462580772      -38.0500741287  TIP3      16719           0.0000000000
     72409     16911  TIP3      H2             -9.1951101624      -32.7076592924      -38.3286714671  TIP3      16719           0.0000000000
     72410     16912  TIP3      OH2            -7.3403420530      -18.5017876493      -40.3560331766  TIP3      16720           0.0000000000
     72411     16912  TIP3      H1             -6.4228477727      -18.2774945075      -40.5784750846  TIP3      16720           0.0000000000
     72412     16912  TIP3      H2             -7.5606392310      -19.0234999670      -41.1564721053  TIP3      16720           0.0000000000
     72413     16913  TIP3      OH2            -0.6483844156      -19.0038127731      -37.6360473150  TIP3      16721           0.0000000000
     72414     16913  TIP3      H1             -0.8363656728      -19.7862110506      -38.2084747684  TIP3      16721           0.0000000000
     72415     16913  TIP3      H2             -0.7130938386      -18.2688418799      -38.2799338462  TIP3      16721           0.0000000000
     72416     16914  TIP3      OH2           -15.1228531493      -34.9955635748      -26.0767151540  TIP3      16722           0.0000000000
     72417     16914  TIP3      H1            -15.4391882175      -35.7492845622      -25.5731587708  TIP3      16722           0.0000000000
     72418     16914  TIP3      H2            -14.2136750406      -34.9867184933      -25.6926628614  TIP3      16722           0.0000000000
     72419     16915  TIP3      OH2           -13.3063935513      -35.3828703976      -24.4320264340  TIP3      16723           0.0000000000
     72420     16915  TIP3      H1            -12.3627624199      -35.5735707565      -24.6075290637  TIP3      16723           0.0000000000
     72421     16915  TIP3      H2            -13.4434103160      -36.2386523748      -23.9869417110  TIP3      16723           0.0000000000
     72422     16916  TIP3      OH2           -14.4211317471      -18.8272131764      -41.7483618783  TIP3      16724           0.0000000000
     72423     16916  TIP3      H1            -14.6804004964      -18.5702612761      -40.8520285616  TIP3      16724           0.0000000000
     72424     16916  TIP3      H2            -13.6383903499      -19.3923116907      -41.5948975407  TIP3      16724           0.0000000000
     72425     16917  TIP3      OH2            -4.6877057222       37.0521704150      -24.2944607884  TIP3      16725           0.0000000000
     72426     16917  TIP3      H1             -4.6415684099       36.4912075064      -23.4985410412  TIP3      16725           0.0000000000
     72427     16917  TIP3      H2             -3.7943339328       36.8454618771      -24.5924990663  TIP3      16725           0.0000000000
     72428     16918  TIP3      OH2            -1.3879853430      -20.2560807787      -25.5805166580  TIP3      16726           0.0000000000
     72429     16918  TIP3      H1             -2.2089366516      -20.3842878334      -26.0984174652  TIP3      16726           0.0000000000
     72430     16918  TIP3      H2             -1.5187481708      -19.3163704928      -25.3394449350  TIP3      16726           0.0000000000
     72431     16919  TIP3      OH2            13.0475508556      -26.3816800525      -35.5951901497  TIP3      16727           0.0000000000
     72432     16919  TIP3      H1             13.0277223247      -25.4006094317      -35.6108460314  TIP3      16727           0.0000000000
     72433     16919  TIP3      H2             12.3152729659      -26.6128507156      -36.1877440445  TIP3      16727           0.0000000000
     72434     16920  TIP3      OH2            11.8988814526      -27.1245305182      -32.0795472834  TIP3      16728           0.0000000000
     72435     16920  TIP3      H1             11.8846326917      -27.7722311076      -31.3611973385  TIP3      16728           0.0000000000
     72436     16920  TIP3      H2             11.5529538398      -27.6330326149      -32.8330294997  TIP3      16728           0.0000000000
     72437     16921  TIP3      OH2             4.2576673865      -27.4437019857      -30.5204616471  TIP3      16729           0.0000000000
     72438     16921  TIP3      H1              4.3419422930      -28.1286912694      -29.8237303476  TIP3      16729           0.0000000000
     72439     16921  TIP3      H2              5.0114060129      -26.8769824250      -30.3019513145  TIP3      16729           0.0000000000
     72440     16922  TIP3      OH2            15.5853577680      -24.1738196618      -33.7984475409  TIP3      16730           0.0000000000
     72441     16922  TIP3      H1             15.1732212760      -24.8912466289      -33.3067399135  TIP3      16730           0.0000000000
     72442     16922  TIP3      H2             15.6113776576      -23.4662541680      -33.1277076584  TIP3      16730           0.0000000000
     72443     16923  TIP3      OH2             5.1803382514      -22.9930773334      -32.0411199094  TIP3      16731           0.0000000000
     72444     16923  TIP3      H1              4.8688994024      -23.8668043145      -32.3487487195  TIP3      16731           0.0000000000
     72445     16923  TIP3      H2              6.1344409560      -23.1806349383      -31.9837858419  TIP3      16731           0.0000000000
     72446     16924  TIP3      OH2             1.8178512040      -29.4440182421      -36.5374193443  TIP3      16732           0.0000000000
     72447     16924  TIP3      H1              1.3796891540      -28.5771682170      -36.6024192836  TIP3      16732           0.0000000000
     72448     16924  TIP3      H2              1.2573968122      -29.9836768387      -37.1092935920  TIP3      16732           0.0000000000
     72449     16925  TIP3      OH2             2.5332845776      -27.2002430460      -34.3918242792  TIP3      16733           0.0000000000
     72450     16925  TIP3      H1              2.8012957491      -28.0278822368      -33.9444689091  TIP3      16733           0.0000000000
     72451     16925  TIP3      H2              3.2257472262      -27.1064567525      -35.0622693738  TIP3      16733           0.0000000000
     72452     16926  TIP3      OH2            12.7386070153      -18.9757925302      -33.5277210772  TIP3      16734           0.0000000000
     72453     16926  TIP3      H1             13.3330723704      -19.7034696335      -33.8619540929  TIP3      16734           0.0000000000
     72454     16926  TIP3      H2             12.4699529857      -19.3914412900      -32.7048647128  TIP3      16734           0.0000000000
     72455     16927  TIP3      OH2            10.2734295591      -24.7220635822      -31.6068176458  TIP3      16735           0.0000000000
     72456     16927  TIP3      H1             10.6117920224      -25.3477490413      -32.2678859247  TIP3      16735           0.0000000000
     72457     16927  TIP3      H2             11.0863932945      -24.5646350340      -31.0952276258  TIP3      16735           0.0000000000
     72458     16928  TIP3      OH2            18.8607015459      -33.0678516713      -30.8910442290  TIP3      16736           0.0000000000
     72459     16928  TIP3      H1             19.0455379138      -32.4886643483      -30.1185133411  TIP3      16736           0.0000000000
     72460     16928  TIP3      H2             19.4266905732      -32.6441938642      -31.5508631655  TIP3      16736           0.0000000000
     72461     16929  TIP3      OH2            13.4440561041      -30.2546790757      -31.2866554936  TIP3      16737           0.0000000000
     72462     16929  TIP3      H1             13.6009585964      -31.2206701204      -31.2861573851  TIP3      16737           0.0000000000
     72463     16929  TIP3      H2             13.3399339320      -30.1087770016      -32.2477449066  TIP3      16737           0.0000000000
     72464     16930  TIP3      OH2             6.5686917184      -32.1499329562      -34.0820666280  TIP3      16738           0.0000000000
     72465     16930  TIP3      H1              6.6681376041      -31.3195739536      -34.5842354792  TIP3      16738           0.0000000000
     72466     16930  TIP3      H2              6.1544055004      -32.7230959601      -34.7585325273  TIP3      16738           0.0000000000
     72467     16931  TIP3      OH2            14.2991961549      -32.1103188189      -35.7092949064  TIP3      16739           0.0000000000
     72468     16931  TIP3      H1             14.9531721451      -32.3844849406      -35.0279852209  TIP3      16739           0.0000000000
     72469     16931  TIP3      H2             14.8483905294      -31.5184417939      -36.2425975012  TIP3      16739           0.0000000000
     72470     16932  TIP3      OH2             3.1760971850      -29.7560657770      -33.3393892872  TIP3      16740           0.0000000000
     72471     16932  TIP3      H1              3.8519623684      -30.2989236864      -32.8899583905  TIP3      16740           0.0000000000
     72472     16932  TIP3      H2              3.2852954643      -30.0682934471      -34.2528264531  TIP3      16740           0.0000000000
     72473     16933  TIP3      OH2             8.3390233538      -28.1984343557      -34.0274446684  TIP3      16741           0.0000000000
     72474     16933  TIP3      H1              9.0116746061      -28.7802504605      -33.6341569275  TIP3      16741           0.0000000000
     72475     16933  TIP3      H2              7.8214994195      -28.8563501572      -34.5328777560  TIP3      16741           0.0000000000
     72476     16934  TIP3      OH2            19.3146454639      -31.6686390705      -28.5954212237  TIP3      16742           0.0000000000
     72477     16934  TIP3      H1             18.6975680563      -30.9131156009      -28.7153534367  TIP3      16742           0.0000000000
     72478     16934  TIP3      H2             19.3517038194      -31.7616455380      -27.6338384355  TIP3      16742           0.0000000000
     72479     16935  TIP3      OH2             5.4784512285      -33.2071897717      -30.0585580379  TIP3      16743           0.0000000000
     72480     16935  TIP3      H1              5.1517735147      -32.6750723039      -30.8095440045  TIP3      16743           0.0000000000
     72481     16935  TIP3      H2              4.7741935849      -33.0363178027      -29.3828742269  TIP3      16743           0.0000000000
     72482     16936  TIP3      OH2            12.7542530054      -23.7875690282      -36.4961302670  TIP3      16744           0.0000000000
     72483     16936  TIP3      H1             12.4962830335      -24.0567527226      -37.3870827135  TIP3      16744           0.0000000000
     72484     16936  TIP3      H2             12.4475405786      -22.8529148144      -36.4455500136  TIP3      16744           0.0000000000
     72485     16937  TIP3      OH2             7.9763125938      -25.6229117636      -29.8055477923  TIP3      16745           0.0000000000
     72486     16937  TIP3      H1              7.2730380858      -24.9770652448      -29.5851962065  TIP3      16745           0.0000000000
     72487     16937  TIP3      H2              8.6858193993      -25.0271583834      -30.0945286595  TIP3      16745           0.0000000000
     72488     16938  TIP3      OH2            16.1157197915      -32.7571642370      -33.7338987901  TIP3      16746           0.0000000000
     72489     16938  TIP3      H1             15.8655696841      -33.4951555856      -33.1666588013  TIP3      16746           0.0000000000
     72490     16938  TIP3      H2             16.7772473150      -32.3048517534      -33.1851586954  TIP3      16746           0.0000000000
     72491     16939  TIP3      OH2             5.0237677614      -31.3619875474      -32.0319213313  TIP3      16747           0.0000000000
     72492     16939  TIP3      H1              5.6773185923      -30.7161029427      -31.6906192242  TIP3      16747           0.0000000000
     72493     16939  TIP3      H2              5.5443165062      -31.8084568921      -32.7462300834  TIP3      16747           0.0000000000
     72494     16940  TIP3      OH2             6.4277736122      -23.6176118688      -28.9921500717  TIP3      16748           0.0000000000
     72495     16940  TIP3      H1              6.3737062495      -22.7039288669      -29.3287968225  TIP3      16748           0.0000000000
     72496     16940  TIP3      H2              5.5526624456      -23.7147670673      -28.5453880570  TIP3      16748           0.0000000000
     72497     16941  TIP3      OH2             2.5079910842      -24.0093549450      -38.1913479536  TIP3      16749           0.0000000000
     72498     16941  TIP3      H1              2.2582325959      -23.6687140762      -39.0678640789  TIP3      16749           0.0000000000
     72499     16941  TIP3      H2              2.5873561463      -23.1818894101      -37.6757992150  TIP3      16749           0.0000000000
     72500     16942  TIP3      OH2            16.1164852123      -22.3343502735      -31.4308533547  TIP3      16750           0.0000000000
     72501     16942  TIP3      H1             15.1473687043      -22.2220120640      -31.3112452972  TIP3      16750           0.0000000000
     72502     16942  TIP3      H2             16.3839229630      -21.4197816308      -31.6344179279  TIP3      16750           0.0000000000
     72503     16943  TIP3      OH2            16.4740333992      -34.0552839033      -29.9795089517  TIP3      16751           0.0000000000
     72504     16943  TIP3      H1             15.7263849724      -33.4662669059      -30.1392308292  TIP3      16751           0.0000000000
     72505     16943  TIP3      H2             17.1691076991      -33.6518756336      -30.5395827169  TIP3      16751           0.0000000000
     72506     16944  TIP3      OH2             9.3766892224      -35.9244032300      -32.7612924568  TIP3      16752           0.0000000000
     72507     16944  TIP3      H1              9.3673009309      -36.8802972074      -32.5871044155  TIP3      16752           0.0000000000
     72508     16944  TIP3      H2              8.5944432093      -35.6572009877      -32.2504828959  TIP3      16752           0.0000000000
     72509     16945  TIP3      OH2            14.3706724551      -20.5270424263      -34.8367994258  TIP3      16753           0.0000000000
     72510     16945  TIP3      H1             14.7893607461      -21.2640517614      -35.3345461071  TIP3      16753           0.0000000000
     72511     16945  TIP3      H2             14.8220511643      -19.7656333310      -35.2523660912  TIP3      16753           0.0000000000
     72512     16946  TIP3      OH2            15.5885265475      -22.6256498573      -36.3209143713  TIP3      16754           0.0000000000
     72513     16946  TIP3      H1             15.2880231345      -23.3205058860      -36.9282612118  TIP3      16754           0.0000000000
     72514     16946  TIP3      H2             15.6265769867      -23.1240017926      -35.4848543805  TIP3      16754           0.0000000000
     72515     16947  TIP3      OH2            17.2060666506      -24.0269706582      -27.8306311601  TIP3      16755           0.0000000000
     72516     16947  TIP3      H1             17.3511013831      -24.6940459626      -28.5380824938  TIP3      16755           0.0000000000
     72517     16947  TIP3      H2             17.4168565179      -23.1883926352      -28.2784661014  TIP3      16755           0.0000000000
     72518     16948  TIP3      OH2            11.7007615285      -27.1538586616      -38.0736478707  TIP3      16756           0.0000000000
     72519     16948  TIP3      H1             11.0096254241      -26.5685389192      -38.4279984740  TIP3      16756           0.0000000000
     72520     16948  TIP3      H2             12.4130458242      -27.0419895924      -38.7318658511  TIP3      16756           0.0000000000
     72521     16949  TIP3      OH2            11.7830461204      -28.5731219464      -41.0590246942  TIP3      16757           0.0000000000
     72522     16949  TIP3      H1             12.4907281440      -28.5859643673      -40.3963661600  TIP3      16757           0.0000000000
     72523     16949  TIP3      H2             12.0901023658      -29.2902565328      -41.6283611618  TIP3      16757           0.0000000000
     72524     16950  TIP3      OH2            19.0943724087      -27.7146131162      -29.7887336471  TIP3      16758           0.0000000000
     72525     16950  TIP3      H1             18.4309238972      -26.9971056232      -29.7564886524  TIP3      16758           0.0000000000
     72526     16950  TIP3      H2             19.5896267201      -27.4830378998      -30.5975172537  TIP3      16758           0.0000000000
     72527     16951  TIP3      OH2            15.1546402818      -26.9425054147      -37.1501806441  TIP3      16759           0.0000000000
     72528     16951  TIP3      H1             14.4120287461      -26.6903792575      -36.5483219453  TIP3      16759           0.0000000000
     72529     16951  TIP3      H2             15.6264604498      -27.6097517867      -36.6227745300  TIP3      16759           0.0000000000
     72530     16952  TIP3      OH2            15.0824096143      -28.7610754954      -28.0336330466  TIP3      16760           0.0000000000
     72531     16952  TIP3      H1             15.0723780390      -27.9626512690      -27.4717616901  TIP3      16760           0.0000000000
     72532     16952  TIP3      H2             14.4370891329      -28.4631991779      -28.7048685500  TIP3      16760           0.0000000000
     72533     16953  TIP3      OH2             6.7622439071      -26.2666181281      -35.2334881331  TIP3      16761           0.0000000000
     72534     16953  TIP3      H1              6.4410581130      -26.6616123876      -36.0793851184  TIP3      16761           0.0000000000
     72535     16953  TIP3      H2              7.3749479300      -26.9611327841      -34.8960941809  TIP3      16761           0.0000000000
     72536     16954  TIP3      OH2             8.0857805385      -22.8789346312      -32.5422233300  TIP3      16762           0.0000000000
     72537     16954  TIP3      H1              8.0732595537      -23.4049582807      -33.3553881998  TIP3      16762           0.0000000000
     72538     16954  TIP3      H2              8.8694611124      -23.2467478356      -32.0962579041  TIP3      16762           0.0000000000
     72539     16955  TIP3      OH2             7.0823282516      -27.5195422952      -31.5811008035  TIP3      16763           0.0000000000
     72540     16955  TIP3      H1              7.6405731813      -27.4254211348      -32.3768278146  TIP3      16763           0.0000000000
     72541     16955  TIP3      H2              7.4752109226      -26.8566549695      -30.9702471672  TIP3      16763           0.0000000000
     72542     16956  TIP3      OH2            13.5148829165      -21.9555409179      -30.8612794118  TIP3      16764           0.0000000000
     72543     16956  TIP3      H1             13.2195218619      -21.3196596651      -30.2035291543  TIP3      16764           0.0000000000
     72544     16956  TIP3      H2             13.2529779174      -22.8064027091      -30.4392039208  TIP3      16764           0.0000000000
     72545     16957  TIP3      OH2             8.0318349530      -23.1098729227      -26.8356436095  TIP3      16765           0.0000000000
     72546     16957  TIP3      H1              7.6370409094      -22.3228810599      -26.4105352599  TIP3      16765           0.0000000000
     72547     16957  TIP3      H2              7.3844024423      -23.2990985662      -27.5605493784  TIP3      16765           0.0000000000
     72548     16958  TIP3      OH2            14.0291593071      -27.7275631275      -39.4828390609  TIP3      16766           0.0000000000
     72549     16958  TIP3      H1             14.5839894065      -27.5549396697      -38.6818885055  TIP3      16766           0.0000000000
     72550     16958  TIP3      H2             14.4799965893      -27.2326612306      -40.2035176584  TIP3      16766           0.0000000000
     72551     16959  TIP3      OH2             4.9760640159      -26.9010344123      -27.6868232347  TIP3      16767           0.0000000000
     72552     16959  TIP3      H1              4.9964372247      -26.2594857252      -26.9558461692  TIP3      16767           0.0000000000
     72553     16959  TIP3      H2              4.0418731241      -26.8417861317      -27.9500019990  TIP3      16767           0.0000000000
     72554     16960  TIP3      OH2            11.7359167596      -21.0082044335      -36.0167877527  TIP3      16768           0.0000000000
     72555     16960  TIP3      H1             12.1679645303      -20.7097466944      -35.2103191646  TIP3      16768           0.0000000000
     72556     16960  TIP3      H2             11.1812870357      -20.2556923430      -36.2485184894  TIP3      16768           0.0000000000
     72557     16961  TIP3      OH2             6.2632984468      -21.1171813744      -26.1620854966  TIP3      16769           0.0000000000
     72558     16961  TIP3      H1              6.2389755400      -21.1817039570      -27.1363195034  TIP3      16769           0.0000000000
     72559     16961  TIP3      H2              5.3443536770      -21.1913776610      -25.9043223471  TIP3      16769           0.0000000000
     72560     16962  TIP3      OH2            17.7183778074      -35.8661805717      -39.8155159005  TIP3      16770           0.0000000000
     72561     16962  TIP3      H1             16.8558681624      -35.8088311235      -39.3678474316  TIP3      16770           0.0000000000
     72562     16962  TIP3      H2             17.9596672993      -34.9557951383      -40.0380975200  TIP3      16770           0.0000000000
     72563     16963  TIP3      OH2             5.7223263288      -27.2531087273      -37.5984895419  TIP3      16771           0.0000000000
     72564     16963  TIP3      H1              5.4443850699      -26.4683984390      -38.1182662823  TIP3      16771           0.0000000000
     72565     16963  TIP3      H2              5.0757204362      -27.9176210248      -37.8472743870  TIP3      16771           0.0000000000
     72566     16964  TIP3      OH2            18.8651545471      -21.6390988783      -41.2251522693  TIP3      16772           0.0000000000
     72567     16964  TIP3      H1             19.0376314875      -20.6974437146      -41.0573279466  TIP3      16772           0.0000000000
     72568     16964  TIP3      H2             19.7835976225      -21.9680407712      -41.2354119136  TIP3      16772           0.0000000000
     72569     16965  TIP3      OH2             1.8563399186      -24.8203412501      -28.7589728446  TIP3      16773           0.0000000000
     72570     16965  TIP3      H1              1.3635864470      -24.9121706395      -29.5924299288  TIP3      16773           0.0000000000
     72571     16965  TIP3      H2              1.8944058560      -25.7593331015      -28.4914193311  TIP3      16773           0.0000000000
     72572     16966  TIP3      OH2             1.5774644051      -22.0785356774      -31.9364729881  TIP3      16774           0.0000000000
     72573     16966  TIP3      H1              2.5350307048      -22.1984639485      -31.9596435904  TIP3      16774           0.0000000000
     72574     16966  TIP3      H2              1.5000069052      -21.2652324212      -31.4220568472  TIP3      16774           0.0000000000
     72575     16967  TIP3      OH2            19.8149122352      -21.3851273847      -26.2785898256  TIP3      16775           0.0000000000
     72576     16967  TIP3      H1             19.7035203403      -22.3471528652      -26.2829110712  TIP3      16775           0.0000000000
     72577     16967  TIP3      H2             18.9597657822      -21.1246587517      -25.8609830218  TIP3      16775           0.0000000000
     72578     16968  TIP3      OH2            10.7806913991      -21.8404022766      -27.3891918718  TIP3      16776           0.0000000000
     72579     16968  TIP3      H1             10.8256823087      -20.9957841378      -26.8854375799  TIP3      16776           0.0000000000
     72580     16968  TIP3      H2              9.8945974467      -22.1751560188      -27.1557959710  TIP3      16776           0.0000000000
     72581     16969  TIP3      OH2            11.2215316374      -18.0955948941      -37.5985370571  TIP3      16777           0.0000000000
     72582     16969  TIP3      H1             11.1102470310      -18.1759984708      -38.5595663169  TIP3      16777           0.0000000000
     72583     16969  TIP3      H2             11.2158954850      -17.1351254338      -37.4578358653  TIP3      16777           0.0000000000
     72584     16970  TIP3      OH2             4.8591474110      -19.2178047150      -35.7733997911  TIP3      16778           0.0000000000
     72585     16970  TIP3      H1              5.0043218067      -19.6328482297      -34.8962197016  TIP3      16778           0.0000000000
     72586     16970  TIP3      H2              4.0110002083      -19.6270716067      -36.0131020046  TIP3      16778           0.0000000000
     72587     16971  TIP3      OH2            14.2772690018      -18.8841504804      -40.6112896017  TIP3      16779           0.0000000000
     72588     16971  TIP3      H1             14.7292218684      -19.6418051550      -41.0477815076  TIP3      16779           0.0000000000
     72589     16971  TIP3      H2             14.3146030919      -19.1464403651      -39.6690205359  TIP3      16779           0.0000000000
     72590     16972  TIP3      OH2            13.9724409749      -18.9487351373      -37.8388779124  TIP3      16780           0.0000000000
     72591     16972  TIP3      H1             13.0101395245      -18.8726879124      -37.6686764068  TIP3      16780           0.0000000000
     72592     16972  TIP3      H2             14.2037246197      -19.6919485799      -37.2617726616  TIP3      16780           0.0000000000
     72593     16973  TIP3      OH2            16.9476483628      -29.9395573598      -25.7794130715  TIP3      16781           0.0000000000
     72594     16973  TIP3      H1             16.4871129634      -29.4607265982      -26.4890635377  TIP3      16781           0.0000000000
     72595     16973  TIP3      H2             16.9796836787      -30.8478124484      -26.1069348990  TIP3      16781           0.0000000000
     72596     16974  TIP3      OH2             4.1012041251      -23.4780537231      -27.7215025963  TIP3      16782           0.0000000000
     72597     16974  TIP3      H1              4.3160812768      -23.9247992617      -26.8722876558  TIP3      16782           0.0000000000
     72598     16974  TIP3      H2              3.2546491454      -23.9018022261      -27.9951744334  TIP3      16782           0.0000000000
     72599     16975  TIP3      OH2             6.7627687411      -35.0651280441      -31.7944065219  TIP3      16783           0.0000000000
     72600     16975  TIP3      H1              5.8724780312      -35.1253197315      -32.1928895276  TIP3      16783           0.0000000000
     72601     16975  TIP3      H2              6.6551368185      -34.2085232779      -31.3507775034  TIP3      16783           0.0000000000
     72602     16976  TIP3      OH2            11.4052862188      -35.3227119211      -28.4255288505  TIP3      16784           0.0000000000
     72603     16976  TIP3      H1             11.8401500153      -35.7343365076      -27.6813464373  TIP3      16784           0.0000000000
     72604     16976  TIP3      H2             10.4547208050      -35.4380825227      -28.2560709165  TIP3      16784           0.0000000000
     72605     16977  TIP3      OH2            14.6988379729      -31.5586546999      -27.5893008668  TIP3      16785           0.0000000000
     72606     16977  TIP3      H1             14.1376220157      -31.7005736440      -26.7897660403  TIP3      16785           0.0000000000
     72607     16977  TIP3      H2             14.5605483819      -30.6163688998      -27.7917668617  TIP3      16785           0.0000000000
     72608     16978  TIP3      OH2            15.4771009236      -26.6955854451      -41.6651694318  TIP3      16786           0.0000000000
     72609     16978  TIP3      H1             15.4552351955      -26.8843331281      -42.6315711723  TIP3      16786           0.0000000000
     72610     16978  TIP3      H2             16.3359776860      -26.2533760868      -41.6140228120  TIP3      16786           0.0000000000
     72611     16979  TIP3      OH2            11.0812838407      -32.7749148091      -41.1304755922  TIP3      16787           0.0000000000
     72612     16979  TIP3      H1             10.7498828847      -32.8520139187      -40.2250711459  TIP3      16787           0.0000000000
     72613     16979  TIP3      H2             10.7750662470      -33.6482641197      -41.4430733880  TIP3      16787           0.0000000000
     72614     16980  TIP3      OH2             6.8871194794      -30.0585582487      -30.5779359806  TIP3      16788           0.0000000000
     72615     16980  TIP3      H1              6.1488084463      -30.0697809408      -29.9430566206  TIP3      16788           0.0000000000
     72616     16980  TIP3      H2              6.8475269186      -29.1430588433      -30.9365573506  TIP3      16788           0.0000000000
     72617     16981  TIP3      OH2             6.8499177891      -29.9351870567      -35.7153276910  TIP3      16789           0.0000000000
     72618     16981  TIP3      H1              5.9096799918      -30.1799973267      -35.8414766988  TIP3      16789           0.0000000000
     72619     16981  TIP3      H2              7.2265043632      -30.2314499689      -36.5634590692  TIP3      16789           0.0000000000
     72620     16982  TIP3      OH2            12.3737447896      -29.4283403555      -36.9362836652  TIP3      16790           0.0000000000
     72621     16982  TIP3      H1             11.9774395963      -28.6072188834      -37.3059748080  TIP3      16790           0.0000000000
     72622     16982  TIP3      H2             13.0633169203      -29.6074830643      -37.5978185485  TIP3      16790           0.0000000000
     72623     16983  TIP3      OH2            11.4283474302      -29.1684360288      -25.3807254475  TIP3      16791           0.0000000000
     72624     16983  TIP3      H1             10.9169459304      -29.9951533472      -25.2119827978  TIP3      16791           0.0000000000
     72625     16983  TIP3      H2             12.2989249991      -29.4081989695      -25.0189366454  TIP3      16791           0.0000000000
     72626     16984  TIP3      OH2            13.4093804257      -29.9402685711      -34.0934178715  TIP3      16792           0.0000000000
     72627     16984  TIP3      H1             13.1185383290      -29.3836324478      -34.8337443868  TIP3      16792           0.0000000000
     72628     16984  TIP3      H2             13.4960780109      -30.7911706854      -34.5593470100  TIP3      16792           0.0000000000
     72629     16985  TIP3      OH2             4.4988150031      -29.7980434821      -28.8964949775  TIP3      16793           0.0000000000
     72630     16985  TIP3      H1              4.5840778396      -29.3917157468      -28.0160939542  TIP3      16793           0.0000000000
     72631     16985  TIP3      H2              4.0665043960      -30.6341123157      -28.6769545414  TIP3      16793           0.0000000000
     72632     16986  TIP3      OH2             7.8628369326      -32.4183448457      -42.0528483316  TIP3      16794           0.0000000000
     72633     16986  TIP3      H1              7.4253847992      -32.8115393482      -41.2681885026  TIP3      16794           0.0000000000
     72634     16986  TIP3      H2              7.1519128271      -31.9514902228      -42.5073067659  TIP3      16794           0.0000000000
     72635     16987  TIP3      OH2             1.1762376450      -32.6638839592      -34.9249605972  TIP3      16795           0.0000000000
     72636     16987  TIP3      H1              1.8535900765      -32.7007713725      -34.2157512286  TIP3      16795           0.0000000000
     72637     16987  TIP3      H2              1.6240436042      -33.0576086305      -35.6916971104  TIP3      16795           0.0000000000
     72638     16988  TIP3      OH2             2.4358948940      -31.9623071882      -39.5303759375  TIP3      16796           0.0000000000
     72639     16988  TIP3      H1              2.9482960028      -31.3723798611      -40.1163978378  TIP3      16796           0.0000000000
     72640     16988  TIP3      H2              1.7434169611      -31.3388308364      -39.2337011913  TIP3      16796           0.0000000000
     72641     16989  TIP3      OH2            12.5979978965      -28.3547999218      -29.5394809992  TIP3      16797           0.0000000000
     72642     16989  TIP3      H1             12.9749025182      -29.0462697216      -30.1185355015  TIP3      16797           0.0000000000
     72643     16989  TIP3      H2             12.1310677279      -28.8891359435      -28.8754008196  TIP3      16797           0.0000000000
     72644     16990  TIP3      OH2             9.4097982894      -32.3922366773      -34.7251800926  TIP3      16798           0.0000000000
     72645     16990  TIP3      H1              8.4813168717      -32.3917830247      -34.4140144839  TIP3      16798           0.0000000000
     72646     16990  TIP3      H2              9.8992229581      -32.5426377148      -33.8992908671  TIP3      16798           0.0000000000
     72647     16991  TIP3      OH2             4.2154979143      -30.8322830738      -35.8356681728  TIP3      16799           0.0000000000
     72648     16991  TIP3      H1              3.3299896470      -30.6833316128      -36.2271568280  TIP3      16799           0.0000000000
     72649     16991  TIP3      H2              4.5115284099      -31.6614742165      -36.2492318210  TIP3      16799           0.0000000000
     72650     16992  TIP3      OH2             7.8601722518      -30.7919727595      -38.2140087898  TIP3      16800           0.0000000000
     72651     16992  TIP3      H1              8.8149105026      -30.6826692190      -38.0472741029  TIP3      16800           0.0000000000
     72652     16992  TIP3      H2              7.6208749515      -30.0958746723      -38.8561980410  TIP3      16800           0.0000000000
     72653     16993  TIP3      OH2            13.8106286391      -33.1721165965      -31.4681367495  TIP3      16801           0.0000000000
     72654     16993  TIP3      H1             13.1212463583      -33.0908846689      -30.7746598948  TIP3      16801           0.0000000000
     72655     16993  TIP3      H2             13.3087794458      -33.4359832737      -32.2505126841  TIP3      16801           0.0000000000
     72656     16994  TIP3      OH2             6.5624696242      -29.6110750692      -40.6213604254  TIP3      16802           0.0000000000
     72657     16994  TIP3      H1              6.0297838203      -29.9916006890      -41.3411241385  TIP3      16802           0.0000000000
     72658     16994  TIP3      H2              7.3834446166      -29.4026635025      -41.0936237865  TIP3      16802           0.0000000000
     72659     16995  TIP3      OH2             4.6738633678      -24.9992755745      -25.5271311167  TIP3      16803           0.0000000000
     72660     16995  TIP3      H1              5.3874375294      -24.7793170236      -24.9189418172  TIP3      16803           0.0000000000
     72661     16995  TIP3      H2              3.9000830523      -24.9515059578      -24.9458121186  TIP3      16803           0.0000000000
     72662     16996  TIP3      OH2            10.6925210073      -29.6319997709      -32.8128149012  TIP3      16804           0.0000000000
     72663     16996  TIP3      H1             11.2874287666      -30.1772298835      -33.3413483407  TIP3      16804           0.0000000000
     72664     16996  TIP3      H2             10.5374587184      -30.1767858064      -32.0287706779  TIP3      16804           0.0000000000
     72665     16997  TIP3      OH2             5.6826739963      -33.4527841675      -36.3681403285  TIP3      16805           0.0000000000
     72666     16997  TIP3      H1              5.3699198414      -34.3730340914      -36.3500293165  TIP3      16805           0.0000000000
     72667     16997  TIP3      H2              6.4629899534      -33.5379369755      -36.9270044764  TIP3      16805           0.0000000000
     72668     16998  TIP3      OH2             9.3360639598      -31.2654742886      -30.4214466623  TIP3      16806           0.0000000000
     72669     16998  TIP3      H1              8.4957726028      -30.7732536405      -30.3083288648  TIP3      16806           0.0000000000
     72670     16998  TIP3      H2              9.8789752805      -30.9471778578      -29.6754875508  TIP3      16806           0.0000000000
     72671     16999  TIP3      OH2             9.9160544930      -25.0775623773      -38.6992051051  TIP3      16807           0.0000000000
     72672     16999  TIP3      H1              9.1141508671      -25.5434599800      -39.0343279738  TIP3      16807           0.0000000000
     72673     16999  TIP3      H2              9.6876088506      -24.9539834491      -37.7548263369  TIP3      16807           0.0000000000
     72674     17000  TIP3      OH2            17.1011158280      -25.8731251015      -29.8939016486  TIP3      16808           0.0000000000
     72675     17000  TIP3      H1             17.6637107555      -25.3925442190      -30.5284172304  TIP3      16808           0.0000000000
     72676     17000  TIP3      H2             16.2413340482      -25.8311441554      -30.3596047215  TIP3      16808           0.0000000000
     72677     17001  TIP3      OH2            13.7299087108      -32.2539615493      -40.5070566467  TIP3      16809           0.0000000000
     72678     17001  TIP3      H1             12.7806217772      -32.1010593048      -40.6658233712  TIP3      16809           0.0000000000
     72679     17001  TIP3      H2             14.0790481326      -31.4034064702      -40.1694027123  TIP3      16809           0.0000000000
     72680     17002  TIP3      OH2            11.4072059425      -24.8027052015      -27.4723428004  TIP3      16810           0.0000000000
     72681     17002  TIP3      H1             11.0624897157      -25.2305072437      -26.6868493657  TIP3      16810           0.0000000000
     72682     17002  TIP3      H2             11.1459977811      -23.8815299020      -27.3833921106  TIP3      16810           0.0000000000
     72683     17003  TIP3      OH2            14.4869099468      -30.3514357585      -38.9055212245  TIP3      16811           0.0000000000
     72684     17003  TIP3      H1             15.3651841859      -30.4836783587      -38.4924013936  TIP3      16811           0.0000000000
     72685     17003  TIP3      H2             14.5874775243      -29.5195505684      -39.4001659820  TIP3      16811           0.0000000000
     72686     17004  TIP3      OH2             5.0284057512      -25.6783588995      -32.8974509125  TIP3      16812           0.0000000000
     72687     17004  TIP3      H1              5.7039047934      -25.7653795005      -33.5993386388  TIP3      16812           0.0000000000
     72688     17004  TIP3      H2              5.0837848672      -26.5387153822      -32.4432723440  TIP3      16812           0.0000000000
     72689     17005  TIP3      OH2            12.0080825340      -23.6096014505      -39.6669193408  TIP3      16813           0.0000000000
     72690     17005  TIP3      H1             11.6640223123      -22.7643393996      -39.3103897486  TIP3      16813           0.0000000000
     72691     17005  TIP3      H2             11.2760599507      -24.2263458397      -39.4485175030  TIP3      16813           0.0000000000
     72692     17006  TIP3      OH2             2.0101103634      -27.2851900530      -27.6523642270  TIP3      16814           0.0000000000
     72693     17006  TIP3      H1              2.1903756591      -27.7048659561      -26.7900960186  TIP3      16814           0.0000000000
     72694     17006  TIP3      H2              1.3774815682      -27.9003893892      -28.0569240082  TIP3      16814           0.0000000000
     72695     17007  TIP3      OH2            13.7057018461      -22.3830187926      -27.4987125400  TIP3      16815           0.0000000000
     72696     17007  TIP3      H1             12.7888977286      -22.2094555647      -27.7690517667  TIP3      16815           0.0000000000
     72697     17007  TIP3      H2             13.6653802144      -22.1022697163      -26.5777262671  TIP3      16815           0.0000000000
     72698     17008  TIP3      OH2            19.3922743561      -30.1952122019      -39.1223984354  TIP3      16816           0.0000000000
     72699     17008  TIP3      H1             18.8173338433      -30.4872345466      -39.8557360688  TIP3      16816           0.0000000000
     72700     17008  TIP3      H2             19.4596941776      -29.2460222055      -39.3740897160  TIP3      16816           0.0000000000
     72701     17009  TIP3      OH2            19.3838756585      -24.3857456696      -26.2950013382  TIP3      16817           0.0000000000
     72702     17009  TIP3      H1             18.5003225474      -24.1361324857      -26.6635288115  TIP3      16817           0.0000000000
     72703     17009  TIP3      H2             19.9278287868      -24.3951339690      -27.1055300146  TIP3      16817           0.0000000000
     72704     17010  TIP3      OH2            17.6167435495      -21.3812742071      -38.7260987118  TIP3      16818           0.0000000000
     72705     17010  TIP3      H1             17.3007083351      -22.2206797696      -38.3745418631  TIP3      16818           0.0000000000
     72706     17010  TIP3      H2             17.9822455749      -21.6030824449      -39.5990192596  TIP3      16818           0.0000000000
     72707     17011  TIP3      OH2            14.8775606168      -26.5607415650      -31.6135525294  TIP3      16819           0.0000000000
     72708     17011  TIP3      H1             13.9377646249      -26.7702990415      -31.7264627382  TIP3      16819           0.0000000000
     72709     17011  TIP3      H2             15.3096954493      -27.3190686827      -32.0503182069  TIP3      16819           0.0000000000
     72710     17012  TIP3      OH2             7.3977670960      -22.2270761304      -35.5125933988  TIP3      16820           0.0000000000
     72711     17012  TIP3      H1              7.8941553506      -21.4187767717      -35.7209678621  TIP3      16820           0.0000000000
     72712     17012  TIP3      H2              6.5193543948      -21.9970582495      -35.8436002542  TIP3      16820           0.0000000000
     72713     17013  TIP3      OH2             3.1637157741      -27.3886784397      -40.9434845830  TIP3      16821           0.0000000000
     72714     17013  TIP3      H1              3.7424692029      -26.7236299495      -40.5314657820  TIP3      16821           0.0000000000
     72715     17013  TIP3      H2              2.2733668564      -27.0762531909      -40.6940850781  TIP3      16821           0.0000000000
     72716     17014  TIP3      OH2             8.8060050882      -24.5592620318      -36.0049283432  TIP3      16822           0.0000000000
     72717     17014  TIP3      H1              8.4946204016      -23.6411578415      -35.9027064056  TIP3      16822           0.0000000000
     72718     17014  TIP3      H2              8.0953872309      -25.0562603221      -35.5531208616  TIP3      16822           0.0000000000
     72719     17015  TIP3      OH2             9.2615561177      -20.3824192870      -29.5863871463  TIP3      16823           0.0000000000
     72720     17015  TIP3      H1              9.7103139237      -19.5768466232      -29.8697989289  TIP3      16823           0.0000000000
     72721     17015  TIP3      H2              9.8916998900      -20.7197425718      -28.9296101313  TIP3      16823           0.0000000000
     72722     17016  TIP3      OH2             7.5050658154      -19.5692185119      -36.4527215732  TIP3      16824           0.0000000000
     72723     17016  TIP3      H1              6.5370517038      -19.4311084066      -36.3348152690  TIP3      16824           0.0000000000
     72724     17016  TIP3      H2              7.8589738642      -18.7249121502      -36.1214711639  TIP3      16824           0.0000000000
     72725     17017  TIP3      OH2            12.7856772598      -24.3808750258      -29.9726667890  TIP3      16825           0.0000000000
     72726     17017  TIP3      H1             12.4547006336      -24.5835569264      -29.0742907547  TIP3      16825           0.0000000000
     72727     17017  TIP3      H2             13.4254940249      -25.0923914379      -30.1383471402  TIP3      16825           0.0000000000
     72728     17018  TIP3      OH2            15.1261321849      -23.3033678555      -40.8785993937  TIP3      16826           0.0000000000
     72729     17018  TIP3      H1             15.4200628847      -23.7778203698      -40.0747010974  TIP3      16826           0.0000000000
     72730     17018  TIP3      H2             14.1724330463      -23.4883244248      -40.7976020620  TIP3      16826           0.0000000000
     72731     17019  TIP3      OH2            15.5528919486      -19.7702824635      -27.4508915164  TIP3      16827           0.0000000000
     72732     17019  TIP3      H1             14.9215447638      -20.3056791341      -27.9679484418  TIP3      16827           0.0000000000
     72733     17019  TIP3      H2             15.8031997075      -19.1131599023      -28.1372266931  TIP3      16827           0.0000000000
     72734     17020  TIP3      OH2            19.5817829636      -18.9524645597      -40.6186515961  TIP3      16828           0.0000000000
     72735     17020  TIP3      H1             20.2688219547      -18.2994291384      -40.8379515871  TIP3      16828           0.0000000000
     72736     17020  TIP3      H2             18.8578479280      -18.3519476444      -40.3399621974  TIP3      16828           0.0000000000
     72737     17021  TIP3      OH2             3.6601920655      -32.5559227334      -28.0397108154  TIP3      16829           0.0000000000
     72738     17021  TIP3      H1              2.7502408564      -32.2130112366      -28.1142260735  TIP3      16829           0.0000000000
     72739     17021  TIP3      H2              3.5202684317      -33.4335029085      -27.6434967330  TIP3      16829           0.0000000000
     72740     17022  TIP3      OH2            15.8983857337      -24.6712860277      -38.6354214863  TIP3      16830           0.0000000000
     72741     17022  TIP3      H1             15.6617941331      -25.4581838924      -38.0988750833  TIP3      16830           0.0000000000
     72742     17022  TIP3      H2             16.8542737754      -24.6308859881      -38.4604228965  TIP3      16830           0.0000000000
     72743     17023  TIP3      OH2             3.2861971998      -20.7601012982      -29.6576337903  TIP3      16831           0.0000000000
     72744     17023  TIP3      H1              3.5786864984      -21.6848104118      -29.6604942094  TIP3      16831           0.0000000000
     72745     17023  TIP3      H2              3.5283341401      -20.4739353523      -28.7689637860  TIP3      16831           0.0000000000
     72746     17024  TIP3      OH2             9.2524800493      -22.2340493826      -42.3819557222  TIP3      16832           0.0000000000
     72747     17024  TIP3      H1              9.3514789977      -22.9980470839      -42.9726373426  TIP3      16832           0.0000000000
     72748     17024  TIP3      H2              8.8101171497      -22.6645238731      -41.6179066771  TIP3      16832           0.0000000000
     72749     17025  TIP3      OH2             8.0231053763      -22.7073836496      -39.9299900027  TIP3      16833           0.0000000000
     72750     17025  TIP3      H1              8.2944584099      -23.2217123456      -39.1600833301  TIP3      16833           0.0000000000
     72751     17025  TIP3      H2              8.1151389807      -21.7814664595      -39.6072667849  TIP3      16833           0.0000000000
     72752     17026  TIP3      OH2             4.5682753671      -25.4613869311      -39.4431385644  TIP3      16834           0.0000000000
     72753     17026  TIP3      H1              3.8525239491      -25.0652739043      -38.9065706311  TIP3      16834           0.0000000000
     72754     17026  TIP3      H2              5.0722148998      -24.6811441133      -39.7383102634  TIP3      16834           0.0000000000
     72755     17027  TIP3      OH2            12.4104999492      -32.7735603244      -29.1394609585  TIP3      16835           0.0000000000
     72756     17027  TIP3      H1             13.1273551462      -32.7155344316      -28.4964566810  TIP3      16835           0.0000000000
     72757     17027  TIP3      H2             12.0379008402      -33.6580149466      -28.9572439313  TIP3      16835           0.0000000000
     72758     17028  TIP3      OH2            13.1728162758      -33.2098055465      -38.0149818938  TIP3      16836           0.0000000000
     72759     17028  TIP3      H1             13.3627275038      -32.7493015462      -38.8610767061  TIP3      16836           0.0000000000
     72760     17028  TIP3      H2             13.7092916234      -32.7026071182      -37.3918773474  TIP3      16836           0.0000000000
     72761     17029  TIP3      OH2            10.8293245940      -21.0445319522      -39.2352188602  TIP3      16837           0.0000000000
     72762     17029  TIP3      H1             10.0115124886      -20.5118322570      -39.1622398453  TIP3      16837           0.0000000000
     72763     17029  TIP3      H2             11.3681665922      -20.4934079892      -39.8210746786  TIP3      16837           0.0000000000
     72764     17030  TIP3      OH2            10.3837355269      -31.4808534173      -37.2110772348  TIP3      16838           0.0000000000
     72765     17030  TIP3      H1             11.1470269731      -30.8712774897      -37.1789274531  TIP3      16838           0.0000000000
     72766     17030  TIP3      H2             10.1211884954      -31.5642585201      -36.2738855710  TIP3      16838           0.0000000000
     72767     17031  TIP3      OH2            10.9169444879      -30.4410858558      -28.0470301363  TIP3      16839           0.0000000000
     72768     17031  TIP3      H1             10.9961869478      -29.8611626654      -27.2715117029  TIP3      16839           0.0000000000
     72769     17031  TIP3      H2             11.5922585802      -31.1201749417      -27.9361719044  TIP3      16839           0.0000000000
     72770     17032  TIP3      OH2            11.2435474333      -34.3875260897      -36.2912300357  TIP3      16840           0.0000000000
     72771     17032  TIP3      H1             10.8944550592      -33.7163129190      -35.6804573221  TIP3      16840           0.0000000000
     72772     17032  TIP3      H2             11.8999929183      -33.8383257670      -36.7796594338  TIP3      16840           0.0000000000
     72773     17033  TIP3      OH2             8.2306212262      -20.0096332631      -39.2034773827  TIP3      16841           0.0000000000
     72774     17033  TIP3      H1              8.3230551192      -19.1953494077      -39.7551860224  TIP3      16841           0.0000000000
     72775     17033  TIP3      H2              7.9572607811      -19.6449261010      -38.3339293772  TIP3      16841           0.0000000000
     72776     17034  TIP3      OH2             6.8611047528      -33.2985242253      -39.6404062445  TIP3      16842           0.0000000000
     72777     17034  TIP3      H1              6.8064945102      -32.4045328925      -39.2515374199  TIP3      16842           0.0000000000
     72778     17034  TIP3      H2              7.7843090068      -33.4996049880      -39.3889498310  TIP3      16842           0.0000000000
     72779     17035  TIP3      OH2            17.1028401974      -32.5454720902      -27.1534097411  TIP3      16843           0.0000000000
     72780     17035  TIP3      H1             16.1736804030      -32.2388462400      -27.3050301263  TIP3      16843           0.0000000000
     72781     17035  TIP3      H2             17.4056826034      -32.5828341866      -28.0803725819  TIP3      16843           0.0000000000
     72782     17036  TIP3      OH2            15.7165478202      -28.7672602659      -33.1827911448  TIP3      16844           0.0000000000
     72783     17036  TIP3      H1             14.8888005807      -29.2112423397      -33.4520322069  TIP3      16844           0.0000000000
     72784     17036  TIP3      H2             16.1962171399      -29.4526795320      -32.6619990735  TIP3      16844           0.0000000000
     72785     17037  TIP3      OH2             5.1087549286      -22.8472584343      -40.5849211637  TIP3      16845           0.0000000000
     72786     17037  TIP3      H1              5.7760046584      -22.2199644031      -40.2683863335  TIP3      16845           0.0000000000
     72787     17037  TIP3      H2              5.6326185146      -23.3116629733      -41.2687582635  TIP3      16845           0.0000000000
     72788     17038  TIP3      OH2             3.4477711209      -30.1645985660      -41.4309109615  TIP3      16846           0.0000000000
     72789     17038  TIP3      H1              3.4679145839      -29.2054296115      -41.2324465753  TIP3      16846           0.0000000000
     72790     17038  TIP3      H2              2.5599053356      -30.3424847502      -41.7480698083  TIP3      16846           0.0000000000
     72791     17039  TIP3      OH2            16.7540981209      -19.4561059726      -31.5015560703  TIP3      16847           0.0000000000
     72792     17039  TIP3      H1             16.7033893662      -18.8084081008      -32.2207799911  TIP3      16847           0.0000000000
     72793     17039  TIP3      H2             17.7242844759      -19.4594559212      -31.3220014864  TIP3      16847           0.0000000000
     72794     17040  TIP3      OH2             4.0307653796      -35.2254628735      -32.6437663560  TIP3      16848           0.0000000000
     72795     17040  TIP3      H1              4.0904748466      -35.3263634335      -33.6222014870  TIP3      16848           0.0000000000
     72796     17040  TIP3      H2              3.8843669805      -36.1491808336      -32.4189347619  TIP3      16848           0.0000000000
     72797     17041  TIP3      OH2             3.2264692646      -21.4664785111      -36.5495537380  TIP3      16849           0.0000000000
     72798     17041  TIP3      H1              2.3737470820      -21.0177600076      -36.5965587874  TIP3      16849           0.0000000000
     72799     17041  TIP3      H2              3.7022285207      -21.0020420623      -37.2510967436  TIP3      16849           0.0000000000
     72800     17042  TIP3      OH2             7.0399236840      -19.9320272348      -23.6917180059  TIP3      16850           0.0000000000
     72801     17042  TIP3      H1              7.8242990534      -20.3373239801      -23.2801448909  TIP3      16850           0.0000000000
     72802     17042  TIP3      H2              7.1236042614      -20.1716369201      -24.6224467110  TIP3      16850           0.0000000000
     72803     17043  TIP3      OH2            11.2467188788      -20.3832759343      -42.2589990224  TIP3      16851           0.0000000000
     72804     17043  TIP3      H1             10.5537938552      -21.0422454064      -42.0310365027  TIP3      16851           0.0000000000
     72805     17043  TIP3      H2             11.9646296650      -20.9821403958      -42.5066245602  TIP3      16851           0.0000000000
     72806     17044  TIP3      OH2            13.6235271141      -21.4787225124      -24.9290309378  TIP3      16852           0.0000000000
     72807     17044  TIP3      H1             13.3122094376      -22.3667846895      -24.6954056969  TIP3      16852           0.0000000000
     72808     17044  TIP3      H2             14.4224723203      -21.4304571758      -24.3987182341  TIP3      16852           0.0000000000
     72809     17045  TIP3      OH2            15.8054944177      -20.6395773674      -42.0726925263  TIP3      16853           0.0000000000
     72810     17045  TIP3      H1             16.0999612633      -21.4150696760      -41.5688845732  TIP3      16853           0.0000000000
     72811     17045  TIP3      H2             16.5668341240      -20.4148769954      -42.6244674855  TIP3      16853           0.0000000000
     72812     17046  TIP3      OH2             6.6920149260      -24.6979903892      -42.2542669853  TIP3      16854           0.0000000000
     72813     17046  TIP3      H1              6.8307399134      -25.4593228704      -41.6705735429  TIP3      16854           0.0000000000
     72814     17046  TIP3      H2              7.4402744479      -24.8172666400      -42.8716697172  TIP3      16854           0.0000000000
     72815     17047  TIP3      OH2             9.0774013919      -25.1168184447      -24.8698308450  TIP3      16855           0.0000000000
     72816     17047  TIP3      H1              8.7590875315      -24.6863601556      -25.7004815446  TIP3      16855           0.0000000000
     72817     17047  TIP3      H2              9.1510800814      -26.0294834172      -25.1365877631  TIP3      16855           0.0000000000
     72818     17048  TIP3      OH2            12.1222803938      -23.5894573134      -42.4759920124  TIP3      16856           0.0000000000
     72819     17048  TIP3      H1             11.8516778010      -23.5082845292      -41.5478752382  TIP3      16856           0.0000000000
     72820     17048  TIP3      H2             11.9326066191      -24.5469975370      -42.6207115452  TIP3      16856           0.0000000000
     72821     17049  TIP3      OH2            14.7572716651      -25.1786267922      -27.4626531478  TIP3      16857           0.0000000000
     72822     17049  TIP3      H1             15.5496992504      -24.6106959044      -27.5797201575  TIP3      16857           0.0000000000
     72823     17049  TIP3      H2             14.0492193215      -24.5197647920      -27.4623382037  TIP3      16857           0.0000000000
     72824     17050  TIP3      OH2             3.2969150529      -27.8125323072      -24.8811378064  TIP3      16858           0.0000000000
     72825     17050  TIP3      H1              3.6449182953      -28.6876001379      -25.0354974215  TIP3      16858           0.0000000000
     72826     17050  TIP3      H2              2.9552286316      -27.7776788215      -23.9879000051  TIP3      16858           0.0000000000
     72827     17051  TIP3      OH2             7.8952542855      -26.6825823082      -39.8225415501  TIP3      16859           0.0000000000
     72828     17051  TIP3      H1              7.3894894164      -27.2204052749      -39.1960536626  TIP3      16859           0.0000000000
     72829     17051  TIP3      H2              8.1923055986      -27.3539584651      -40.4795599484  TIP3      16859           0.0000000000
     72830     17052  TIP3      OH2             7.1540056924      -28.8746483865      -27.5268740387  TIP3      16860           0.0000000000
     72831     17052  TIP3      H1              6.5646070422      -28.1405633917      -27.2999632576  TIP3      16860           0.0000000000
     72832     17052  TIP3      H2              7.5689030596      -28.5180980786      -28.3339899880  TIP3      16860           0.0000000000
     72833     17053  TIP3      OH2             8.9707974701      -28.4584196706      -41.6262323496  TIP3      16861           0.0000000000
     72834     17053  TIP3      H1              8.8201521512      -28.5458521964      -42.5896500281  TIP3      16861           0.0000000000
     72835     17053  TIP3      H2              9.9467938413      -28.4047968685      -41.5598742085  TIP3      16861           0.0000000000
     72836     17054  TIP3      OH2            12.2394228358      -26.3135642968      -24.1248681827  TIP3      16862           0.0000000000
     72837     17054  TIP3      H1             13.1891728757      -26.2622532494      -24.3668443281  TIP3      16862           0.0000000000
     72838     17054  TIP3      H2             12.2183711559      -27.1507663098      -23.6727049266  TIP3      16862           0.0000000000
     72839     17055  TIP3      OH2            18.2978006356      -26.1371924652      -42.2151276167  TIP3      16863           0.0000000000
     72840     17055  TIP3      H1             18.1089834966      -26.5187529728      -43.0862888508  TIP3      16863           0.0000000000
     72841     17055  TIP3      H2             18.3882869338      -25.1753350406      -42.4020744722  TIP3      16863           0.0000000000
     72842     17056  TIP3      OH2             7.5447396193      -31.4997357500      -26.4712575089  TIP3      16864           0.0000000000
     72843     17056  TIP3      H1              7.6733947092      -32.2085192918      -27.1240482034  TIP3      16864           0.0000000000
     72844     17056  TIP3      H2              7.5216239911      -30.6910176085      -27.0311142662  TIP3      16864           0.0000000000
     72845     17057  TIP3      OH2             7.9691218871      -33.1100884492      -28.9653064056  TIP3      16865           0.0000000000
     72846     17057  TIP3      H1              8.4819824575      -32.6146992096      -29.6462149794  TIP3      16865           0.0000000000
     72847     17057  TIP3      H2              7.0725128288      -33.1996227943      -29.3671092675  TIP3      16865           0.0000000000
     72848     17058  TIP3      OH2             9.5165211955      -27.6132132087      -28.6653824898  TIP3      16866           0.0000000000
     72849     17058  TIP3      H1             10.2610459446      -27.7891238712      -29.2495457051  TIP3      16866           0.0000000000
     72850     17058  TIP3      H2              9.1421369956      -26.7923191805      -29.0205909651  TIP3      16866           0.0000000000
     72851     17059  TIP3      OH2            13.8813971168      -29.8249560883      -23.6608329191  TIP3      16867           0.0000000000
     72852     17059  TIP3      H1             14.0863067933      -30.7664255790      -23.7980632922  TIP3      16867           0.0000000000
     72853     17059  TIP3      H2             14.7548042920      -29.4201640143      -23.7601379863  TIP3      16867           0.0000000000
     72854     17060  TIP3      OH2            15.2242872482      -27.0695812023      -25.5829392398  TIP3      16868           0.0000000000
     72855     17060  TIP3      H1             15.0152469121      -26.3428555707      -26.2024956377  TIP3      16868           0.0000000000
     72856     17060  TIP3      H2             16.1897101428      -27.1183355080      -25.7321898707  TIP3      16868           0.0000000000
     72857     17061  TIP3      OH2             6.0247722688      -30.2633910438      -24.5296111158  TIP3      16869           0.0000000000
     72858     17061  TIP3      H1              5.2592161611      -30.8362532392      -24.7315997562  TIP3      16869           0.0000000000
     72859     17061  TIP3      H2              6.6719758050      -30.6074345729      -25.1836948173  TIP3      16869           0.0000000000
     72860     17062  TIP3      OH2             8.6126018025      -35.4955266689      -28.2501853097  TIP3      16870           0.0000000000
     72861     17062  TIP3      H1              8.5619030879      -34.5532124822      -28.5528581005  TIP3      16870           0.0000000000
     72862     17062  TIP3      H2              8.0341379628      -35.9009256942      -28.9109205618  TIP3      16870           0.0000000000
     72863     17063  TIP3      OH2            10.0102461242      -31.3704176162      -24.9615005222  TIP3      16871           0.0000000000
     72864     17063  TIP3      H1              9.7316401662      -31.6391707477      -24.0618841003  TIP3      16871           0.0000000000
     72865     17063  TIP3      H2              9.2083470548      -31.5689438191      -25.4815324126  TIP3      16871           0.0000000000
     72866     17064  TIP3      OH2            12.7490445645      -32.2067466743      -25.8609332882  TIP3      16872           0.0000000000
     72867     17064  TIP3      H1             11.7848122657      -32.1757866908      -25.7293065686  TIP3      16872           0.0000000000
     72868     17064  TIP3      H2             13.0438124782      -32.8200382875      -25.1548903995  TIP3      16872           0.0000000000
     72869     17065  TIP3      OH2            14.2398430148      -33.4139215613      -23.8727370709  TIP3      16873           0.0000000000
     72870     17065  TIP3      H1             14.2785581196      -34.4066583855      -23.9139756387  TIP3      16873           0.0000000000
     72871     17065  TIP3      H2             14.0578709387      -33.2873317747      -22.9484926704  TIP3      16873           0.0000000000
     72872     17066  TIP3      OH2             4.1440517734      -32.3042330910      -24.7798374845  TIP3      16874           0.0000000000
     72873     17066  TIP3      H1              4.3731889999      -33.0203712404      -25.4116531337  TIP3      16874           0.0000000000
     72874     17066  TIP3      H2              4.0084243645      -32.8349337214      -23.9806615517  TIP3      16874           0.0000000000
     72875     17067  TIP3      OH2             8.9919694371       36.6994213863      -25.7748545760  TIP3      16875           0.0000000000
     72876     17067  TIP3      H1              9.6620865285       36.0248945317      -25.8168531283  TIP3      16875           0.0000000000
     72877     17067  TIP3      H2              8.8348596729       36.9201695989      -26.7152287700  TIP3      16875           0.0000000000
     72878     17068  TIP3      OH2             9.3335748459      -34.6167963611      -23.7961202928  TIP3      16876           0.0000000000
     72879     17068  TIP3      H1              9.1765123560      -35.1404468177      -24.6023915370  TIP3      16876           0.0000000000
     72880     17068  TIP3      H2              8.7420626567      -33.8572104321      -23.8692935563  TIP3      16876           0.0000000000
     72881     17069  TIP3      OH2             8.8041060716      -17.7550073253      -40.5473920453  TIP3      16877           0.0000000000
     72882     17069  TIP3      H1              9.7708012349      -17.6713805267      -40.4811192818  TIP3      16877           0.0000000000
     72883     17069  TIP3      H2              8.6548482834      -17.1543360177      -41.2879007286  TIP3      16877           0.0000000000
     72884     17070  TIP3      OH2             2.3538856459      -23.1841915907      -41.0790177124  TIP3      16878           0.0000000000
     72885     17070  TIP3      H1              3.3209207900      -23.0895495994      -40.8989029372  TIP3      16878           0.0000000000
     72886     17070  TIP3      H2              2.4043985407      -23.8273904898      -41.8257253388  TIP3      16878           0.0000000000
     72887     17071  TIP3      OH2             1.1368807420      -17.7985364985      -36.1150745245  TIP3      16879           0.0000000000
     72888     17071  TIP3      H1              0.4165019711      -18.2841958120      -36.5737074672  TIP3      16879           0.0000000000
     72889     17071  TIP3      H2              1.4166781187      -18.4514588172      -35.4481993602  TIP3      16879           0.0000000000
     72890     17072  TIP3      OH2             1.9588731278      -19.6628611182      -34.2354082754  TIP3      16880           0.0000000000
     72891     17072  TIP3      H1              1.6032996687      -20.5384647291      -34.0286117057  TIP3      16880           0.0000000000
     72892     17072  TIP3      H2              2.1846833769      -19.3307231943      -33.3507946611  TIP3      16880           0.0000000000
     72893     17073  TIP3      OH2            19.4990177083      -18.8665853507      -31.3123727286  TIP3      16881           0.0000000000
     72894     17073  TIP3      H1             19.5307629097      -18.7062492266      -30.3537351360  TIP3      16881           0.0000000000
     72895     17073  TIP3      H2             20.2027056781      -18.2826779427      -31.6127110112  TIP3      16881           0.0000000000
     72896     17074  TIP3      OH2            19.0880756148      -19.2754676770      -28.3866197068  TIP3      16882           0.0000000000
     72897     17074  TIP3      H1             18.5924130652      -20.0444189248      -28.7370942179  TIP3      16882           0.0000000000
     72898     17074  TIP3      H2             19.5858639250      -19.7173629578      -27.6766600089  TIP3      16882           0.0000000000
     72899     17075  TIP3      OH2            17.5194395141      -23.4978221556      -23.7415420682  TIP3      16883           0.0000000000
     72900     17075  TIP3      H1             16.6944729200      -23.6239913830      -23.2575390857  TIP3      16883           0.0000000000
     72901     17075  TIP3      H2             17.9242135220      -22.7636906818      -23.2220799462  TIP3      16883           0.0000000000
     72902     17076  TIP3      OH2            18.8311685037      -25.2184779422      -38.2616350288  TIP3      16884           0.0000000000
     72903     17076  TIP3      H1             19.6986557037      -24.8281083926      -38.0746603052  TIP3      16884           0.0000000000
     72904     17076  TIP3      H2             18.8153329281      -25.9377135713      -37.5924922042  TIP3      16884           0.0000000000
     72905     17077  TIP3      OH2            19.1923464679      -27.1422327054      -36.3699306089  TIP3      16885           0.0000000000
     72906     17077  TIP3      H1             18.4406426540      -27.6418819652      -35.9790010442  TIP3      16885           0.0000000000
     72907     17077  TIP3      H2             19.7898948716      -27.0124239931      -35.6074077344  TIP3      16885           0.0000000000
     72908     17078  TIP3      OH2            18.9475667362      -24.4538203399      -31.3934427376  TIP3      16886           0.0000000000
     72909     17078  TIP3      H1             19.7636637164      -24.8282573136      -31.7700543234  TIP3      16886           0.0000000000
     72910     17078  TIP3      H2             19.0934691735      -23.4987779384      -31.5603652989  TIP3      16886           0.0000000000
     72911     17079  TIP3      OH2            17.5018708255      -21.5330647026      -29.1291117915  TIP3      16887           0.0000000000
     72912     17079  TIP3      H1             16.8165827619      -21.2005951438      -28.5327435293  TIP3      16887           0.0000000000
     72913     17079  TIP3      H2             16.9579591642      -21.9449229676      -29.8321023681  TIP3      16887           0.0000000000
     72914     17080  TIP3      OH2            19.4922306472      -27.3198351112      -39.9815321126  TIP3      16888           0.0000000000
     72915     17080  TIP3      H1             18.9256794133      -26.9790786972      -40.7054680460  TIP3      16888           0.0000000000
     72916     17080  TIP3      H2             19.3922424222      -26.6064803110      -39.3237897934  TIP3      16888           0.0000000000
     72917     17081  TIP3      OH2            17.8729791505      -30.0901045111      -41.4707099799  TIP3      16889           0.0000000000
     72918     17081  TIP3      H1             17.9431952871      -29.4240814074      -42.1651184908  TIP3      16889           0.0000000000
     72919     17081  TIP3      H2             17.6807357343      -30.9116802592      -41.9639281847  TIP3      16889           0.0000000000
     72920     17082  TIP3      OH2            17.0120676240      -28.6701197983      -35.7986900689  TIP3      16890           0.0000000000
     72921     17082  TIP3      H1             16.8645793217      -29.6247562013      -35.8432475193  TIP3      16890           0.0000000000
     72922     17082  TIP3      H2             16.6817060298      -28.4578596265      -34.9053077264  TIP3      16890           0.0000000000
     72923     17083  TIP3      OH2             2.0155440362      -26.5854641731      -31.7417714207  TIP3      16891           0.0000000000
     72924     17083  TIP3      H1              2.1927761940      -26.6663552325      -32.7040372152  TIP3      16891           0.0000000000
     72925     17083  TIP3      H2              2.9110192446      -26.7620212551      -31.3899541518  TIP3      16891           0.0000000000
     72926     17084  TIP3      OH2            17.8656157301      -26.6894732478      -26.0881245192  TIP3      16892           0.0000000000
     72927     17084  TIP3      H1             18.4785766147      -27.4441900428      -25.9877887871  TIP3      16892           0.0000000000
     72928     17084  TIP3      H2             18.4773765442      -25.9235143943      -26.1405000928  TIP3      16892           0.0000000000
     72929     17085  TIP3      OH2            19.3973009205      -28.8020453492      -25.5029712052  TIP3      16893           0.0000000000
     72930     17085  TIP3      H1             18.5005312702      -29.1865565292      -25.6187036392  TIP3      16893           0.0000000000
     72931     17085  TIP3      H2             19.9345390542      -29.6106469776      -25.5462384409  TIP3      16893           0.0000000000
     72932     17086  TIP3      OH2            17.1132426953      -32.6096894464      -42.3154518378  TIP3      16894           0.0000000000
     72933     17086  TIP3      H1             17.7046288287      -33.0528568723      -41.6773181333  TIP3      16894           0.0000000000
     72934     17086  TIP3      H2             16.2538556435      -33.0466595882      -42.1762349488  TIP3      16894           0.0000000000
     72935     17087  TIP3      OH2            16.6562480598      -31.0747817213      -37.3891548535  TIP3      16895           0.0000000000
     72936     17087  TIP3      H1             16.9729471600      -31.9912821614      -37.2313663849  TIP3      16895           0.0000000000
     72937     17087  TIP3      H2             17.4803344545      -30.6727257379      -37.6936903958  TIP3      16895           0.0000000000
     72938     17088  TIP3      OH2            17.3169791581      -30.5204814561      -31.9098758054  TIP3      16896           0.0000000000
     72939     17088  TIP3      H1             18.2815457946      -30.3079089114      -31.9207445877  TIP3      16896           0.0000000000
     72940     17088  TIP3      H2             17.1331985768      -30.4056625182      -30.9627669268  TIP3      16896           0.0000000000
     72941     17089  TIP3      OH2            17.3711813600      -29.7994589932      -29.1626230430  TIP3      16897           0.0000000000
     72942     17089  TIP3      H1             16.5110739770      -29.5227875227      -28.7789684382  TIP3      16897           0.0000000000
     72943     17089  TIP3      H2             17.8187405234      -28.9434803512      -29.3487514202  TIP3      16897           0.0000000000
     72944     17090  TIP3      OH2             1.6601257398      -31.3054163379      -25.6437993454  TIP3      16898           0.0000000000
     72945     17090  TIP3      H1              2.5785340296      -31.5367791499      -25.4293447390  TIP3      16898           0.0000000000
     72946     17090  TIP3      H2              1.1862956558      -32.1013117936      -25.3127645601  TIP3      16898           0.0000000000
     72947     17091  TIP3      OH2            19.6895160136      -35.7912144243      -23.7940088100  TIP3      16899           0.0000000000
     72948     17091  TIP3      H1             19.9465032746      -36.4540604135      -24.4476722733  TIP3      16899           0.0000000000
     72949     17091  TIP3      H2             19.6945731853      -34.9353575518      -24.2786696656  TIP3      16899           0.0000000000
     72950     17092  TIP3      OH2            17.3433478715      -33.7688083949      -37.2935768148  TIP3      16900           0.0000000000
     72951     17092  TIP3      H1             17.5479548194      -34.2423695917      -36.4563617803  TIP3      16900           0.0000000000
     72952     17092  TIP3      H2             16.7662326147      -34.4178174633      -37.7622549956  TIP3      16900           0.0000000000
     72953     17093  TIP3      OH2             2.8030208519      -32.9414106028      -32.7811579325  TIP3      16901           0.0000000000
     72954     17093  TIP3      H1              3.2380866723      -33.7848422639      -32.5056941175  TIP3      16901           0.0000000000
     72955     17093  TIP3      H2              3.3778906557      -32.2922084344      -32.3585890352  TIP3      16901           0.0000000000
     72956     17094  TIP3      OH2             1.1185730286      -29.9988293497      -31.7051727040  TIP3      16902           0.0000000000
     72957     17094  TIP3      H1              1.6836429139      -30.2451507582      -32.4650638678  TIP3      16902           0.0000000000
     72958     17094  TIP3      H2              1.5817808553      -29.1907854511      -31.4304839867  TIP3      16902           0.0000000000
     72959     17095  TIP3      OH2            19.2053451521      -33.7027702915      -25.4495446817  TIP3      16903           0.0000000000
     72960     17095  TIP3      H1             18.2733737617      -33.4077476822      -25.5064647207  TIP3      16903           0.0000000000
     72961     17095  TIP3      H2             19.2454831278      -34.2322031460      -26.2578663392  TIP3      16903           0.0000000000
     72962     17096  TIP3      OH2            19.1931164922      -33.7600628731      -40.7352860029  TIP3      16904           0.0000000000
     72963     17096  TIP3      H1             19.5723951902      -34.4858861953      -41.2838309653  TIP3      16904           0.0000000000
     72964     17096  TIP3      H2             19.9050808147      -33.1111902416      -40.7081556847  TIP3      16904           0.0000000000
     72965     17097  TIP3      OH2             1.4922950777      -33.7590783074      -37.5996320330  TIP3      16905           0.0000000000
     72966     17097  TIP3      H1              0.5512075098      -33.5754005836      -37.7791523489  TIP3      16905           0.0000000000
     72967     17097  TIP3      H2              1.9076808107      -33.2765114078      -38.3398046988  TIP3      16905           0.0000000000
     72968     17098  TIP3      OH2            16.2166607284      -18.7581153792      -35.6645081283  TIP3      16906           0.0000000000
     72969     17098  TIP3      H1             16.8896226327      -19.0812444589      -36.2926866213  TIP3      16906           0.0000000000
     72970     17098  TIP3      H2             16.7589098449      -18.2836990617      -35.0244093712  TIP3      16906           0.0000000000
     72971     17099  TIP3      OH2             1.4398831258      -34.9969795232      -29.3182702119  TIP3      16907           0.0000000000
     72972     17099  TIP3      H1              0.7618622491      -35.2416329894      -28.6687473265  TIP3      16907           0.0000000000
     72973     17099  TIP3      H2              0.9557395295      -34.4021047677      -29.9185754421  TIP3      16907           0.0000000000
     72974     17100  TIP3      OH2             6.5599849865      -20.8714523777      -28.8932882604  TIP3      16908           0.0000000000
     72975     17100  TIP3      H1              6.2450726692      -20.0027954530      -29.1851846849  TIP3      16908           0.0000000000
     72976     17100  TIP3      H2              7.4917754974      -20.7946742812      -29.1958966022  TIP3      16908           0.0000000000
     72977     17101  TIP3      OH2            10.9037092546      -19.4990923780      -25.9351082610  TIP3      16909           0.0000000000
     72978     17101  TIP3      H1             11.0817708429      -19.8245743834      -25.0447472193  TIP3      16909           0.0000000000
     72979     17101  TIP3      H2             11.7728414409      -19.1547225380      -26.2336390827  TIP3      16909           0.0000000000
     72980     17102  TIP3      OH2            13.1638953290      -18.2162339222      -26.6054232475  TIP3      16910           0.0000000000
     72981     17102  TIP3      H1             13.8968770566      -18.7537725331      -26.9534540725  TIP3      16910           0.0000000000
     72982     17102  TIP3      H2             13.5982309550      -17.7155289568      -25.9163650708  TIP3      16910           0.0000000000
     72983     17103  TIP3      OH2            18.2082237790      -35.5341714763      -27.6847421899  TIP3      16911           0.0000000000
     72984     17103  TIP3      H1             17.3532038555      -35.2440512653      -28.0417471534  TIP3      16911           0.0000000000
     72985     17103  TIP3      H2             18.3495375670      -36.4018060496      -28.1187134432  TIP3      16911           0.0000000000
     72986     17104  TIP3      OH2             3.9941810347      -17.6442617268      -28.9090047179  TIP3      16912           0.0000000000
     72987     17104  TIP3      H1              3.2536479066      -17.1476724072      -29.2955169812  TIP3      16912           0.0000000000
     72988     17104  TIP3      H2              3.6815537399      -17.8131768916      -28.0153486827  TIP3      16912           0.0000000000
     72989     17105  TIP3      OH2             6.4696508279      -18.0698365172      -29.8259573690  TIP3      16913           0.0000000000
     72990     17105  TIP3      H1              5.5752666934      -17.9168308855      -29.4363082250  TIP3      16913           0.0000000000
     72991     17105  TIP3      H2              6.4142707724      -17.4755071597      -30.5980308819  TIP3      16913           0.0000000000
     72992     17106  TIP3      OH2            11.2340076376      -18.1136495190      -30.6980123730  TIP3      16914           0.0000000000
     72993     17106  TIP3      H1             10.6523251017      -17.6095707286      -31.2861574265  TIP3      16914           0.0000000000
     72994     17106  TIP3      H2             11.2721554949      -17.5416686103      -29.8923182340  TIP3      16914           0.0000000000
     72995     17107  TIP3      OH2            13.4503444890      -19.3437904405      -29.6378114381  TIP3      16915           0.0000000000
     72996     17107  TIP3      H1             12.5889450533      -19.0714835785      -29.9855614589  TIP3      16915           0.0000000000
     72997     17107  TIP3      H2             13.9434776531      -18.5146758038      -29.7119434678  TIP3      16915           0.0000000000
     72998     17108  TIP3      OH2            15.9897878656      -17.7572813141      -29.4078159661  TIP3      16916           0.0000000000
     72999     17108  TIP3      H1             16.0398824695      -16.7936490971      -29.6185077848  TIP3      16916           0.0000000000
     73000     17108  TIP3      H2             16.2746278283      -18.1515530559      -30.2597761175  TIP3      16916           0.0000000000
     73001     17109  TIP3      OH2             3.4594534880      -18.9908925971      -31.9520351120  TIP3      16917           0.0000000000
     73002     17109  TIP3      H1              3.3697300930      -19.4541525866      -31.0915667205  TIP3      16917           0.0000000000
     73003     17109  TIP3      H2              4.2712606449      -19.3709762557      -32.3447460283  TIP3      16917           0.0000000000
     73004     17110  TIP3      OH2             5.5320782033      -20.2775311952      -33.3043271144  TIP3      16918           0.0000000000
     73005     17110  TIP3      H1              5.3674238942      -21.2111662622      -33.0705332176  TIP3      16918           0.0000000000
     73006     17110  TIP3      H2              6.3875282129      -20.1229159528      -32.8518691857  TIP3      16918           0.0000000000
     73007     17111  TIP3      OH2             8.1417969549      -19.7906407953      -32.4273508145  TIP3      16919           0.0000000000
     73008     17111  TIP3      H1              8.2901890538      -20.7162034583      -32.6902204023  TIP3      16919           0.0000000000
     73009     17111  TIP3      H2              8.1790826731      -19.8504709484      -31.4607867458  TIP3      16919           0.0000000000
     73010     17112  TIP3      OH2            11.4701852077      -34.0779445267      -33.3025883165  TIP3      16920           0.0000000000
     73011     17112  TIP3      H1             10.8836868063      -34.7985313883      -33.0232281446  TIP3      16920           0.0000000000
     73012     17112  TIP3      H2             12.1504730067      -34.5710409602      -33.7996486690  TIP3      16920           0.0000000000
     73013     17113  TIP3      OH2            16.7290132878      -36.0664319863      -33.1919615961  TIP3      16921           0.0000000000
     73014     17113  TIP3      H1             17.3499276147      -35.5147705404      -33.7150624176  TIP3      16921           0.0000000000
     73015     17113  TIP3      H2             15.8632154579      -35.7228219238      -33.4306246271  TIP3      16921           0.0000000000
     73016     17114  TIP3      OH2            18.4174809920      -34.8133740737      -34.9455913454  TIP3      16922           0.0000000000
     73017     17114  TIP3      H1             19.0501626749      -35.4098167572      -35.3611871471  TIP3      16922           0.0000000000
     73018     17114  TIP3      H2             18.9240170099      -33.9789630036      -34.8614104477  TIP3      16922           0.0000000000
     73019     17115  TIP3      OH2             3.9251354787      -35.4828871349      -35.4171219709  TIP3      16923           0.0000000000
     73020     17115  TIP3      H1              3.1576468598      -35.7210896790      -35.9564983136  TIP3      16923           0.0000000000
     73021     17115  TIP3      H2              4.4065326871      -36.3299460877      -35.3863272134  TIP3      16923           0.0000000000
     73022     17116  TIP3      OH2             2.7529689049      -35.7623598914      -39.7070236839  TIP3      16924           0.0000000000
     73023     17116  TIP3      H1              3.1715354943      -35.1109903085      -40.2848815090  TIP3      16924           0.0000000000
     73024     17116  TIP3      H2              2.1189075654      -35.2146955190      -39.2295830412  TIP3      16924           0.0000000000
     73025     17117  TIP3      OH2             8.4927323736      -35.6591120799      -35.6646562063  TIP3      16925           0.0000000000
     73026     17117  TIP3      H1              9.3452054316      -35.1967254794      -35.7029895322  TIP3      16925           0.0000000000
     73027     17117  TIP3      H2              8.3927259125      -35.8139258337      -34.7191533567  TIP3      16925           0.0000000000
     73028     17118  TIP3      OH2            13.8816040171      -35.2033327569      -33.8741121735  TIP3      16926           0.0000000000
     73029     17118  TIP3      H1             14.0171116213      -35.2445900267      -34.8237217160  TIP3      16926           0.0000000000
     73030     17118  TIP3      H2             13.7909277839      -36.1787047634      -33.7373317055  TIP3      16926           0.0000000000
     73031     17119  TIP3      OH2            15.4202147658      -35.5011054597      -38.3137264858  TIP3      16927           0.0000000000
     73032     17119  TIP3      H1             14.6648554196      -34.9355058072      -38.5346920132  TIP3      16927           0.0000000000
     73033     17119  TIP3      H2             15.0132160666      -36.3628098404      -38.1604044874  TIP3      16927           0.0000000000
     73034     17120  TIP3      OH2             2.6409360089      -19.8160015797      -38.6891915948  TIP3      16928           0.0000000000
     73035     17120  TIP3      H1              1.9839786415      -19.8301757331      -39.4093396084  TIP3      16928           0.0000000000
     73036     17120  TIP3      H2              2.6380535753      -18.8608934292      -38.5179782846  TIP3      16928           0.0000000000
     73037     17121  TIP3      OH2             4.5284245990      -33.8748494072      -41.2038411774  TIP3      16929           0.0000000000
     73038     17121  TIP3      H1              5.1039263100      -34.4506208044      -41.7309314809  TIP3      16929           0.0000000000
     73039     17121  TIP3      H2              5.1670869870      -33.5079548411      -40.5594503198  TIP3      16929           0.0000000000
     73040     17122  TIP3      OH2             9.5031419385      -33.5792657373      -38.7534126377  TIP3      16930           0.0000000000
     73041     17122  TIP3      H1              9.8642918899      -34.1461611252      -38.0492154306  TIP3      16930           0.0000000000
     73042     17122  TIP3      H2              9.6613875453      -32.7061129255      -38.3260591331  TIP3      16930           0.0000000000
     73043     17123  TIP3      OH2            11.5144215200      -18.5062303265      -40.3595003247  TIP3      16931           0.0000000000
     73044     17123  TIP3      H1             12.4316478644      -18.2784476609      -40.5807313652  TIP3      16931           0.0000000000
     73045     17123  TIP3      H2             11.2959737974      -19.0278619624      -41.1608085864  TIP3      16931           0.0000000000
     73046     17124  TIP3      OH2            18.2238245822      -18.9975373859      -37.6387748316  TIP3      16932           0.0000000000
     73047     17124  TIP3      H1             18.0258575566      -19.7817921342      -38.2052020428  TIP3      16932           0.0000000000
     73048     17124  TIP3      H2             18.1168672003      -18.2661006547      -38.2769553178  TIP3      16932           0.0000000000
     73049     17125  TIP3      OH2             3.7723477450      -35.0138972137      -26.1494193446  TIP3      16933           0.0000000000
     73050     17125  TIP3      H1              3.4103427821      -35.7168916519      -25.5953517529  TIP3      16933           0.0000000000
     73051     17125  TIP3      H2              4.6499016793      -34.9788680071      -25.6963149590  TIP3      16933           0.0000000000
     73052     17126  TIP3      OH2             5.5910191353      -35.4066353642      -24.4796875022  TIP3      16934           0.0000000000
     73053     17126  TIP3      H1              6.5328628910      -35.5956535403      -24.6056810116  TIP3      16934           0.0000000000
     73054     17126  TIP3      H2              5.4098472933      -36.2306012576      -23.9854284443  TIP3      16934           0.0000000000
     73055     17127  TIP3      OH2             4.4345328981      -18.8281632556      -41.7484179388  TIP3      16935           0.0000000000
     73056     17127  TIP3      H1              4.1763905958      -18.5701454134      -40.8517595880  TIP3      16935           0.0000000000
     73057     17127  TIP3      H2              5.2179990984      -19.3916363655      -41.5939256376  TIP3      16935           0.0000000000
     73058     17128  TIP3      OH2            14.1777899562       37.1032197090      -24.3225599370  TIP3      16936           0.0000000000
     73059     17128  TIP3      H1             14.1933645822       36.5503201567      -23.5048646094  TIP3      16936           0.0000000000
     73060     17128  TIP3      H2             15.0705256388       36.8403164250      -24.6048948612  TIP3      16936           0.0000000000
     73061     17129  TIP3      OH2            17.4611333217      -20.2578691438      -25.5998865030  TIP3      16937           0.0000000000
     73062     17129  TIP3      H1             16.6498116855      -20.3906038031      -26.1289595191  TIP3      16937           0.0000000000
     73063     17129  TIP3      H2             17.3914010720      -19.3247347228      -25.3664114718  TIP3      16937           0.0000000000
     73064     17130  TIP3      OH2            31.9003721644      -26.3929390011      -35.5836361312  TIP3      16938           0.0000000000
     73065     17130  TIP3      H1             31.9043401688      -25.4087739927      -35.6089165010  TIP3      16938           0.0000000000
     73066     17130  TIP3      H2             31.1726932489      -26.6141703210      -36.1860252033  TIP3      16938           0.0000000000
     73067     17131  TIP3      OH2            30.7616998784      -27.1242403529      -32.0846036645  TIP3      16939           0.0000000000
     73068     17131  TIP3      H1             30.7409122475      -27.7702071528      -31.3645848944  TIP3      16939           0.0000000000
     73069     17131  TIP3      H2             30.4281911317      -27.6361632593      -32.8422713887  TIP3      16939           0.0000000000
     73070     17132  TIP3      OH2            23.1091699068      -27.4440389211      -30.5298146648  TIP3      16940           0.0000000000
     73071     17132  TIP3      H1             23.1952748462      -28.1338476133      -29.8388005120  TIP3      16940           0.0000000000
     73072     17132  TIP3      H2             23.8602099035      -26.8751124560      -30.3084383005  TIP3      16940           0.0000000000
     73073     17133  TIP3      OH2            34.4642644832      -24.1970527167      -33.7854923592  TIP3      16941           0.0000000000
     73074     17133  TIP3      H1             34.0384804122      -24.9067007513      -33.2964992818  TIP3      16941           0.0000000000
     73075     17133  TIP3      H2             34.4672036057      -23.4768009280      -33.1347759514  TIP3      16941           0.0000000000
     73076     17134  TIP3      OH2            24.0359015237      -22.9956852252      -32.0350740439  TIP3      16942           0.0000000000
     73077     17134  TIP3      H1             23.7255619680      -23.8673187727      -32.3479623249  TIP3      16942           0.0000000000
     73078     17134  TIP3      H2             24.9910179219      -23.1803054865      -31.9848069159  TIP3      16942           0.0000000000
     73079     17135  TIP3      OH2            20.6737491390      -29.4441352367      -36.5373932147  TIP3      16943           0.0000000000
     73080     17135  TIP3      H1             20.2357396194      -28.5771914132      -36.6023706759  TIP3      16943           0.0000000000
     73081     17135  TIP3      H2             20.1133501614      -29.9836863254      -37.1094109991  TIP3      16943           0.0000000000
     73082     17136  TIP3      OH2            21.3890154214      -27.2001195038      -34.3918377151  TIP3      16944           0.0000000000
     73083     17136  TIP3      H1             21.6574717911      -28.0278545185      -33.9447211150  TIP3      16944           0.0000000000
     73084     17136  TIP3      H2             22.0815626804      -27.1063652096      -35.0621902592  TIP3      16944           0.0000000000
     73085     17137  TIP3      OH2            31.5704566756      -19.0146735317      -33.5695772122  TIP3      16945           0.0000000000
     73086     17137  TIP3      H1             32.2106416422      -19.7145430406      -33.8465923270  TIP3      16945           0.0000000000
     73087     17137  TIP3      H2             31.3330180472      -19.3525454788      -32.7012946426  TIP3      16945           0.0000000000
     73088     17138  TIP3      OH2            29.1400803551      -24.7259670852      -31.6063747239  TIP3      16946           0.0000000000
     73089     17138  TIP3      H1             29.4719001652      -25.3495102764      -32.2670210797  TIP3      16946           0.0000000000
     73090     17138  TIP3      H2             29.9520143587      -24.5663921944      -31.0943935276  TIP3      16946           0.0000000000
     73091     17139  TIP3      OH2            32.3149863070      -30.2445955085      -31.2902671267  TIP3      16947           0.0000000000
     73092     17139  TIP3      H1             32.4649519662      -31.2136256292      -31.3030542167  TIP3      16947           0.0000000000
     73093     17139  TIP3      H2             32.2086200108      -30.0972407034      -32.2507988965  TIP3      16947           0.0000000000
     73094     17140  TIP3      OH2            25.4245743467      -32.1521821282      -34.0810248650  TIP3      16948           0.0000000000
     73095     17140  TIP3      H1             25.5242570024      -31.3209765789      -34.5837508129  TIP3      16948           0.0000000000
     73096     17140  TIP3      H2             25.0105933665      -32.7229728925      -34.7586940375  TIP3      16948           0.0000000000
     73097     17141  TIP3      OH2            33.1665692079      -32.0520607765      -35.6891352504  TIP3      16949           0.0000000000
     73098     17141  TIP3      H1             33.8158886420      -32.3872880893      -35.0242015438  TIP3      16949           0.0000000000
     73099     17141  TIP3      H2             33.7535926836      -31.5306126964      -36.2452469168  TIP3      16949           0.0000000000
     73100     17142  TIP3      OH2            22.0332934419      -29.7528255388      -33.3438085144  TIP3      16950           0.0000000000
     73101     17142  TIP3      H1             22.7060851287      -30.2971146464      -32.8918736726  TIP3      16950           0.0000000000
     73102     17142  TIP3      H2             22.1417696907      -30.0690834340      -34.2563198899  TIP3      16950           0.0000000000
     73103     17143  TIP3      OH2            27.1938865221      -28.1985721782      -34.0263853747  TIP3      16951           0.0000000000
     73104     17143  TIP3      H1             27.8678577384      -28.7799641998      -33.6339505099  TIP3      16951           0.0000000000
     73105     17143  TIP3      H2             26.6774549640      -28.8565257260      -34.5328177610  TIP3      16951           0.0000000000
     73106     17144  TIP3      OH2            24.3364545719      -33.2085014538      -30.0569283886  TIP3      16952           0.0000000000
     73107     17144  TIP3      H1             24.0096278472      -32.6765979520      -30.8081568373  TIP3      16952           0.0000000000
     73108     17144  TIP3      H2             23.6297943032      -33.0362666117      -29.3827749158  TIP3      16952           0.0000000000
     73109     17145  TIP3      OH2            31.5947108704      -23.8030500146      -36.5031698120  TIP3      16953           0.0000000000
     73110     17145  TIP3      H1             31.3411465845      -24.0642169113      -37.3942887702  TIP3      16953           0.0000000000
     73111     17145  TIP3      H2             31.2990367950      -22.8641257409      -36.4431395418  TIP3      16953           0.0000000000
     73112     17146  TIP3      OH2            26.8356529655      -25.6241052583      -29.8046098290  TIP3      16954           0.0000000000
     73113     17146  TIP3      H1             26.1328915141      -24.9785682743      -29.5837851292  TIP3      16954           0.0000000000
     73114     17146  TIP3      H2             27.5428339611      -25.0249103433      -30.0931746227  TIP3      16954           0.0000000000
     73115     17147  TIP3      OH2            34.6655220879      -32.8191614029      -33.6196104323  TIP3      16955           0.0000000000
     73116     17147  TIP3      H1             34.6767596584      -33.5979257993      -33.0607247866  TIP3      16955           0.0000000000
     73117     17147  TIP3      H2             35.4181031261      -32.3240476289      -33.2236252080  TIP3      16955           0.0000000000
     73118     17148  TIP3      OH2            23.8811738143      -31.3606722038      -32.0306960482  TIP3      16956           0.0000000000
     73119     17148  TIP3      H1             24.5343592588      -30.7153076103      -31.6899353026  TIP3      16956           0.0000000000
     73120     17148  TIP3      H2             24.4010139164      -31.8077846066      -32.7452421874  TIP3      16956           0.0000000000
     73121     17149  TIP3      OH2            25.2876816276      -23.6223922597      -28.9745579045  TIP3      16957           0.0000000000
     73122     17149  TIP3      H1             25.2410014039      -22.7092657017      -29.3189378712  TIP3      16957           0.0000000000
     73123     17149  TIP3      H2             24.4006121218      -23.6990204115      -28.5408893295  TIP3      16957           0.0000000000
     73124     17150  TIP3      OH2            21.3633571299      -24.0095965742      -38.1914240991  TIP3      16958           0.0000000000
     73125     17150  TIP3      H1             21.1140220244      -23.6694012779      -39.0682361288  TIP3      16958           0.0000000000
     73126     17150  TIP3      H2             21.4436645065      -23.1823864568      -37.6759668332  TIP3      16958           0.0000000000
     73127     17151  TIP3      OH2            34.7991872950      -22.3983565309      -31.3390178688  TIP3      16959           0.0000000000
     73128     17151  TIP3      H1             33.8341615029      -22.2143407818      -31.2925017757  TIP3      16959           0.0000000000
     73129     17151  TIP3      H2             35.1358286964      -21.5407622369      -31.6466491929  TIP3      16959           0.0000000000
     73130     17152  TIP3      OH2            35.0763034474      -33.8998832368      -30.3048090942  TIP3      16960           0.0000000000
     73131     17152  TIP3      H1             34.3968059779      -33.2219204693      -30.2057875551  TIP3      16960           0.0000000000
     73132     17152  TIP3      H2             35.8645718031      -33.4347534837      -30.6030274939  TIP3      16960           0.0000000000
     73133     17153  TIP3      OH2            28.2381557389      -35.9269100423      -32.7481672731  TIP3      16961           0.0000000000
     73134     17153  TIP3      H1             28.2234422500      -36.8832050079      -32.5855539114  TIP3      16961           0.0000000000
     73135     17153  TIP3      H2             27.4497835094      -35.6563372061      -32.2536648657  TIP3      16961           0.0000000000
     73136     17154  TIP3      OH2            33.1486826104      -20.6240101998      -34.8242364002  TIP3      16962           0.0000000000
     73137     17154  TIP3      H1             33.6373903363      -21.3028299749      -35.3326388932  TIP3      16962           0.0000000000
     73138     17154  TIP3      H2             33.5988954041      -19.8224728516      -35.1761353636  TIP3      16962           0.0000000000
     73139     17155  TIP3      OH2            34.4294659643      -22.6374257749      -36.3211777856  TIP3      16963           0.0000000000
     73140     17155  TIP3      H1             34.1834079543      -23.3488720136      -36.9328958983  TIP3      16963           0.0000000000
     73141     17155  TIP3      H2             34.4928547352      -23.1436515019      -35.4852444664  TIP3      16963           0.0000000000
     73142     17156  TIP3      OH2            35.8000841745      -23.8946777279      -27.7146108840  TIP3      16964           0.0000000000
     73143     17156  TIP3      H1             36.0808746934      -24.5869644923      -28.3439237232  TIP3      16964           0.0000000000
     73144     17156  TIP3      H2             36.1996129740      -23.1302322201      -28.1576627992  TIP3      16964           0.0000000000
     73145     17157  TIP3      OH2            30.5500143699      -27.1542664730      -38.0777994141  TIP3      16965           0.0000000000
     73146     17157  TIP3      H1             29.8621451129      -26.5638172132      -38.4332741380  TIP3      16965           0.0000000000
     73147     17157  TIP3      H2             31.2668846834      -27.0440849015      -38.7289196974  TIP3      16965           0.0000000000
     73148     17158  TIP3      OH2            30.6370286515      -28.5703912312      -41.0578894190  TIP3      16966           0.0000000000
     73149     17158  TIP3      H1             31.3562078516      -28.5869885381      -40.4063920112  TIP3      16966           0.0000000000
     73150     17158  TIP3      H2             30.9407658617      -29.2888152243      -41.6289844866  TIP3      16966           0.0000000000
     73151     17159  TIP3      OH2            33.9707760273      -26.9299398225      -37.1831813137  TIP3      16967           0.0000000000
     73152     17159  TIP3      H1             33.2510705028      -26.6726566215      -36.5605091756  TIP3      16967           0.0000000000
     73153     17159  TIP3      H2             34.4550952551      -27.5650321158      -36.6115837231  TIP3      16967           0.0000000000
     73154     17160  TIP3      OH2            33.9488924290      -28.7539619772      -28.0517794319  TIP3      16968           0.0000000000
     73155     17160  TIP3      H1             33.9070637884      -27.9538027175      -27.5018388580  TIP3      16968           0.0000000000
     73156     17160  TIP3      H2             33.3115348814      -28.4818233129      -28.7376376003  TIP3      16968           0.0000000000
     73157     17161  TIP3      OH2            25.6178596497      -26.2670459376      -35.2301413233  TIP3      16969           0.0000000000
     73158     17161  TIP3      H1             25.2975105115      -26.6609874762      -36.0781223394  TIP3      16969           0.0000000000
     73159     17161  TIP3      H2             26.2314488447      -26.9613014675      -34.8956730994  TIP3      16969           0.0000000000
     73160     17162  TIP3      OH2            26.9371205940      -22.8891102752      -32.5503044217  TIP3      16970           0.0000000000
     73161     17162  TIP3      H1             26.9336009440      -23.4122919756      -33.3610106917  TIP3      16970           0.0000000000
     73162     17162  TIP3      H2             27.7204085766      -23.2425048183      -32.0899170913  TIP3      16970           0.0000000000
     73163     17163  TIP3      OH2            25.9446014818      -27.5242611976      -31.5668683065  TIP3      16971           0.0000000000
     73164     17163  TIP3      H1             26.4952985336      -27.4264479284      -32.3685550610  TIP3      16971           0.0000000000
     73165     17163  TIP3      H2             26.3362911376      -26.8586911718      -30.9582284095  TIP3      16971           0.0000000000
     73166     17164  TIP3      OH2            32.2981272413      -21.9356402190      -30.8755091574  TIP3      16972           0.0000000000
     73167     17164  TIP3      H1             32.0916185677      -21.3138050199      -30.1728815315  TIP3      16972           0.0000000000
     73168     17164  TIP3      H2             32.1084524082      -22.8042204509      -30.4461309963  TIP3      16972           0.0000000000
     73169     17165  TIP3      OH2            26.9036035419      -23.0897060353      -26.8730806866  TIP3      16973           0.0000000000
     73170     17165  TIP3      H1             26.4905039540      -22.3570498481      -26.3727399905  TIP3      16973           0.0000000000
     73171     17165  TIP3      H2             26.2227470072      -23.2909939107      -27.5581016733  TIP3      16973           0.0000000000
     73172     17166  TIP3      OH2            32.8729221640      -27.7500457769      -39.4725361180  TIP3      16974           0.0000000000
     73173     17166  TIP3      H1             33.4273201836      -27.5317070098      -38.6812459252  TIP3      16974           0.0000000000
     73174     17166  TIP3      H2             33.2747349972      -27.2212336399      -40.1912871749  TIP3      16974           0.0000000000
     73175     17167  TIP3      OH2            23.8418916927      -26.9396470937      -27.7000427877  TIP3      16975           0.0000000000
     73176     17167  TIP3      H1             23.8917384609      -26.2720442140      -26.9885862460  TIP3      16975           0.0000000000
     73177     17167  TIP3      H2             22.9101735390      -26.8376204477      -27.9471707723  TIP3      16975           0.0000000000
     73178     17168  TIP3      OH2            30.5869335389      -21.0064776991      -36.0186566170  TIP3      16976           0.0000000000
     73179     17168  TIP3      H1             31.0190789132      -20.7083223941      -35.2070306782  TIP3      16976           0.0000000000
     73180     17168  TIP3      H2             30.0283993668      -20.2576244084      -36.2499055831  TIP3      16976           0.0000000000
     73181     17169  TIP3      OH2            25.1543838293      -21.0581061763      -26.1239810221  TIP3      16977           0.0000000000
     73182     17169  TIP3      H1             25.0880816036      -21.1603532439      -27.0878128495  TIP3      16977           0.0000000000
     73183     17169  TIP3      H2             24.2290289057      -21.1896324305      -25.8364603067  TIP3      16977           0.0000000000
     73184     17170  TIP3      OH2            24.5762410219      -27.2530516268      -37.5983320583  TIP3      16978           0.0000000000
     73185     17170  TIP3      H1             24.3002759314      -26.4683400792      -38.1182171075  TIP3      16978           0.0000000000
     73186     17170  TIP3      H2             23.9317316651      -27.9176528180      -37.8471966525  TIP3      16978           0.0000000000
     73187     17171  TIP3      OH2            20.6821424956      -24.8153611946      -28.7245854000  TIP3      16979           0.0000000000
     73188     17171  TIP3      H1             20.2266893304      -24.9010545037      -29.5787023540  TIP3      16979           0.0000000000
     73189     17171  TIP3      H2             20.7586549526      -25.7626643944      -28.4992928229  TIP3      16979           0.0000000000
     73190     17172  TIP3      OH2            20.4333806285      -22.0749280207      -31.9461620309  TIP3      16980           0.0000000000
     73191     17172  TIP3      H1             21.3908958197      -22.1982467021      -31.9597267327  TIP3      16980           0.0000000000
     73192     17172  TIP3      H2             20.3545795493      -21.2616351780      -31.4330063143  TIP3      16980           0.0000000000
     73193     17173  TIP3      OH2            29.6223870321      -21.8266917091      -27.4281493484  TIP3      16981           0.0000000000
     73194     17173  TIP3      H1             29.7072474992      -21.0180461137      -26.8671089340  TIP3      16981           0.0000000000
     73195     17173  TIP3      H2             28.7813112931      -22.2003284727      -27.1127587301  TIP3      16981           0.0000000000
     73196     17174  TIP3      OH2            30.1130408347      -18.0928988843      -37.5920848700  TIP3      16982           0.0000000000
     73197     17174  TIP3      H1             29.9797255991      -18.1760089531      -38.5549832162  TIP3      16982           0.0000000000
     73198     17174  TIP3      H2             30.0952817293      -17.1295562982      -37.4447618746  TIP3      16982           0.0000000000
     73199     17175  TIP3      OH2            23.6949406337      -19.1959085303      -35.7710841111  TIP3      16983           0.0000000000
     73200     17175  TIP3      H1             23.8651922259      -19.6225984816      -34.9034074504  TIP3      16983           0.0000000000
     73201     17175  TIP3      H2             22.8642766028      -19.6458225944      -36.0046743326  TIP3      16983           0.0000000000
     73202     17176  TIP3      OH2            33.1481692901      -18.8729935375      -40.6283929486  TIP3      16984           0.0000000000
     73203     17176  TIP3      H1             33.5784911005      -19.6434215487      -41.0655129488  TIP3      16984           0.0000000000
     73204     17176  TIP3      H2             33.1659694189      -19.1446690633      -39.6885704509  TIP3      16984           0.0000000000
     73205     17177  TIP3      OH2            32.8064833212      -18.9659255040      -37.8270807897  TIP3      16985           0.0000000000
     73206     17177  TIP3      H1             31.8433687160      -18.8767258703      -37.6595319477  TIP3      16985           0.0000000000
     73207     17177  TIP3      H2             33.0370122594      -19.7072276076      -37.2494102420  TIP3      16985           0.0000000000
     73208     17178  TIP3      OH2            35.3765140233      -29.7006087244      -25.8071171244  TIP3      16986           0.0000000000
     73209     17178  TIP3      H1             35.2858716719      -29.4011364995      -26.7085392454  TIP3      16986           0.0000000000
     73210     17178  TIP3      H2             35.8650416268      -30.5607094981      -25.8956035519  TIP3      16986           0.0000000000
     73211     17179  TIP3      OH2            22.9520374117      -23.5089212359      -27.7883243985  TIP3      16987           0.0000000000
     73212     17179  TIP3      H1             23.1792018260      -23.8663052541      -26.9016452882  TIP3      16987           0.0000000000
     73213     17179  TIP3      H2             22.0821523468      -23.9054520311      -27.9902687633  TIP3      16987           0.0000000000
     73214     17180  TIP3      OH2            25.6192185000      -35.0646393709      -31.7939919261  TIP3      16988           0.0000000000
     73215     17180  TIP3      H1             24.7286181309      -35.1258728049      -32.1922896989  TIP3      16988           0.0000000000
     73216     17180  TIP3      H2             25.5105020832      -34.2079455953      -31.3508904273  TIP3      16988           0.0000000000
     73217     17181  TIP3      OH2            30.2625591562      -35.3284682021      -28.4017328716  TIP3      16989           0.0000000000
     73218     17181  TIP3      H1             30.6902771485      -35.7379979635      -27.6529196198  TIP3      16989           0.0000000000
     73219     17181  TIP3      H2             29.3096031156      -35.4400388579      -28.2273043111  TIP3      16989           0.0000000000
     73220     17182  TIP3      OH2            33.4970596051      -31.5913978697      -27.5842364739  TIP3      16990           0.0000000000
     73221     17182  TIP3      H1             33.0010365054      -31.6881441231      -26.7405903579  TIP3      16990           0.0000000000
     73222     17182  TIP3      H2             33.4386502113      -30.6393730044      -27.7704817902  TIP3      16990           0.0000000000
     73223     17183  TIP3      OH2            34.3770329929      -26.7908870891      -41.6625085336  TIP3      16991           0.0000000000
     73224     17183  TIP3      H1             34.3036369091      -26.9438737599      -42.6320715131  TIP3      16991           0.0000000000
     73225     17183  TIP3      H2             35.1471351407      -26.2227765196      -41.6355968596  TIP3      16991           0.0000000000
     73226     17184  TIP3      OH2            29.9395768137      -32.7855229045      -41.1405905670  TIP3      16992           0.0000000000
     73227     17184  TIP3      H1             29.6055257940      -32.8542611050      -40.2335700233  TIP3      16992           0.0000000000
     73228     17184  TIP3      H2             29.6136529097      -33.6504184078      -41.4555795709  TIP3      16992           0.0000000000
     73229     17185  TIP3      OH2            25.7508438586      -30.0498270379      -30.5619770675  TIP3      16993           0.0000000000
     73230     17185  TIP3      H1             25.0070724067      -30.0638986300      -29.9332792481  TIP3      16993           0.0000000000
     73231     17185  TIP3      H2             25.6983465883      -29.1451610136      -30.9411897228  TIP3      16993           0.0000000000
     73232     17186  TIP3      OH2            25.7071833341      -29.9387010972      -35.7101857553  TIP3      16994           0.0000000000
     73233     17186  TIP3      H1             24.7660785294      -30.1799773821      -35.8409169954  TIP3      16994           0.0000000000
     73234     17186  TIP3      H2             26.0821547502      -30.2311715349      -36.5649828549  TIP3      16994           0.0000000000
     73235     17187  TIP3      OH2            31.2483814048      -29.4196973101      -36.9305097136  TIP3      16995           0.0000000000
     73236     17187  TIP3      H1             30.8343298232      -28.6095549751      -37.3075185346  TIP3      16995           0.0000000000
     73237     17187  TIP3      H2             31.9271964414      -29.5967026280      -37.5988381545  TIP3      16995           0.0000000000
     73238     17188  TIP3      OH2            30.2991032429      -29.2423893642      -25.4891014291  TIP3      16996           0.0000000000
     73239     17188  TIP3      H1             29.7758221655      -30.0184298615      -25.1914006354  TIP3      16996           0.0000000000
     73240     17188  TIP3      H2             31.1394181307      -29.3421278979      -25.0274217798  TIP3      16996           0.0000000000
     73241     17189  TIP3      OH2            32.2322844303      -29.9239638997      -34.0732380704  TIP3      16997           0.0000000000
     73242     17189  TIP3      H1             31.9950278185      -29.3830112899      -34.8439525578  TIP3      16997           0.0000000000
     73243     17189  TIP3      H2             32.3537042478      -30.7822534915      -34.5268014248  TIP3      16997           0.0000000000
     73244     17190  TIP3      OH2            23.3595971131      -29.8003727187      -28.8878088163  TIP3      16998           0.0000000000
     73245     17190  TIP3      H1             23.4590632651      -29.4046576560      -28.0031335029  TIP3      16998           0.0000000000
     73246     17190  TIP3      H2             22.9152403214      -30.6351749585      -28.6788272366  TIP3      16998           0.0000000000
     73247     17191  TIP3      OH2            26.7343372323      -32.3874351754      -42.0241325331  TIP3      16999           0.0000000000
     73248     17191  TIP3      H1             26.2705447968      -32.8284894555      -41.2866478694  TIP3      16999           0.0000000000
     73249     17191  TIP3      H2             26.0284293538      -31.9961014894      -42.5523263337  TIP3      16999           0.0000000000
     73250     17192  TIP3      OH2            20.0322101963      -32.6640052487      -34.9248474779  TIP3      17000           0.0000000000
     73251     17192  TIP3      H1             20.7096537994      -32.7008532178      -34.2157475993  TIP3      17000           0.0000000000
     73252     17192  TIP3      H2             20.4799339463      -33.0575329425      -35.6917478139  TIP3      17000           0.0000000000
     73253     17193  TIP3      OH2            21.2912982128      -31.9580682136      -39.5253207130  TIP3      17001           0.0000000000
     73254     17193  TIP3      H1             21.8033954086      -31.3738004288      -40.1164186525  TIP3      17001           0.0000000000
     73255     17193  TIP3      H2             20.5971489433      -31.3356489673      -39.2335198836  TIP3      17001           0.0000000000
     73256     17194  TIP3      OH2            31.4456519264      -28.3695561580      -29.5462936436  TIP3      17002           0.0000000000
     73257     17194  TIP3      H1             31.8403489761      -29.0638979926      -30.1175624518  TIP3      17002           0.0000000000
     73258     17194  TIP3      H2             30.9789923626      -28.8934353695      -28.8718409109  TIP3      17002           0.0000000000
     73259     17195  TIP3      OH2            28.2630804969      -32.3912750012      -34.7195486996  TIP3      17003           0.0000000000
     73260     17195  TIP3      H1             27.3344998323      -32.3895987404      -34.4043156052  TIP3      17003           0.0000000000
     73261     17195  TIP3      H2             28.7673711662      -32.5442136406      -33.9024098491  TIP3      17003           0.0000000000
     73262     17196  TIP3      OH2            23.0714190033      -30.8325129917      -35.8355405792  TIP3      17004           0.0000000000
     73263     17196  TIP3      H1             22.1860350690      -30.6833263598      -36.2273003607  TIP3      17004           0.0000000000
     73264     17196  TIP3      H2             23.3677231705      -31.6614310404      -36.2495637778  TIP3      17004           0.0000000000
     73265     17197  TIP3      OH2            26.7145396409      -30.7891547314      -38.2083451428  TIP3      17005           0.0000000000
     73266     17197  TIP3      H1             27.6703592109      -30.6831838320      -38.0472272279  TIP3      17005           0.0000000000
     73267     17197  TIP3      H2             26.4765050981      -30.0974500455      -38.8558140474  TIP3      17005           0.0000000000
     73268     17198  TIP3      OH2            32.5887706107      -33.1438623634      -31.4520058862  TIP3      17006           0.0000000000
     73269     17198  TIP3      H1             31.9105702702      -33.0901162679      -30.7552432147  TIP3      17006           0.0000000000
     73270     17198  TIP3      H2             32.1150330468      -33.4227612279      -32.2516650395  TIP3      17006           0.0000000000
     73271     17199  TIP3      OH2            25.4178484747      -29.6094736762      -40.6205190648  TIP3      17007           0.0000000000
     73272     17199  TIP3      H1             24.8854635153      -29.9887006689      -41.3400383913  TIP3      17007           0.0000000000
     73273     17199  TIP3      H2             26.2394849275      -29.4034596489      -41.0934661563  TIP3      17007           0.0000000000
     73274     17200  TIP3      OH2            35.8028361753      -17.4394297241      -25.1018045339  TIP3      17008           0.0000000000
     73275     17200  TIP3      H1             36.1127628124      -17.1263205614      -25.9663117657  TIP3      17008           0.0000000000
     73276     17200  TIP3      H2             36.5425283312      -17.1868981640      -24.5281651875  TIP3      17008           0.0000000000
     73277     17201  TIP3      OH2            23.5544999084      -25.0475218943      -25.5668143497  TIP3      17009           0.0000000000
     73278     17201  TIP3      H1             24.2618412087      -24.7766573340      -24.9491080425  TIP3      17009           0.0000000000
     73279     17201  TIP3      H2             22.7725855821      -24.9138466224      -24.9905764297  TIP3      17009           0.0000000000
     73280     17202  TIP3      OH2            29.5465043184      -29.6342891880      -32.8146435231  TIP3      17010           0.0000000000
     73281     17202  TIP3      H1             30.1505064966      -30.1740941088      -33.3409216436  TIP3      17010           0.0000000000
     73282     17202  TIP3      H2             29.3936139377      -30.1758022644      -32.0278753970  TIP3      17010           0.0000000000
     73283     17203  TIP3      OH2            24.5402876482      -33.4488183360      -36.3679876269  TIP3      17011           0.0000000000
     73284     17203  TIP3      H1             24.2324907455      -34.3685065664      -36.3481973790  TIP3      17011           0.0000000000
     73285     17203  TIP3      H2             25.3200975702      -33.5357813286      -36.9270593620  TIP3      17011           0.0000000000
     73286     17204  TIP3      OH2            28.1914593174      -31.2517677337      -30.4114405775  TIP3      17012           0.0000000000
     73287     17204  TIP3      H1             27.3481192577      -30.7672236503      -30.2999294250  TIP3      17012           0.0000000000
     73288     17204  TIP3      H2             28.7368117702      -30.9392655361      -29.6644434934  TIP3      17012           0.0000000000
     73289     17205  TIP3      OH2            28.7687854955      -25.0771344973      -38.6984656276  TIP3      17013           0.0000000000
     73290     17205  TIP3      H1             27.9693327105      -25.5442767367      -39.0335721423  TIP3      17013           0.0000000000
     73291     17205  TIP3      H2             28.5442182568      -24.9534247795      -37.7537263898  TIP3      17013           0.0000000000
     73292     17206  TIP3      OH2            35.6399453985      -25.8546767451      -29.8988043273  TIP3      17014           0.0000000000
     73293     17206  TIP3      H1             36.3644316155      -25.7281157226      -30.5497154991  TIP3      17014           0.0000000000
     73294     17206  TIP3      H2             34.8766540609      -25.8540134577      -30.5078473160  TIP3      17014           0.0000000000
     73295     17207  TIP3      OH2            32.6296000004      -32.2347532896      -40.5219329244  TIP3      17015           0.0000000000
     73296     17207  TIP3      H1             31.6696355895      -32.1293695968      -40.6770007532  TIP3      17015           0.0000000000
     73297     17207  TIP3      H2             32.9066863453      -31.3754766183      -40.1522452852  TIP3      17015           0.0000000000
     73298     17208  TIP3      OH2            30.2592673779      -24.8278107808      -27.4729476080  TIP3      17016           0.0000000000
     73299     17208  TIP3      H1             29.9305150774      -25.2423585528      -26.6679605761  TIP3      17016           0.0000000000
     73300     17208  TIP3      H2             30.0388811780      -23.8988352500      -27.3549072906  TIP3      17016           0.0000000000
     73301     17209  TIP3      OH2            33.3313455409      -30.3231415874      -38.9161621568  TIP3      17017           0.0000000000
     73302     17209  TIP3      H1             34.2033587556      -30.4663077920      -38.4920562077  TIP3      17017           0.0000000000
     73303     17209  TIP3      H2             33.4354435760      -29.4896294591      -39.4060050079  TIP3      17017           0.0000000000
     73304     17210  TIP3      OH2            23.8833615019      -25.6789463092      -32.8976981235  TIP3      17018           0.0000000000
     73305     17210  TIP3      H1             24.5598025003      -25.7652276043      -33.5986778027  TIP3      17018           0.0000000000
     73306     17210  TIP3      H2             23.9395834114      -26.5379700203      -32.4428302940  TIP3      17018           0.0000000000
     73307     17211  TIP3      OH2            30.8448901019      -23.6082847858      -39.6669570366  TIP3      17019           0.0000000000
     73308     17211  TIP3      H1             30.5198245934      -22.7580193173      -39.3028419800  TIP3      17019           0.0000000000
     73309     17211  TIP3      H2             30.1199023666      -24.2270262278      -39.4388454997  TIP3      17019           0.0000000000
     73310     17212  TIP3      OH2            20.8611669003      -27.2714872018      -27.6315651086  TIP3      17020           0.0000000000
     73311     17212  TIP3      H1             21.0473901810      -27.7283169833      -26.7951165723  TIP3      17020           0.0000000000
     73312     17212  TIP3      H2             20.2448928934      -27.8920857746      -28.0592966104  TIP3      17020           0.0000000000
     73313     17213  TIP3      OH2            27.8832699631      -27.7584712805      -25.4476825634  TIP3      17021           0.0000000000
     73314     17213  TIP3      H1             27.5665669272      -28.0170317166      -26.3260029547  TIP3      17021           0.0000000000
     73315     17213  TIP3      H2             28.8245277625      -28.0071289767      -25.4875969607  TIP3      17021           0.0000000000
     73316     17214  TIP3      OH2            32.5710304258      -22.3792368406      -27.5204217656  TIP3      17022           0.0000000000
     73317     17214  TIP3      H1             31.6459955119      -22.2142574750      -27.7428890762  TIP3      17022           0.0000000000
     73318     17214  TIP3      H2             32.5405548197      -22.0947806447      -26.5783904375  TIP3      17022           0.0000000000
     73319     17215  TIP3      OH2            33.6800894813      -26.5822469433      -31.6062339751  TIP3      17023           0.0000000000
     73320     17215  TIP3      H1             32.7410281921      -26.8029484166      -31.7515825820  TIP3      17023           0.0000000000
     73321     17215  TIP3      H2             34.1563358352      -27.3192372231      -32.0306980359  TIP3      17023           0.0000000000
     73322     17216  TIP3      OH2            26.2557979469      -22.2252400231      -35.5132778537  TIP3      17024           0.0000000000
     73323     17216  TIP3      H1             26.7527242448      -21.4187419137      -35.7200745471  TIP3      17024           0.0000000000
     73324     17216  TIP3      H2             25.3759188211      -21.9970886334      -35.8440874029  TIP3      17024           0.0000000000
     73325     17217  TIP3      OH2            22.0197558539      -27.3884457233      -40.9432417726  TIP3      17025           0.0000000000
     73326     17217  TIP3      H1             22.5987925301      -26.7237724647      -40.5317903339  TIP3      17025           0.0000000000
     73327     17217  TIP3      H2             21.1293673249      -27.0761662688      -40.6941095764  TIP3      17025           0.0000000000
     73328     17218  TIP3      OH2            27.6659832869      -24.5595664653      -36.0031913578  TIP3      17026           0.0000000000
     73329     17218  TIP3      H1             27.3509837608      -23.6415511479      -35.9028589012  TIP3      17026           0.0000000000
     73330     17218  TIP3      H2             26.9525926135      -25.0559690815      -35.5535913992  TIP3      17026           0.0000000000
     73331     17219  TIP3      OH2            28.1186882674      -20.3773974445      -29.5836008088  TIP3      17027           0.0000000000
     73332     17219  TIP3      H1             28.5810091414      -19.5739388015      -29.8703124711  TIP3      17027           0.0000000000
     73333     17219  TIP3      H2             28.7300310375      -20.7242052979      -28.9078781445  TIP3      17027           0.0000000000
     73334     17220  TIP3      OH2            26.3448319231      -19.5749336353      -36.4680449881  TIP3      17028           0.0000000000
     73335     17220  TIP3      H1             25.3829368646      -19.4312250748      -36.3371580521  TIP3      17028           0.0000000000
     73336     17220  TIP3      H2             26.7104848153      -18.7373779407      -36.1259644776  TIP3      17028           0.0000000000
     73337     17221  TIP3      OH2            31.6559200817      -24.3813857660      -29.9766046187  TIP3      17029           0.0000000000
     73338     17221  TIP3      H1             31.3188905167      -24.5705213256      -29.0731605968  TIP3      17029           0.0000000000
     73339     17221  TIP3      H2             32.2860159540      -25.1008813144      -30.1380777309  TIP3      17029           0.0000000000
     73340     17222  TIP3      OH2            33.9562666359      -23.3281552276      -40.8860279012  TIP3      17030           0.0000000000
     73341     17222  TIP3      H1             34.2772659021      -23.7641508038      -40.0737286806  TIP3      17030           0.0000000000
     73342     17222  TIP3      H2             33.0068655376      -23.4976239551      -40.7972031346  TIP3      17030           0.0000000000
     73343     17223  TIP3      OH2            34.4499314367      -19.8144573641      -27.4781897186  TIP3      17031           0.0000000000
     73344     17223  TIP3      H1             33.7411721211      -20.2913816511      -27.9589209584  TIP3      17031           0.0000000000
     73345     17223  TIP3      H2             34.6672863327      -19.1063706959      -28.1244052517  TIP3      17031           0.0000000000
     73346     17224  TIP3      OH2            22.5112952789      -32.5784717099      -28.0725654726  TIP3      17032           0.0000000000
     73347     17224  TIP3      H1             21.6056297110      -32.2245481954      -28.1172948423  TIP3      17032           0.0000000000
     73348     17224  TIP3      H2             22.3913904549      -33.4325542407      -27.6258312748  TIP3      17032           0.0000000000
     73349     17225  TIP3      OH2            34.7576322297      -24.7195236899      -38.6602260567  TIP3      17033           0.0000000000
     73350     17225  TIP3      H1             34.5329738429      -25.4852206628      -38.0863979337  TIP3      17033           0.0000000000
     73351     17225  TIP3      H2             35.6947379917      -24.5972508798      -38.4330153661  TIP3      17033           0.0000000000
     73352     17226  TIP3      OH2            22.1328716775      -20.7675507035      -29.6619700374  TIP3      17034           0.0000000000
     73353     17226  TIP3      H1             22.4380264795      -21.6866845129      -29.6508910062  TIP3      17034           0.0000000000
     73354     17226  TIP3      H2             22.3874655364      -20.4687671500      -28.7787889739  TIP3      17034           0.0000000000
     73355     17227  TIP3      OH2            28.1088071830      -22.2338592447      -42.3818662844  TIP3      17035           0.0000000000
     73356     17227  TIP3      H1             28.2073501816      -22.9976052918      -42.9730554116  TIP3      17035           0.0000000000
     73357     17227  TIP3      H2             27.6663353958      -22.6645841519      -41.6178999058  TIP3      17035           0.0000000000
     73358     17228  TIP3      OH2            26.8796676002      -22.7066699215      -39.9299904672  TIP3      17036           0.0000000000
     73359     17228  TIP3      H1             27.1505754894      -23.2217559524      -39.1603384536  TIP3      17036           0.0000000000
     73360     17228  TIP3      H2             26.9722262811      -21.7803383054      -39.6067711956  TIP3      17036           0.0000000000
     73361     17229  TIP3      OH2            23.4242614579      -25.4612669184      -39.4436166798  TIP3      17037           0.0000000000
     73362     17229  TIP3      H1             22.7086773859      -25.0654142939      -38.9066793062  TIP3      17037           0.0000000000
     73363     17229  TIP3      H2             23.9283138746      -24.6810421746      -39.7383504870  TIP3      17037           0.0000000000
     73364     17230  TIP3      OH2            31.2240544303      -32.7812530119      -29.1173130993  TIP3      17038           0.0000000000
     73365     17230  TIP3      H1             31.9916533397      -32.7358768841      -28.5312069741  TIP3      17038           0.0000000000
     73366     17230  TIP3      H2             30.8793619215      -33.6811992269      -28.9611675111  TIP3      17038           0.0000000000
     73367     17231  TIP3      OH2            32.0687814093      -33.2130045260      -38.0253531033  TIP3      17039           0.0000000000
     73368     17231  TIP3      H1             32.2343569494      -32.7420443716      -38.8671915899  TIP3      17039           0.0000000000
     73369     17231  TIP3      H2             32.5821375767      -32.6928369494      -37.3911415519  TIP3      17039           0.0000000000
     73370     17232  TIP3      OH2            29.6849605678      -21.0431534434      -39.2346356963  TIP3      17040           0.0000000000
     73371     17232  TIP3      H1             28.8671111789      -20.5115429243      -39.1631703895  TIP3      17040           0.0000000000
     73372     17232  TIP3      H2             30.2241579011      -20.4931857072      -39.8211266690  TIP3      17040           0.0000000000
     73373     17233  TIP3      OH2            29.2421119255      -31.4825671012      -37.2106566692  TIP3      17041           0.0000000000
     73374     17233  TIP3      H1             30.0012912540      -30.8701022203      -37.1775160816  TIP3      17041           0.0000000000
     73375     17233  TIP3      H2             28.9768757494      -31.5641517811      -36.2739217825  TIP3      17041           0.0000000000
     73376     17234  TIP3      OH2            29.8262008851      -30.4067662746      -28.0664287598  TIP3      17042           0.0000000000
     73377     17234  TIP3      H1             29.8999870131      -29.8528394295      -27.2681132534  TIP3      17042           0.0000000000
     73378     17234  TIP3      H2             30.4596875940      -31.1312973993      -27.9642691221  TIP3      17042           0.0000000000
     73379     17235  TIP3      OH2            30.0654693532      -34.3852822150      -36.3040893195  TIP3      17043           0.0000000000
     73380     17235  TIP3      H1             29.7603015607      -33.7139710499      -35.6717880768  TIP3      17043           0.0000000000
     73381     17235  TIP3      H2             30.7489324780      -33.8544163939      -36.7761288706  TIP3      17043           0.0000000000
     73382     17236  TIP3      OH2            27.0825859765      -20.0128800191      -39.2040911008  TIP3      17044           0.0000000000
     73383     17236  TIP3      H1             27.1774195603      -19.1969144285      -39.7548383065  TIP3      17044           0.0000000000
     73384     17236  TIP3      H2             26.8108685059      -19.6456845581      -38.3347939893  TIP3      17044           0.0000000000
     73385     17237  TIP3      OH2            25.7163707821      -33.2982793598      -39.6407922391  TIP3      17045           0.0000000000
     73386     17237  TIP3      H1             25.6622112917      -32.4034390343      -39.2510947079  TIP3      17045           0.0000000000
     73387     17237  TIP3      H2             26.6398889269      -33.4991369786      -39.3894116748  TIP3      17045           0.0000000000
     73388     17238  TIP3      OH2            35.8241847085      -32.7845688369      -27.3572585057  TIP3      17046           0.0000000000
     73389     17238  TIP3      H1             35.0023034101      -32.2438129288      -27.3531000444  TIP3      17046           0.0000000000
     73390     17238  TIP3      H2             36.2368331093      -32.5382458302      -28.1885385385  TIP3      17046           0.0000000000
     73391     17239  TIP3      OH2            34.5666043707      -28.7676107896      -33.1330185342  TIP3      17047           0.0000000000
     73392     17239  TIP3      H1             33.7460491860      -29.2031780236      -33.4425239836  TIP3      17047           0.0000000000
     73393     17239  TIP3      H2             34.9982263979      -29.4824188153      -32.6551761468  TIP3      17047           0.0000000000
     73394     17240  TIP3      OH2            23.9629503452      -22.8453273788      -40.5859744807  TIP3      17048           0.0000000000
     73395     17240  TIP3      H1             24.6310122712      -22.2188239563      -40.2691852000  TIP3      17048           0.0000000000
     73396     17240  TIP3      H2             24.4851516335      -23.3107872981      -41.2699111762  TIP3      17048           0.0000000000
     73397     17241  TIP3      OH2            22.3029926960      -30.1613359130      -41.4294530808  TIP3      17049           0.0000000000
     73398     17241  TIP3      H1             22.3232590589      -29.2018664028      -41.2321016323  TIP3      17049           0.0000000000
     73399     17241  TIP3      H2             21.4167594705      -30.3426468359      -41.7472292124  TIP3      17049           0.0000000000
     73400     17242  TIP3      OH2            35.7203972445      -19.5091379677      -31.5256651057  TIP3      17050           0.0000000000
     73401     17242  TIP3      H1             35.5268645711      -18.8226314573      -32.1934009373  TIP3      17050           0.0000000000
     73402     17242  TIP3      H2             36.6501348629      -19.3763599930      -31.3390107016  TIP3      17050           0.0000000000
     73403     17243  TIP3      OH2            22.8862690537      -35.2281580603      -32.6363303395  TIP3      17051           0.0000000000
     73404     17243  TIP3      H1             22.9482147833      -35.3241403217      -33.6145476521  TIP3      17051           0.0000000000
     73405     17243  TIP3      H2             22.7414510167      -36.1535514629      -32.4075928465  TIP3      17051           0.0000000000
     73406     17244  TIP3      OH2            22.0873861104      -21.4677047272      -36.5474380531  TIP3      17052           0.0000000000
     73407     17244  TIP3      H1             21.2298479630      -21.0302783602      -36.5935421578  TIP3      17052           0.0000000000
     73408     17244  TIP3      H2             22.5566716671      -21.0004339272      -37.2518097389  TIP3      17052           0.0000000000
     73409     17245  TIP3      OH2            21.3617043928      -18.8695260233      -25.3185101113  TIP3      17053           0.0000000000
     73410     17245  TIP3      H1             21.8811703318      -19.0191092302      -24.5087970524  TIP3      17053           0.0000000000
     73411     17245  TIP3      H2             20.8658143517      -19.6900178497      -25.4420222857  TIP3      17053           0.0000000000
     73412     17246  TIP3      OH2            25.9688448503      -19.8897786081      -23.6818111170  TIP3      17054           0.0000000000
     73413     17246  TIP3      H1             26.7140989977      -20.3998711950      -23.3159619388  TIP3      17054           0.0000000000
     73414     17246  TIP3      H2             25.9227475093      -20.2215912451      -24.5962575170  TIP3      17054           0.0000000000
     73415     17247  TIP3      OH2            30.1092741825      -20.3840060278      -42.2603807242  TIP3      17055           0.0000000000
     73416     17247  TIP3      H1             29.4133231135      -21.0395625288      -42.0321337173  TIP3      17055           0.0000000000
     73417     17247  TIP3      H2             30.8284509543      -20.9862501675      -42.5038213185  TIP3      17055           0.0000000000
     73418     17248  TIP3      OH2            32.6050530048      -21.5923404976      -24.9896685022  TIP3      17056           0.0000000000
     73419     17248  TIP3      H1             32.1399590897      -22.3632299880      -24.5992424348  TIP3      17056           0.0000000000
     73420     17248  TIP3      H2             33.2418709849      -21.3840978296      -24.2853237123  TIP3      17056           0.0000000000
     73421     17249  TIP3      OH2            34.6336284481      -20.6214851080      -42.0219055465  TIP3      17057           0.0000000000
     73422     17249  TIP3      H1             34.9408973054      -21.4226347483      -41.5708711948  TIP3      17057           0.0000000000
     73423     17249  TIP3      H2             35.3810922540      -20.4403745161      -42.6222283834  TIP3      17057           0.0000000000
     73424     17250  TIP3      OH2            21.2269688218      -25.0828370663      -24.3053932966  TIP3      17058           0.0000000000
     73425     17250  TIP3      H1             21.3407069080      -25.9712573792      -24.6666874239  TIP3      17058           0.0000000000
     73426     17250  TIP3      H2             20.4436709352      -24.7633419215      -24.8063877595  TIP3      17058           0.0000000000
     73427     17251  TIP3      OH2            25.5440566111      -24.6997237586      -42.2572543862  TIP3      17059           0.0000000000
     73428     17251  TIP3      H1             25.6854998062      -25.4588921667      -41.6716596807  TIP3      17059           0.0000000000
     73429     17251  TIP3      H2             26.2950469466      -24.8168743274      -42.8716982758  TIP3      17059           0.0000000000
     73430     17252  TIP3      OH2            27.9574442773      -25.0439615321      -24.8949379105  TIP3      17060           0.0000000000
     73431     17252  TIP3      H1             27.5774923209      -24.7426387248      -25.7370051254  TIP3      17060           0.0000000000
     73432     17252  TIP3      H2             27.9790355263      -26.0223242801      -24.9856781290  TIP3      17060           0.0000000000
     73433     17253  TIP3      OH2            30.9698107636      -23.5882004153      -42.4764673334  TIP3      17061           0.0000000000
     73434     17253  TIP3      H1             30.6876935834      -23.4991921451      -41.5514549014  TIP3      17061           0.0000000000
     73435     17253  TIP3      H2             30.7792321141      -24.5467873453      -42.6184909367  TIP3      17061           0.0000000000
     73436     17254  TIP3      OH2            33.5692317288      -25.2215513317      -27.5204981893  TIP3      17062           0.0000000000
     73437     17254  TIP3      H1             34.3689627197      -24.6354508820      -27.5485809738  TIP3      17062           0.0000000000
     73438     17254  TIP3      H2             32.9037275148      -24.5289982949      -27.4423193732  TIP3      17062           0.0000000000
     73439     17255  TIP3      OH2            22.1569962965      -27.8016638284      -24.8759904176  TIP3      17063           0.0000000000
     73440     17255  TIP3      H1             22.5081627910      -28.6849672160      -25.0505146915  TIP3      17063           0.0000000000
     73441     17255  TIP3      H2             21.8071119150      -27.8868637981      -24.0017490083  TIP3      17063           0.0000000000
     73442     17256  TIP3      OH2            26.7582419959      -26.6799262814      -39.8159568363  TIP3      17064           0.0000000000
     73443     17256  TIP3      H1             26.2462399603      -27.2199239354      -39.1959747536  TIP3      17064           0.0000000000
     73444     17256  TIP3      H2             27.0487651610      -27.3519467255      -40.4775993472  TIP3      17064           0.0000000000
     73445     17257  TIP3      OH2            26.0165736094      -28.8875688014      -27.5334283497  TIP3      17065           0.0000000000
     73446     17257  TIP3      H1             25.4245296127      -28.1605023149      -27.2714078545  TIP3      17065           0.0000000000
     73447     17257  TIP3      H2             26.4159489176      -28.5146490615      -28.3379740863  TIP3      17065           0.0000000000
     73448     17258  TIP3      OH2            27.8203122397      -28.4546911679      -41.6254671962  TIP3      17066           0.0000000000
     73449     17258  TIP3      H1             27.6744527000      -28.5472484812      -42.5893967333  TIP3      17066           0.0000000000
     73450     17258  TIP3      H2             28.7977469057      -28.4054374943      -41.5593613303  TIP3      17066           0.0000000000
     73451     17259  TIP3      OH2            31.0771042133      -26.3041693039      -24.2121048697  TIP3      17067           0.0000000000
     73452     17259  TIP3      H1             32.0380658894      -26.3144107184      -24.2836098185  TIP3      17067           0.0000000000
     73453     17259  TIP3      H2             30.9200034414      -27.0375171129      -23.5938084105  TIP3      17067           0.0000000000
     73454     17260  TIP3      OH2            26.4420139245      -31.4944862609      -26.4398857527  TIP3      17068           0.0000000000
     73455     17260  TIP3      H1             26.5186519860      -32.1971019699      -27.1066991360  TIP3      17068           0.0000000000
     73456     17260  TIP3      H2             26.3597491988      -30.6950549282      -27.0046147990  TIP3      17068           0.0000000000
     73457     17261  TIP3      OH2            26.8294313325      -33.0801611451      -28.9353049244  TIP3      17069           0.0000000000
     73458     17261  TIP3      H1             27.3423902837      -32.6233866327      -29.6385009760  TIP3      17069           0.0000000000
     73459     17261  TIP3      H2             25.9348248752      -33.1998716406      -29.3296303040  TIP3      17069           0.0000000000
     73460     17262  TIP3      OH2            28.3624565687      -27.6232394268      -28.6771675442  TIP3      17070           0.0000000000
     73461     17262  TIP3      H1             29.1169386242      -27.7897734383      -29.2522672763  TIP3      17070           0.0000000000
     73462     17262  TIP3      H2             28.0087393400      -26.7865237436      -29.0176280476  TIP3      17070           0.0000000000
     73463     17263  TIP3      OH2            34.1319957769      -27.0104529052      -25.5853049955  TIP3      17071           0.0000000000
     73464     17263  TIP3      H1             33.8359275312      -26.3288584346      -26.2237319865  TIP3      17071           0.0000000000
     73465     17263  TIP3      H2             35.0516314879      -27.1583657079      -25.8001072376  TIP3      17071           0.0000000000
     73466     17264  TIP3      OH2            24.8282888448      -30.2102862940      -24.5573659253  TIP3      17072           0.0000000000
     73467     17264  TIP3      H1             24.1124866702      -30.8521099653      -24.7307795574  TIP3      17072           0.0000000000
     73468     17264  TIP3      H2             25.5205063840      -30.6059503023      -25.1173665360  TIP3      17072           0.0000000000
     73469     17265  TIP3      OH2            27.4751022167      -35.4884600257      -28.2754603857  TIP3      17073           0.0000000000
     73470     17265  TIP3      H1             27.4164365850      -34.5464483311      -28.5687403472  TIP3      17073           0.0000000000
     73471     17265  TIP3      H2             26.8781721639      -35.8985552057      -28.9122410552  TIP3      17073           0.0000000000
     73472     17266  TIP3      OH2            28.8678187850      -31.3437033309      -24.9380223724  TIP3      17074           0.0000000000
     73473     17266  TIP3      H1             28.5522126952      -31.5742547472      -24.0718221413  TIP3      17074           0.0000000000
     73474     17266  TIP3      H2             28.0734676002      -31.5325103225      -25.4871536109  TIP3      17074           0.0000000000
     73475     17267  TIP3      OH2            31.5613074017      -32.1787207332      -25.7826684717  TIP3      17075           0.0000000000
     73476     17267  TIP3      H1             30.5974965247      -32.1872139272      -25.6824260122  TIP3      17075           0.0000000000
     73477     17267  TIP3      H2             31.8908826113      -32.8401650805      -25.1530575522  TIP3      17075           0.0000000000
     73478     17268  TIP3      OH2            22.9510054052      -32.2919715448      -24.8624977632  TIP3      17076           0.0000000000
     73479     17268  TIP3      H1             23.2316824885      -33.0419592461      -25.4267480766  TIP3      17076           0.0000000000
     73480     17268  TIP3      H2             22.9779517185      -32.7402494361      -23.9849958794  TIP3      17076           0.0000000000
     73481     17269  TIP3      OH2            27.8952503352       36.7888916173      -25.7928793820  TIP3      17077           0.0000000000
     73482     17269  TIP3      H1             28.4609919262       36.0197334999      -25.7542668071  TIP3      17077           0.0000000000
     73483     17269  TIP3      H2             27.6724113956       36.9135859908      -26.7330836230  TIP3      17077           0.0000000000
     73484     17270  TIP3      OH2            27.6643960636      -17.7565226242      -40.5525781051  TIP3      17078           0.0000000000
     73485     17270  TIP3      H1             28.6304419569      -17.6733371308      -40.4775489852  TIP3      17078           0.0000000000
     73486     17270  TIP3      H2             27.5282136204      -17.1631945141      -41.3008785538  TIP3      17078           0.0000000000
     73487     17271  TIP3      OH2            21.2098777668      -23.1834628428      -41.0791381532  TIP3      17079           0.0000000000
     73488     17271  TIP3      H1             22.1772225198      -23.0893701241      -40.8988111998  TIP3      17079           0.0000000000
     73489     17271  TIP3      H2             21.2607048154      -23.8271587720      -41.8256539163  TIP3      17079           0.0000000000
     73490     17272  TIP3      OH2            20.0047990520      -17.7951158390      -36.1265392064  TIP3      17080           0.0000000000
     73491     17272  TIP3      H1             19.2721172765      -18.2886405200      -36.5659870038  TIP3      17080           0.0000000000
     73492     17272  TIP3      H2             20.2648447877      -18.4446583300      -35.4421391139  TIP3      17080           0.0000000000
     73493     17273  TIP3      OH2            20.8120830393      -19.6587084977      -34.2331452794  TIP3      17081           0.0000000000
     73494     17273  TIP3      H1             20.4619420077      -20.5381163902      -34.0297705598  TIP3      17081           0.0000000000
     73495     17273  TIP3      H2             21.0587291684      -19.3351891893      -33.3504703528  TIP3      17081           0.0000000000
     73496     17274  TIP3      OH2            36.3018571400      -21.5821154057      -29.0774751185  TIP3      17082           0.0000000000
     73497     17274  TIP3      H1             35.6314285801      -21.1837226534      -28.4960771953  TIP3      17082           0.0000000000
     73498     17274  TIP3      H2             35.7517034551      -21.9756812260      -29.7835348891  TIP3      17082           0.0000000000
     73499     17275  TIP3      OH2            35.3646515356      -28.5982943601      -35.7191312208  TIP3      17083           0.0000000000
     73500     17275  TIP3      H1             35.6191807782      -29.5242966572      -35.6787736049  TIP3      17083           0.0000000000
     73501     17275  TIP3      H2             35.4800313967      -28.3484918774      -34.7762391228  TIP3      17083           0.0000000000
     73502     17276  TIP3      OH2            20.8746291686      -26.5829237557      -31.7417588549  TIP3      17084           0.0000000000
     73503     17276  TIP3      H1             21.0494155817      -26.6659399606      -32.7037021495  TIP3      17084           0.0000000000
     73504     17276  TIP3      H2             21.7680486703      -26.7621556003      -31.3897889395  TIP3      17084           0.0000000000
     73505     17277  TIP3      OH2            35.9293389263      -32.6353993287      -42.3195060094  TIP3      17085           0.0000000000
     73506     17277  TIP3      H1             36.5307383243      -33.0439613887      -41.6958297917  TIP3      17085           0.0000000000
     73507     17277  TIP3      H2             35.0745979091      -33.0688873873      -42.1395972979  TIP3      17085           0.0000000000
     73508     17278  TIP3      OH2            35.5044245963      -31.1587344250      -37.5071076024  TIP3      17086           0.0000000000
     73509     17278  TIP3      H1             35.7985314924      -31.9908364397      -37.0989079280  TIP3      17086           0.0000000000
     73510     17278  TIP3      H2             36.3479058551      -30.7938963868      -37.8031632736  TIP3      17086           0.0000000000
     73511     17279  TIP3      OH2           -37.0688397351      -31.3643758249      -31.9327362359  TIP3      17087           0.0000000000
     73512     17279  TIP3      H1            -36.1668045155      -31.0405682156      -32.0435240017  TIP3      17087           0.0000000000
     73513     17279  TIP3      H2            -37.2674638325      -30.7559757934      -31.2043018877  TIP3      17087           0.0000000000
     73514     17280  TIP3      OH2            36.2594649479      -29.7674862384      -28.8792453119  TIP3      17088           0.0000000000
     73515     17280  TIP3      H1             35.3249948975      -29.5008081697      -28.7794065672  TIP3      17088           0.0000000000
     73516     17280  TIP3      H2             36.6211913990      -29.0733540832      -29.4605159691  TIP3      17088           0.0000000000
     73517     17281  TIP3      OH2            20.5007334564      -31.2938405736      -25.6088162015  TIP3      17089           0.0000000000
     73518     17281  TIP3      H1             21.4345404671      -31.5309391435      -25.4158313180  TIP3      17089           0.0000000000
     73519     17281  TIP3      H2             20.0465794643      -32.1121943371      -25.3173547125  TIP3      17089           0.0000000000
     73520     17282  TIP3      OH2            35.3017106370      -34.1304262795      -36.6402835502  TIP3      17090           0.0000000000
     73521     17282  TIP3      H1             36.2344109898      -34.2620516425      -36.4213546086  TIP3      17090           0.0000000000
     73522     17282  TIP3      H2             35.3200497981      -34.5350274473      -37.5368811429  TIP3      17090           0.0000000000
     73523     17283  TIP3      OH2            21.6598291278      -32.9411215067      -32.7823911320  TIP3      17091           0.0000000000
     73524     17283  TIP3      H1             22.0936060914      -33.7827293059      -32.5001720596  TIP3      17091           0.0000000000
     73525     17283  TIP3      H2             22.2319498820      -32.2904423295      -32.3600854565  TIP3      17091           0.0000000000
     73526     17284  TIP3      OH2            19.9745720309      -29.9930596873      -31.7035903117  TIP3      17092           0.0000000000
     73527     17284  TIP3      H1             20.5383186622      -30.2449680474      -32.4638485929  TIP3      17092           0.0000000000
     73528     17284  TIP3      H2             20.4420994654      -29.1885616227      -31.4356334405  TIP3      17092           0.0000000000
     73529     17285  TIP3      OH2            20.3489492986      -33.7598859531      -37.5994777289  TIP3      17093           0.0000000000
     73530     17285  TIP3      H1             19.4080471706      -33.5758341225      -37.7788717554  TIP3      17093           0.0000000000
     73531     17285  TIP3      H2             20.7641058804      -33.2770147035      -38.3398141955  TIP3      17093           0.0000000000
     73532     17286  TIP3      OH2            34.8926061863      -18.9675075168      -35.5814231814  TIP3      17094           0.0000000000
     73533     17286  TIP3      H1             35.5665130582      -19.2902094125      -36.1961018182  TIP3      17094           0.0000000000
     73534     17286  TIP3      H2             35.4135186534      -18.3796447420      -35.0093942087  TIP3      17094           0.0000000000
     73535     17287  TIP3      OH2            20.2958290002      -35.0022349340      -29.3177005949  TIP3      17095           0.0000000000
     73536     17287  TIP3      H1             19.6196574292      -35.2621214960      -28.6726367322  TIP3      17095           0.0000000000
     73537     17287  TIP3      H2             19.8106401673      -34.4049685045      -29.9136804331  TIP3      17095           0.0000000000
     73538     17288  TIP3      OH2            22.5059566677      -21.8647901433      -25.1669174437  TIP3      17096           0.0000000000
     73539     17288  TIP3      H1             21.6580895630      -21.6720769385      -25.5921213866  TIP3      17096           0.0000000000
     73540     17288  TIP3      H2             22.2489060922      -21.9401692045      -24.2455149239  TIP3      17096           0.0000000000
     73541     17289  TIP3      OH2            25.4224585192      -20.8756338268      -28.9017957411  TIP3      17097           0.0000000000
     73542     17289  TIP3      H1             25.0958952514      -20.0047282973      -29.1648403005  TIP3      17097           0.0000000000
     73543     17289  TIP3      H2             26.3534412035      -20.7882929981      -29.1956671551  TIP3      17097           0.0000000000
     73544     17290  TIP3      OH2            29.7659625564      -19.4592650020      -25.9690635232  TIP3      17098           0.0000000000
     73545     17290  TIP3      H1             29.9262006249      -19.7993439605      -25.0646833250  TIP3      17098           0.0000000000
     73546     17290  TIP3      H2             30.6567777803      -19.1438920248      -26.2234399405  TIP3      17098           0.0000000000
     73547     17291  TIP3      OH2            32.0697198193      -18.1754212800      -26.7041835422  TIP3      17099           0.0000000000
     73548     17291  TIP3      H1             32.7966093709      -18.7808046006      -26.9112948642  TIP3      17099           0.0000000000
     73549     17291  TIP3      H2             32.4401398060      -17.7448784649      -25.9069196770  TIP3      17099           0.0000000000
     73550     17292  TIP3      OH2            22.8486651775      -17.6389702334      -28.9117105943  TIP3      17100           0.0000000000
     73551     17292  TIP3      H1             22.1066726217      -17.1329075811      -29.2802695471  TIP3      17100           0.0000000000
     73552     17292  TIP3      H2             22.5418829031      -17.8257252113      -28.0089898163  TIP3      17100           0.0000000000
     73553     17293  TIP3      OH2            25.3201674727      -18.0596231863      -29.8265739322  TIP3      17101           0.0000000000
     73554     17293  TIP3      H1             24.4277203197      -17.9059382531      -29.4353965900  TIP3      17101           0.0000000000
     73555     17293  TIP3      H2             25.2663856179      -17.4711708787      -30.6019117803  TIP3      17101           0.0000000000
     73556     17294  TIP3      OH2            29.9897443200      -18.1643958473      -30.6516465997  TIP3      17102           0.0000000000
     73557     17294  TIP3      H1             29.5620370692      -17.5883397937      -31.3067890542  TIP3      17102           0.0000000000
     73558     17294  TIP3      H2             30.1556269808      -17.5257131788      -29.9254353735  TIP3      17102           0.0000000000
     73559     17295  TIP3      OH2            32.3131078352      -19.3452889099      -29.6266834502  TIP3      17103           0.0000000000
     73560     17295  TIP3      H1             31.4575887548      -19.0715167574      -29.9940027242  TIP3      17103           0.0000000000
     73561     17295  TIP3      H2             32.7706606369      -18.4894528367      -29.6991203362  TIP3      17103           0.0000000000
     73562     17296  TIP3      OH2            34.7627435587      -17.7705117532      -29.4175115742  TIP3      17104           0.0000000000
     73563     17296  TIP3      H1             34.7560150186      -16.8209629418      -29.6351152035  TIP3      17104           0.0000000000
     73564     17296  TIP3      H2             35.1025936360      -18.1407853034      -30.2516304677  TIP3      17104           0.0000000000
     73565     17297  TIP3      OH2            22.3096891323      -18.9866277889      -31.9564996953  TIP3      17105           0.0000000000
     73566     17297  TIP3      H1             22.2254345224      -19.4476619453      -31.0925897905  TIP3      17105           0.0000000000
     73567     17297  TIP3      H2             23.1265330206      -19.3689696568      -32.3439852922  TIP3      17105           0.0000000000
     73568     17298  TIP3      OH2            24.3856810598      -20.2776565110      -33.3066847048  TIP3      17106           0.0000000000
     73569     17298  TIP3      H1             24.2232285699      -21.2109217375      -33.0707511384  TIP3      17106           0.0000000000
     73570     17298  TIP3      H2             25.2416401619      -20.1210847827      -32.8519928808  TIP3      17106           0.0000000000
     73571     17299  TIP3      OH2            26.9610613522      -19.7927124031      -32.4296867357  TIP3      17107           0.0000000000
     73572     17299  TIP3      H1             27.1428936916      -20.7127763928      -32.6896111020  TIP3      17107           0.0000000000
     73573     17299  TIP3      H2             27.0330371243      -19.8451344710      -31.4640666987  TIP3      17107           0.0000000000
     73574     17300  TIP3      OH2            30.3053141688      -34.0739477273      -33.3102815785  TIP3      17108           0.0000000000
     73575     17300  TIP3      H1             29.7306988151      -34.7990233369      -33.0255128338  TIP3      17108           0.0000000000
     73576     17300  TIP3      H2             31.0034101174      -34.5649722317      -33.7937116001  TIP3      17108           0.0000000000
     73577     17301  TIP3      OH2            35.5830280372      -36.0492963481      -33.1477591720  TIP3      17109           0.0000000000
     73578     17301  TIP3      H1             36.1792323901      -35.5067671578      -33.6584050311  TIP3      17109           0.0000000000
     73579     17301  TIP3      H2             34.7140852793      -35.7312194916      -33.3923073349  TIP3      17109           0.0000000000
     73580     17302  TIP3      OH2            22.7807535954      -35.4880035802      -35.4186227291  TIP3      17110           0.0000000000
     73581     17302  TIP3      H1             22.0137003481      -35.7218131759      -35.9592226821  TIP3      17110           0.0000000000
     73582     17302  TIP3      H2             23.2640364528      -36.3322201450      -35.3850986070  TIP3      17110           0.0000000000
     73583     17303  TIP3      OH2            21.6042521672      -35.7611521923      -39.7083389429  TIP3      17111           0.0000000000
     73584     17303  TIP3      H1             22.0304836771      -35.1113630928      -40.2834860090  TIP3      17111           0.0000000000
     73585     17303  TIP3      H2             20.9738906066      -35.2128502484      -39.2286534366  TIP3      17111           0.0000000000
     73586     17304  TIP3      OH2            27.3472778929      -35.6587858717      -35.6650010802  TIP3      17112           0.0000000000
     73587     17304  TIP3      H1             28.2006711778      -35.1965378396      -35.7036707369  TIP3      17112           0.0000000000
     73588     17304  TIP3      H2             27.2473409795      -35.8130267533      -34.7198967086  TIP3      17112           0.0000000000
     73589     17305  TIP3      OH2            32.6889246787      -35.2156135307      -33.8772712954  TIP3      17113           0.0000000000
     73590     17305  TIP3      H1             32.8866126721      -35.2259222845      -34.8165652812  TIP3      17113           0.0000000000
     73591     17305  TIP3      H2             32.6305662024      -36.1953103891      -33.7542136582  TIP3      17113           0.0000000000
     73592     17306  TIP3      OH2            34.2354167259      -35.5945905624      -38.4678051937  TIP3      17114           0.0000000000
     73593     17306  TIP3      H1             33.5023729552      -34.9617990993      -38.5241186264  TIP3      17114           0.0000000000
     73594     17306  TIP3      H2             33.8221360835      -36.4150962793      -38.1840827880  TIP3      17114           0.0000000000
     73595     17307  TIP3      OH2            21.5100869736      -19.8143321851      -38.7003849330  TIP3      17115           0.0000000000
     73596     17307  TIP3      H1             20.8292008579      -19.8509099665      -39.3992938006  TIP3      17115           0.0000000000
     73597     17307  TIP3      H2             21.4734791987      -18.8694062528      -38.5088325773  TIP3      17115           0.0000000000
     73598     17308  TIP3      OH2            23.3805244638      -33.8913243656      -41.1861342218  TIP3      17116           0.0000000000
     73599     17308  TIP3      H1             23.9539460029      -34.4376695878      -41.7514135232  TIP3      17116           0.0000000000
     73600     17308  TIP3      H2             24.0358172272      -33.5069140463      -40.5713628721  TIP3      17116           0.0000000000
     73601     17309  TIP3      OH2            28.3594954626      -33.5804007023      -38.7558930120  TIP3      17117           0.0000000000
     73602     17309  TIP3      H1             28.7187373870      -34.1461531437      -38.0491864181  TIP3      17117           0.0000000000
     73603     17309  TIP3      H2             28.5149645778      -32.7067330456      -38.3289792025  TIP3      17117           0.0000000000
     73604     17310  TIP3      OH2            30.3623388385      -18.5078610614      -40.3579013887  TIP3      17118           0.0000000000
     73605     17310  TIP3      H1             31.2810795913      -18.2745477335      -40.5756884654  TIP3      17118           0.0000000000
     73606     17310  TIP3      H2             30.1495972549      -19.0254294187      -41.1612597804  TIP3      17118           0.0000000000
     73607     17311  TIP3      OH2            22.6886353739      -34.9676133527      -25.9599062294  TIP3      17119           0.0000000000
     73608     17311  TIP3      H1             22.3566010858      -35.7558041907      -25.5338554659  TIP3      17119           0.0000000000
     73609     17311  TIP3      H2             23.6268355354      -35.0288846293      -25.6563421152  TIP3      17119           0.0000000000
     73610     17312  TIP3      OH2            24.8871873049      -35.5473443117      -24.6616172800  TIP3      17120           0.0000000000
     73611     17312  TIP3      H1             25.7468861278      -35.9776675578      -24.6596639053  TIP3      17120           0.0000000000
     73612     17312  TIP3      H2             24.4398918479      -36.1596032491      -24.0086288665  TIP3      17120           0.0000000000
     73613     17313  TIP3      OH2            23.3079682371      -18.7876890102      -41.7447861372  TIP3      17121           0.0000000000
     73614     17313  TIP3      H1             23.0330331367      -18.6127765819      -40.8377000043  TIP3      17121           0.0000000000
     73615     17313  TIP3      H2             24.0638554338      -19.4000354763      -41.6156953488  TIP3      17121           0.0000000000
     73616     17314  TIP3      OH2            33.0872819009       37.1866112031      -24.2894833678  TIP3      17122           0.0000000000
     73617     17314  TIP3      H1             33.0775294756       36.5932188437      -23.5048594170  TIP3      17122           0.0000000000
     73618     17314  TIP3      H2             33.9480994525       36.8885258885      -24.6027310028  TIP3      17122           0.0000000000
     73619     17315  TIP3      OH2            36.1212118887      -20.3701925185      -25.4537308324  TIP3      17123           0.0000000000
     73620     17315  TIP3      H1             35.4111517646      -20.4521220001      -26.1337237289  TIP3      17123           0.0000000000
     73621     17315  TIP3      H2             36.0802135400      -19.3920194564      -25.3505088919  TIP3      17123           0.0000000000
     73622     17316  TIP3      OH2           -24.6608983864       -7.5204418747      -35.5949523197  TIP3      17124           0.0000000000
     73623     17316  TIP3      H1            -24.6825564127       -6.5399134245      -35.6116691799  TIP3      17124           0.0000000000
     73624     17316  TIP3      H2            -25.3952729322       -7.7545455859      -36.1866832482  TIP3      17124           0.0000000000
     73625     17317  TIP3      OH2           -25.8183439705       -8.2671155973      -32.0843432834  TIP3      17125           0.0000000000
     73626     17317  TIP3      H1            -25.8261914992       -8.9165194934      -31.3670680481  TIP3      17125           0.0000000000
     73627     17317  TIP3      H2            -26.1546557028       -8.7670560203      -32.8481409042  TIP3      17125           0.0000000000
     73628     17318  TIP3      OH2           -33.4154208473       -8.5822487667      -30.5300466887  TIP3      17126           0.0000000000
     73629     17318  TIP3      H1            -33.3315502859       -9.2949957269      -29.8637191122  TIP3      17126           0.0000000000
     73630     17318  TIP3      H2            -32.6762076299       -8.0075526044      -30.3028446447  TIP3      17126           0.0000000000
     73631     17319  TIP3      OH2           -22.1252276690       -5.3162596592      -33.7976779835  TIP3      17127           0.0000000000
     73632     17319  TIP3      H1            -22.5434601675       -6.0326590095      -33.3102177734  TIP3      17127           0.0000000000
     73633     17319  TIP3      H2            -22.1022439638       -4.6100634722      -33.1253584177  TIP3      17127           0.0000000000
     73634     17320  TIP3      OH2           -32.5364217142       -4.1605823472      -32.0122849110  TIP3      17128           0.0000000000
     73635     17320  TIP3      H1            -32.8502127028       -5.0164500669      -32.3592457472  TIP3      17128           0.0000000000
     73636     17320  TIP3      H2            -31.5774917004       -4.3270663268      -31.9924592925  TIP3      17128           0.0000000000
     73637     17321  TIP3      OH2           -35.6236438853      -10.5882619404      -36.9608706250  TIP3      17129           0.0000000000
     73638     17321  TIP3      H1            -36.0684566073       -9.7923340566      -36.5816750413  TIP3      17129           0.0000000000
     73639     17321  TIP3      H2            -36.4140618188      -11.1236862486      -36.9581026408  TIP3      17129           0.0000000000
     73640     17322  TIP3      OH2           -35.2097729477       -8.4284086143      -34.4463239090  TIP3      17130           0.0000000000
     73641     17322  TIP3      H1            -34.9151711027       -9.1870315679      -33.9192775034  TIP3      17130           0.0000000000
     73642     17322  TIP3      H2            -34.4694111862       -8.2610857973      -35.0486815085  TIP3      17130           0.0000000000
     73643     17323  TIP3      OH2           -25.0071011999       -0.1592676206      -33.5609657864  TIP3      17131           0.0000000000
     73644     17323  TIP3      H1            -24.3569331063       -0.8474881292      -33.8484465763  TIP3      17131           0.0000000000
     73645     17323  TIP3      H2            -25.2216426491       -0.4965170994      -32.6914344182  TIP3      17131           0.0000000000
     73646     17324  TIP3      OH2           -27.4388649170       -5.8668599805      -31.6062532530  TIP3      17132           0.0000000000
     73647     17324  TIP3      H1            -27.0977211425       -6.4921787092      -32.2658313320  TIP3      17132           0.0000000000
     73648     17324  TIP3      H2            -26.6309249731       -5.7109359568      -31.0864740853  TIP3      17132           0.0000000000
     73649     17325  TIP3      OH2           -18.8410554058      -14.1903045668      -30.8788501874  TIP3      17133           0.0000000000
     73650     17325  TIP3      H1            -18.6577328002      -13.6035036611      -30.1136034492  TIP3      17133           0.0000000000
     73651     17325  TIP3      H2            -18.2698622725      -13.7837831336      -31.5465159806  TIP3      17133           0.0000000000
     73652     17326  TIP3      OH2           -24.2697310731      -11.3954957729      -31.2939698720  TIP3      17134           0.0000000000
     73653     17326  TIP3      H1            -24.1036663289      -12.3537898084      -31.2909146172  TIP3      17134           0.0000000000
     73654     17326  TIP3      H2            -24.3676007149      -11.2564269993      -32.2562680553  TIP3      17134           0.0000000000
     73655     17327  TIP3      OH2           -31.1438779692      -13.3117047816      -34.0651505822  TIP3      17135           0.0000000000
     73656     17327  TIP3      H1            -31.0341083082      -12.4809864120      -34.5596993529  TIP3      17135           0.0000000000
     73657     17327  TIP3      H2            -31.5312320791      -13.8886353262      -34.7549765735  TIP3      17135           0.0000000000
     73658     17328  TIP3      OH2           -23.4181825995      -13.2331182622      -35.7107041573  TIP3      17136           0.0000000000
     73659     17328  TIP3      H1            -22.7670712524      -13.5458039867      -35.0406634037  TIP3      17136           0.0000000000
     73660     17328  TIP3      H2            -22.8540592973      -12.6521953596      -36.2418778305  TIP3      17136           0.0000000000
     73661     17329  TIP3      OH2           -34.5649526918      -10.9824944723      -33.4028723831  TIP3      17137           0.0000000000
     73662     17329  TIP3      H1            -33.8351274747      -11.4538401179      -32.9377891421  TIP3      17137           0.0000000000
     73663     17329  TIP3      H2            -34.3822038700      -11.2578941710      -34.3112071605  TIP3      17137           0.0000000000
     73664     17330  TIP3      OH2           -29.3768922150       -9.3470991536      -34.0250386958  TIP3      17138           0.0000000000
     73665     17330  TIP3      H1            -28.7057855869       -9.9301065544      -33.6258248345  TIP3      17138           0.0000000000
     73666     17330  TIP3      H2            -29.8893730029      -10.0036569459      -34.5356177507  TIP3      17138           0.0000000000
     73667     17331  TIP3      OH2           -18.3970993658      -12.7957042621      -28.6073322884  TIP3      17139           0.0000000000
     73668     17331  TIP3      H1            -19.0122622566      -12.0401305644      -28.7277269174  TIP3      17139           0.0000000000
     73669     17331  TIP3      H2            -18.3675192868      -12.8808843027      -27.6460136074  TIP3      17139           0.0000000000
     73670     17332  TIP3      OH2           -32.2400466202      -14.4208526823      -30.0543888912  TIP3      17140           0.0000000000
     73671     17332  TIP3      H1            -32.4968598390      -13.8250965932      -30.7803999033  TIP3      17140           0.0000000000
     73672     17332  TIP3      H2            -32.8885072756      -14.1725460092      -29.3636976791  TIP3      17140           0.0000000000
     73673     17333  TIP3      OH2           -24.9576954305       -4.9318072984      -36.4958747376  TIP3      17141           0.0000000000
     73674     17333  TIP3      H1            -25.2194355323       -5.2023973056      -37.3852459634  TIP3      17141           0.0000000000
     73675     17333  TIP3      H2            -25.2634722803       -3.9967315807      -36.4454016030  TIP3      17141           0.0000000000
     73676     17334  TIP3      OH2           -29.7058458736       -6.7674973502      -29.7850645032  TIP3      17142           0.0000000000
     73677     17334  TIP3      H1            -30.4209469480       -6.1214045012      -29.5977931728  TIP3      17142           0.0000000000
     73678     17334  TIP3      H2            -29.0092852824       -6.1734013979      -30.1094693850  TIP3      17142           0.0000000000
     73679     17335  TIP3      OH2           -21.6035878015      -13.8817660607      -33.7197178193  TIP3      17143           0.0000000000
     73680     17335  TIP3      H1            -21.8261185815      -14.6503586751      -33.1865182340  TIP3      17143           0.0000000000
     73681     17335  TIP3      H2            -20.9344560958      -13.4463171151      -33.1644222845  TIP3      17143           0.0000000000
     73682     17336  TIP3      OH2           -32.7222138345      -12.5380862912      -32.0488287682  TIP3      17144           0.0000000000
     73683     17336  TIP3      H1            -32.0730861966      -11.8904075185      -31.6770634976  TIP3      17144           0.0000000000
     73684     17336  TIP3      H2            -32.1463012606      -12.9692168972      -32.7343086049  TIP3      17144           0.0000000000
     73685     17337  TIP3      OH2           -31.2947109428       -4.7843030053      -28.9778677722  TIP3      17145           0.0000000000
     73686     17337  TIP3      H1            -31.3283415519       -3.8665308292      -29.3221631103  TIP3      17145           0.0000000000
     73687     17337  TIP3      H2            -32.1893322155       -4.8416770612      -28.5675844854  TIP3      17145           0.0000000000
     73688     17338  TIP3      OH2           -35.2392849435       -5.1188708616      -38.2398665556  TIP3      17146           0.0000000000
     73689     17338  TIP3      H1            -35.4407716807       -4.7800910209      -39.1259506615  TIP3      17146           0.0000000000
     73690     17338  TIP3      H2            -35.1207472459       -4.3115643813      -37.7042907787  TIP3      17146           0.0000000000
     73691     17339  TIP3      OH2           -21.5939648617       -3.4873072540      -31.4307468316  TIP3      17147           0.0000000000
     73692     17339  TIP3      H1            -22.5617815364       -3.3672739148      -31.3073154656  TIP3      17147           0.0000000000
     73693     17339  TIP3      H2            -21.3121088459       -2.5733042839      -31.6232125584  TIP3      17147           0.0000000000
     73694     17340  TIP3      OH2           -21.2817983827      -15.1902740188      -30.0490090153  TIP3      17148           0.0000000000
     73695     17340  TIP3      H1            -22.0044701635      -14.5543335901      -30.1347122554  TIP3      17148           0.0000000000
     73696     17340  TIP3      H2            -20.5619534038      -14.7737117371      -30.5663451589  TIP3      17148           0.0000000000
     73697     17341  TIP3      OH2           -28.2941174124      -17.0622549866      -32.6230412190  TIP3      17149           0.0000000000
     73698     17341  TIP3      H1            -28.4225981498      -18.0230728814      -32.6480722028  TIP3      17149           0.0000000000
     73699     17341  TIP3      H2            -29.1552207468      -16.7515260181      -32.2581777621  TIP3      17149           0.0000000000
     73700     17342  TIP3      OH2           -23.3351725424       -1.6947253257      -34.8451824234  TIP3      17150           0.0000000000
     73701     17342  TIP3      H1            -22.9079808998       -2.4154005324      -35.3523562248  TIP3      17150           0.0000000000
     73702     17342  TIP3      H2            -22.9004354070       -0.9067360795      -35.2349812562  TIP3      17150           0.0000000000
     73703     17343  TIP3      OH2           -22.1210757199       -3.7695610580      -36.3236729869  TIP3      17151           0.0000000000
     73704     17343  TIP3      H1            -22.4242640467       -4.4660750125      -36.9275188912  TIP3      17151           0.0000000000
     73705     17343  TIP3      H2            -22.0890961614       -4.2600799369      -35.4827959011  TIP3      17151           0.0000000000
     73706     17344  TIP3      OH2           -20.4519823387       -5.1854458789      -27.8363673851  TIP3      17152           0.0000000000
     73707     17344  TIP3      H1            -20.3723146998       -5.8261290184      -28.5760815755  TIP3      17152           0.0000000000
     73708     17344  TIP3      H2            -20.3252984442       -4.3247231096      -28.2727529567  TIP3      17152           0.0000000000
     73709     17345  TIP3      OH2           -26.0092671777       -8.2889798255      -38.0702173323  TIP3      17153           0.0000000000
     73710     17345  TIP3      H1            -26.7038437954       -7.7095547571      -38.4307645182  TIP3      17153           0.0000000000
     73711     17345  TIP3      H2            -25.2992248722       -8.1909088800      -38.7309841225  TIP3      17153           0.0000000000
     73712     17346  TIP3      OH2           -25.9283800833       -9.7160905422      -41.0597295026  TIP3      17154           0.0000000000
     73713     17346  TIP3      H1            -25.2238758160       -9.7350647934      -40.3944445280  TIP3      17154           0.0000000000
     73714     17346  TIP3      H2            -25.6227789956      -10.4344638806      -41.6283747706  TIP3      17154           0.0000000000
     73715     17347  TIP3      OH2           -18.5925958009       -8.8432302996      -29.7881425446  TIP3      17155           0.0000000000
     73716     17347  TIP3      H1            -19.2911182317       -8.1521598763      -29.7516935436  TIP3      17155           0.0000000000
     73717     17347  TIP3      H2            -18.1488890293       -8.6407157162      -30.6313373063  TIP3      17155           0.0000000000
     73718     17348  TIP3      OH2           -22.5527108680       -8.0781547588      -37.1496751319  TIP3      17156           0.0000000000
     73719     17348  TIP3      H1            -23.2983341898       -7.8331072196      -36.5507594385  TIP3      17156           0.0000000000
     73720     17348  TIP3      H2            -22.0857267515       -8.7521552653      -36.6250118897  TIP3      17156           0.0000000000
     73721     17349  TIP3      OH2           -22.6317570060       -9.9092451165      -28.0421368907  TIP3      17157           0.0000000000
     73722     17349  TIP3      H1            -22.6424058697       -9.1007855080      -27.4998639181  TIP3      17157           0.0000000000
     73723     17349  TIP3      H2            -23.2772484334       -9.6176901607      -28.7156264081  TIP3      17157           0.0000000000
     73724     17350  TIP3      OH2           -30.9281102464       -7.4014739027      -35.2368029583  TIP3      17158           0.0000000000
     73725     17350  TIP3      H1            -31.2781689082       -7.8048240739      -36.0672853732  TIP3      17158           0.0000000000
     73726     17350  TIP3      H2            -30.3296977563       -8.1063578978      -34.8993317422  TIP3      17158           0.0000000000
     73727     17351  TIP3      OH2           -29.6302349719       -4.0360441173      -32.5527651444  TIP3      17159           0.0000000000
     73728     17351  TIP3      H1            -29.6325850782       -4.5574342170      -33.3632049445  TIP3      17159           0.0000000000
     73729     17351  TIP3      H2            -28.8468402984       -4.3864562340      -32.0926982560  TIP3      17159           0.0000000000
     73730     17352  TIP3      OH2           -30.5921664765       -8.6629784144      -31.5576231089  TIP3      17160           0.0000000000
     73731     17352  TIP3      H1            -30.0585409788       -8.5735458431      -32.3694049008  TIP3      17160           0.0000000000
     73732     17352  TIP3      H2            -30.2252170320       -7.9722306143      -30.9655869383  TIP3      17160           0.0000000000
     73733     17353  TIP3      OH2           -24.1995578092       -3.0904718981      -30.8478969777  TIP3      17161           0.0000000000
     73734     17353  TIP3      H1            -24.5100024786       -2.4488551273      -30.2006508063  TIP3      17161           0.0000000000
     73735     17353  TIP3      H2            -24.4697360011       -3.9465232442      -30.4351803999  TIP3      17161           0.0000000000
     73736     17354  TIP3      OH2           -29.7149911198       -4.2601551761      -26.8257433471  TIP3      17162           0.0000000000
     73737     17354  TIP3      H1            -30.0731768692       -3.4508093594      -26.4113261802  TIP3      17162           0.0000000000
     73738     17354  TIP3      H2            -30.3300041568       -4.4190299519      -27.5788713034  TIP3      17162           0.0000000000
     73739     17355  TIP3      OH2           -23.6834036101       -8.8696860122      -39.4826072641  TIP3      17163           0.0000000000
     73740     17355  TIP3      H1            -23.1273240400       -8.6975274065      -38.6822097358  TIP3      17163           0.0000000000
     73741     17355  TIP3      H2            -23.2320369888       -8.3761375342      -40.2037918225  TIP3      17163           0.0000000000
     73742     17356  TIP3      OH2           -32.7310596701       -8.0563645714      -27.6418085513  TIP3      17164           0.0000000000
     73743     17356  TIP3      H1            -32.7809099788       -7.2845031661      -27.0527475187  TIP3      17164           0.0000000000
     73744     17356  TIP3      H2            -33.6526269965       -8.0049165729      -27.9760413327  TIP3      17164           0.0000000000
     73745     17357  TIP3      OH2           -25.9722454238       -2.1497817410      -36.0081785419  TIP3      17165           0.0000000000
     73746     17357  TIP3      H1            -25.5406078113       -1.8429842096      -35.2031290336  TIP3      17165           0.0000000000
     73747     17357  TIP3      H2            -26.5293807444       -1.4006360391      -36.2476811984  TIP3      17165           0.0000000000
     73748     17358  TIP3      OH2           -31.4324538937       -2.2492197437      -26.1339919836  TIP3      17166           0.0000000000
     73749     17358  TIP3      H1            -31.5015594812       -2.2898209764      -27.1049374127  TIP3      17166           0.0000000000
     73750     17358  TIP3      H2            -32.3729864965       -2.3214448019      -25.8835119286  TIP3      17166           0.0000000000
     73751     17359  TIP3      OH2           -19.9603586830      -17.1415296472      -39.5765075570  TIP3      17167           0.0000000000
     73752     17359  TIP3      H1            -20.9073618108      -17.0270244736      -39.3374486020  TIP3      17167           0.0000000000
     73753     17359  TIP3      H2            -19.7583560172      -16.3012973548      -40.0215195954  TIP3      17167           0.0000000000
     73754     17360  TIP3      OH2           -31.9660489984       -8.4016146627      -37.6033912849  TIP3      17168           0.0000000000
     73755     17360  TIP3      H1            -32.2538579030       -7.6196308416      -38.1171949490  TIP3      17168           0.0000000000
     73756     17360  TIP3      H2            -32.6219910629       -9.0622774233      -37.8380089757  TIP3      17168           0.0000000000
     73757     17361  TIP3      OH2           -18.8468458268       -2.7885580093      -41.2290460688  TIP3      17169           0.0000000000
     73758     17361  TIP3      H1            -18.6807961616       -1.8455364782      -41.0595604670  TIP3      17169           0.0000000000
     73759     17361  TIP3      H2            -17.9234154612       -3.1015069615      -41.2322989802  TIP3      17169           0.0000000000
     73760     17362  TIP3      OH2           -35.2863990290       -6.0991293190      -28.9597370883  TIP3      17170           0.0000000000
     73761     17362  TIP3      H1            -36.0500639058       -5.9619010867      -29.5610940563  TIP3      17170           0.0000000000
     73762     17362  TIP3      H2            -35.6752404114       -6.8830861385      -28.5173433642  TIP3      17170           0.0000000000
     73763     17363  TIP3      OH2           -35.8241943452       -2.9869293687      -32.2210527883  TIP3      17171           0.0000000000
     73764     17363  TIP3      H1            -35.0050576707       -3.3977294500      -31.9293516686  TIP3      17171           0.0000000000
     73765     17363  TIP3      H2            -36.1147867523       -2.5276505046      -31.4208652824  TIP3      17171           0.0000000000
     73766     17364  TIP3      OH2           -17.8616471950       -2.5392160546      -26.2668649708  TIP3      17172           0.0000000000
     73767     17364  TIP3      H1            -18.0532343403       -3.4814158440      -26.2513114055  TIP3      17172           0.0000000000
     73768     17364  TIP3      H2            -18.7311986147       -2.2463638965      -25.8706949379  TIP3      17172           0.0000000000
     73769     17365  TIP3      OH2           -26.9390013603       -2.9718311835      -27.4136389898  TIP3      17173           0.0000000000
     73770     17365  TIP3      H1            -26.8782896175       -2.1513112366      -26.8624049105  TIP3      17173           0.0000000000
     73771     17365  TIP3      H2            -27.8001961384       -3.3472229281      -27.1469354582  TIP3      17173           0.0000000000
     73772     17366  TIP3      OH2           -26.4898223063        0.7578529435      -37.5987979762  TIP3      17174           0.0000000000
     73773     17366  TIP3      H1            -26.6016820994        0.6801577897      -38.5637891506  TIP3      17174           0.0000000000
     73774     17366  TIP3      H2            -26.4890500277        1.7202388643      -37.4421635783  TIP3      17174           0.0000000000
     73775     17367  TIP3      OH2           -32.8651802447       -0.3589225283      -35.7857789103  TIP3      17175           0.0000000000
     73776     17367  TIP3      H1            -32.7184843016       -0.7658946153      -34.9028216155  TIP3      17175           0.0000000000
     73777     17367  TIP3      H2            -33.6973833645       -0.7923030490      -36.0226069989  TIP3      17175           0.0000000000
     73778     17368  TIP3      OH2           -23.4370543871       -0.0279153730      -40.6142363525  TIP3      17176           0.0000000000
     73779     17368  TIP3      H1            -22.9822757412       -0.7864546350      -41.0483981596  TIP3      17176           0.0000000000
     73780     17368  TIP3      H2            -23.3972977740       -0.2894678618      -39.6707860066  TIP3      17176           0.0000000000
     73781     17369  TIP3      OH2           -23.7414214780       -0.0932845024      -37.8399020623  TIP3      17177           0.0000000000
     73782     17369  TIP3      H1            -24.7036470347       -0.0175806802      -37.6686955155  TIP3      17177           0.0000000000
     73783     17369  TIP3      H2            -23.5080444831       -0.8354344197      -37.2616632186  TIP3      17177           0.0000000000
     73784     17370  TIP3      OH2           -20.7086182801      -11.0471760508      -25.7938746807  TIP3      17178           0.0000000000
     73785     17370  TIP3      H1            -21.2077175066      -10.5810549826      -26.4813651249  TIP3      17178           0.0000000000
     73786     17370  TIP3      H2            -20.7684893616      -11.9705807727      -26.0796543948  TIP3      17178           0.0000000000
     73787     17371  TIP3      OH2           -33.5761896413       -4.5995268199      -27.7089166617  TIP3      17179           0.0000000000
     73788     17371  TIP3      H1            -33.4359189646       -4.9952405363      -26.8434720508  TIP3      17179           0.0000000000
     73789     17371  TIP3      H2            -34.4289190779       -5.0016287716      -28.0025309031  TIP3      17179           0.0000000000
     73790     17372  TIP3      OH2           -30.9210199569      -16.1622491497      -31.8785785143  TIP3      17180           0.0000000000
     73791     17372  TIP3      H1            -31.8341994242      -16.2606466048      -32.2107967142  TIP3      17180           0.0000000000
     73792     17372  TIP3      H2            -31.0268956340      -15.3654703856      -31.3185060746  TIP3      17180           0.0000000000
     73793     17373  TIP3      OH2           -26.3417827677      -16.4684654139      -28.4202979734  TIP3      17181           0.0000000000
     73794     17373  TIP3      H1            -25.9171598690      -16.8997012446      -27.6516353846  TIP3      17181           0.0000000000
     73795     17373  TIP3      H2            -27.2917568271      -16.6133245678      -28.2867217315  TIP3      17181           0.0000000000
     73796     17374  TIP3      OH2           -22.9924405572      -12.6490963236      -27.5460882682  TIP3      17182           0.0000000000
     73797     17374  TIP3      H1            -23.5752172766      -12.8587686052      -26.7800594189  TIP3      17182           0.0000000000
     73798     17374  TIP3      H2            -23.1815739877      -11.7277624835      -27.7943645847  TIP3      17182           0.0000000000
     73799     17375  TIP3      OH2           -22.2365237225       -7.8385419372      -41.6683877359  TIP3      17183           0.0000000000
     73800     17375  TIP3      H1            -22.2561992275       -8.0328490847      -42.6341056607  TIP3      17183           0.0000000000
     73801     17375  TIP3      H2            -21.3766193378       -7.3976032725      -41.6154513552  TIP3      17183           0.0000000000
     73802     17376  TIP3      OH2           -26.6402915453      -13.9186232482      -41.1568742731  TIP3      17184           0.0000000000
     73803     17376  TIP3      H1            -26.9587737178      -13.9803896241      -40.2381029026  TIP3      17184           0.0000000000
     73804     17376  TIP3      H2            -26.9482476171      -14.7961344289      -41.4625396586  TIP3      17184           0.0000000000
     73805     17377  TIP3      OH2           -30.8529133796      -11.1943650057      -30.6041464285  TIP3      17185           0.0000000000
     73806     17377  TIP3      H1            -31.5611548901      -11.2297439753      -29.9373352288  TIP3      17185           0.0000000000
     73807     17377  TIP3      H2            -30.8602809748      -10.2740008459      -30.9397437275  TIP3      17185           0.0000000000
     73808     17378  TIP3      OH2           -30.8432701375      -11.0733069329      -35.7145899258  TIP3      17186           0.0000000000
     73809     17378  TIP3      H1            -31.7815780347      -11.3236530220      -35.8491118466  TIP3      17186           0.0000000000
     73810     17378  TIP3      H2            -30.4681813797      -11.3759872677      -36.5612109117  TIP3      17186           0.0000000000
     73811     17379  TIP3      OH2           -25.3447195187      -10.5786156996      -36.9298044123  TIP3      17187           0.0000000000
     73812     17379  TIP3      H1            -25.7359516158       -9.7563875233      -37.3007348560  TIP3      17187           0.0000000000
     73813     17379  TIP3      H2            -24.6562269675      -10.7493088292      -37.5950361325  TIP3      17187           0.0000000000
     73814     17380  TIP3      OH2           -26.2407311073      -10.5193648480      -25.6019172733  TIP3      17188           0.0000000000
     73815     17380  TIP3      H1            -26.8823083543      -11.0400917255      -25.1156708404  TIP3      17188           0.0000000000
     73816     17380  TIP3      H2            -25.5064393204      -10.4438115941      -24.9824114580  TIP3      17188           0.0000000000
     73817     17381  TIP3      OH2           -24.3056263240      -11.0863374623      -34.0936964859  TIP3      17189           0.0000000000
     73818     17381  TIP3      H1            -24.5916966711      -10.5254857007      -34.8333395072  TIP3      17189           0.0000000000
     73819     17381  TIP3      H2            -24.2132656936      -11.9379031584      -34.5613411002  TIP3      17189           0.0000000000
     73820     17382  TIP3      OH2           -33.2087581949      -10.9372964894      -28.8835624187  TIP3      17190           0.0000000000
     73821     17382  TIP3      H1            -33.1435695373      -10.5871888060      -27.9913798496  TIP3      17190           0.0000000000
     73822     17382  TIP3      H2            -33.6579229792      -11.7800495830      -28.7210095947  TIP3      17190           0.0000000000
     73823     17383  TIP3      OH2           -29.8281244268      -13.5506063564      -42.0414916460  TIP3      17191           0.0000000000
     73824     17383  TIP3      H1            -30.2769654004      -13.9731489098      -41.2818280259  TIP3      17191           0.0000000000
     73825     17383  TIP3      H2            -30.5414886381      -13.1224728962      -42.5304153457  TIP3      17191           0.0000000000
     73826     17384  TIP3      OH2           -36.1645970872      -13.5172452839      -35.0968136695  TIP3      17192           0.0000000000
     73827     17384  TIP3      H1            -35.8327176377      -13.8642795841      -34.2406657305  TIP3      17192           0.0000000000
     73828     17384  TIP3      H2            -36.0305089844      -14.2733796230      -35.6663035404  TIP3      17192           0.0000000000
     73829     17385  TIP3      OH2           -35.2884050321      -12.9738317851      -39.5835733290  TIP3      17193           0.0000000000
     73830     17385  TIP3      H1            -34.7313940553      -12.4172383970      -40.1670814853  TIP3      17193           0.0000000000
     73831     17385  TIP3      H2            -36.0161260100      -12.4144394154      -39.3388772300  TIP3      17193           0.0000000000
     73832     17386  TIP3      OH2           -25.1163225901       -9.4910047730      -29.5537913560  TIP3      17194           0.0000000000
     73833     17386  TIP3      H1            -24.7406216968      -10.2019927240      -30.1089551103  TIP3      17194           0.0000000000
     73834     17386  TIP3      H2            -25.5500309292       -9.9868556384      -28.8412635885  TIP3      17194           0.0000000000
     73835     17387  TIP3      OH2           -28.3057885306      -13.5260060704      -34.6995022960  TIP3      17195           0.0000000000
     73836     17387  TIP3      H1            -29.2408135823      -13.5236638525      -34.4089692998  TIP3      17195           0.0000000000
     73837     17387  TIP3      H2            -27.8321580872      -13.7012071377      -33.8720236444  TIP3      17195           0.0000000000
     73838     17388  TIP3      OH2           -33.4840259774      -11.9864416227      -35.8393655803  TIP3      17196           0.0000000000
     73839     17388  TIP3      H1            -34.3550601218      -11.8113515766      -36.2387747593  TIP3      17196           0.0000000000
     73840     17388  TIP3      H2            -33.2441697835      -12.8407730380      -36.2418668969  TIP3      17196           0.0000000000
     73841     17389  TIP3      OH2           -29.8573823041      -11.9330560594      -38.2073651392  TIP3      17197           0.0000000000
     73842     17389  TIP3      H1            -28.9010784786      -11.8168898773      -38.0504475330  TIP3      17197           0.0000000000
     73843     17389  TIP3      H2            -30.1086637778      -11.2465817533      -38.8536473759  TIP3      17197           0.0000000000
     73844     17390  TIP3      OH2           -23.8962799312      -14.2855025424      -31.4677538637  TIP3      17198           0.0000000000
     73845     17390  TIP3      H1            -24.5705623403      -14.2303806128      -30.7579823188  TIP3      17198           0.0000000000
     73846     17390  TIP3      H2            -24.4135668149      -14.5514065137      -32.2421585244  TIP3      17198           0.0000000000
     73847     17391  TIP3      OH2           -31.1362981273      -10.7623291904      -40.6310764776  TIP3      17199           0.0000000000
     73848     17391  TIP3      H1            -31.6762249639      -11.1244578631      -41.3518119424  TIP3      17199           0.0000000000
     73849     17391  TIP3      H2            -30.3153896744      -10.5434860148      -41.0979116821  TIP3      17199           0.0000000000
     73850     17392  TIP3      OH2           -20.7243320730        1.3957197417      -25.1200359544  TIP3      17200           0.0000000000
     73851     17392  TIP3      H1            -20.4133402691        1.7466507529      -25.9767300073  TIP3      17200           0.0000000000
     73852     17392  TIP3      H2            -19.9895636224        1.6245961017      -24.5245306173  TIP3      17200           0.0000000000
     73853     17393  TIP3      OH2           -32.9783060565       -6.2982882546      -25.5095204876  TIP3      17201           0.0000000000
     73854     17393  TIP3      H1            -32.3167284667       -5.8570440621      -24.9721983979  TIP3      17201           0.0000000000
     73855     17393  TIP3      H2            -33.8083681850       -6.0419929999      -25.0395607895  TIP3      17201           0.0000000000
     73856     17394  TIP3      OH2           -27.0389443159      -10.7841468716      -32.7952221926  TIP3      17202           0.0000000000
     73857     17394  TIP3      H1            -26.4384790085      -11.3106542069      -33.3382146179  TIP3      17202           0.0000000000
     73858     17394  TIP3      H2            -27.1847814202      -11.3383233521      -32.0153740516  TIP3      17202           0.0000000000
     73859     17395  TIP3      OH2           -32.0270512160      -14.6183788366      -36.3792450459  TIP3      17203           0.0000000000
     73860     17395  TIP3      H1            -32.3348275082      -15.5406230094      -36.3797433055  TIP3      17203           0.0000000000
     73861     17395  TIP3      H2            -31.2292250496      -14.6986654047      -36.9164139705  TIP3      17203           0.0000000000
     73862     17396  TIP3      OH2           -28.3644121051      -12.4326391158      -30.4278292006  TIP3      17204           0.0000000000
     73863     17396  TIP3      H1            -29.2248872513      -11.9820538257      -30.3192289131  TIP3      17204           0.0000000000
     73864     17396  TIP3      H2            -27.8647604363      -12.1213885340      -29.6736525644  TIP3      17204           0.0000000000
     73865     17397  TIP3      OH2           -27.7975729708       -6.2211185692      -38.6994006959  TIP3      17205           0.0000000000
     73866     17397  TIP3      H1            -28.5974348078       -6.6867081737      -39.0343044003  TIP3      17205           0.0000000000
     73867     17397  TIP3      H2            -28.0242284300       -6.0981593371      -37.7548583967  TIP3      17205           0.0000000000
     73868     17398  TIP3      OH2           -20.5849563989       -7.0257925953      -29.9021509675  TIP3      17206           0.0000000000
     73869     17398  TIP3      H1            -20.0533548697       -6.5300989783      -30.5482452730  TIP3      17206           0.0000000000
     73870     17398  TIP3      H2            -21.4588010881       -6.9805448861      -30.3442800540  TIP3      17206           0.0000000000
     73871     17399  TIP3      OH2           -23.9703624025      -13.4085721946      -40.5231787551  TIP3      17207           0.0000000000
     73872     17399  TIP3      H1            -24.9211926517      -13.2541449522      -40.6584598306  TIP3      17207           0.0000000000
     73873     17399  TIP3      H2            -23.6290733995      -12.5574464497      -40.1731402881  TIP3      17207           0.0000000000
     73874     17400  TIP3      OH2           -26.3124326866       -5.9716395466      -27.4868659958  TIP3      17208           0.0000000000
     73875     17400  TIP3      H1            -26.6084406351       -6.4003353433      -26.6700427189  TIP3      17208           0.0000000000
     73876     17400  TIP3      H2            -26.5705393849       -5.0539753486      -27.3462793476  TIP3      17208           0.0000000000
     73877     17401  TIP3      OH2           -23.2327050531      -11.4854916165      -38.8997811596  TIP3      17209           0.0000000000
     73878     17401  TIP3      H1            -22.3510469719      -11.6199544731      -38.4910926143  TIP3      17209           0.0000000000
     73879     17401  TIP3      H2            -23.1269888379      -10.6652288436      -39.4097774958  TIP3      17209           0.0000000000
     73880     17402  TIP3      OH2           -32.6925036427       -6.8245112941      -32.9080084846  TIP3      17210           0.0000000000
     73881     17402  TIP3      H1            -32.0179617954       -6.9072008872      -33.6030967673  TIP3      17210           0.0000000000
     73882     17402  TIP3      H2            -32.5980304278       -7.6660728930      -32.4307820926  TIP3      17210           0.0000000000
     73883     17403  TIP3      OH2           -25.7060772427       -4.7542181748      -39.6686968050  TIP3      17211           0.0000000000
     73884     17403  TIP3      H1            -26.0485682346       -3.9085504287      -39.3111275695  TIP3      17211           0.0000000000
     73885     17403  TIP3      H2            -26.4394140277       -5.3696320541      -39.4496398798  TIP3      17211           0.0000000000
     73886     17404  TIP3      OH2           -35.7473044077       -8.4393758553      -27.6127205300  TIP3      17212           0.0000000000
     73887     17404  TIP3      H1            -35.4708304653       -8.9013599311      -26.8046483314  TIP3      17212           0.0000000000
     73888     17404  TIP3      H2            -36.2949838812       -9.0868024673      -28.0818267350  TIP3      17212           0.0000000000
     73889     17405  TIP3      OH2           -24.0150625093       -3.5255835485      -27.4782459716  TIP3      17213           0.0000000000
     73890     17405  TIP3      H1            -24.9389338631       -3.3532817486      -27.7207362181  TIP3      17213           0.0000000000
     73891     17405  TIP3      H2            -24.0319995189       -3.2759127370      -26.5484993047  TIP3      17213           0.0000000000
     73892     17406  TIP3      OH2           -18.3269779770      -11.3570675920      -39.1234346718  TIP3      17214           0.0000000000
     73893     17406  TIP3      H1            -18.9002508084      -11.6370299988      -39.8609223935  TIP3      17214           0.0000000000
     73894     17406  TIP3      H2            -18.2539550484      -10.4068051352      -39.3705583671  TIP3      17214           0.0000000000
     73895     17407  TIP3      OH2           -18.2891429096       -5.5394179902      -26.3369469290  TIP3      17215           0.0000000000
     73896     17407  TIP3      H1            -19.2219732583       -5.3123953610      -26.6107996118  TIP3      17215           0.0000000000
     73897     17407  TIP3      H2            -17.8570762538       -5.4779210963      -27.1887695088  TIP3      17215           0.0000000000
     73898     17408  TIP3      OH2           -20.0783920296       -2.5197667423      -38.7261022488  TIP3      17216           0.0000000000
     73899     17408  TIP3      H1            -20.4083629022       -3.3572350353      -38.3762808998  TIP3      17216           0.0000000000
     73900     17408  TIP3      H2            -19.7224369285       -2.7392153479      -39.6028512152  TIP3      17216           0.0000000000
     73901     17409  TIP3      OH2           -22.8296504765       -7.7039860871      -31.6164565118  TIP3      17217           0.0000000000
     73902     17409  TIP3      H1            -23.7703114955       -7.9038546701      -31.7389979966  TIP3      17217           0.0000000000
     73903     17409  TIP3      H2            -22.4066592976       -8.4666996584      -32.0535245390  TIP3      17217           0.0000000000
     73904     17410  TIP3      OH2           -30.3268995281       -3.3664662018      -35.4997322594  TIP3      17218           0.0000000000
     73905     17410  TIP3      H1            -29.8203781088       -2.5676668758      -35.7184616512  TIP3      17218           0.0000000000
     73906     17410  TIP3      H2            -31.2057715507       -3.1384670429      -35.8346259608  TIP3      17218           0.0000000000
     73907     17411  TIP3      OH2           -34.6009081583       -8.5320495241      -40.9053043708  TIP3      17219           0.0000000000
     73908     17411  TIP3      H1            -33.9581196255       -7.8725587008      -40.5516892995  TIP3      17219           0.0000000000
     73909     17411  TIP3      H2            -35.4537340583       -8.1736801559      -40.6424984435  TIP3      17219           0.0000000000
     73910     17412  TIP3      OH2           -28.9050025065       -5.7026162158      -36.0082578053  TIP3      17220           0.0000000000
     73911     17412  TIP3      H1            -29.2168055180       -4.7859150638      -35.9042162553  TIP3      17220           0.0000000000
     73912     17412  TIP3      H2            -29.6154869997       -6.2011568045      -35.5556435958  TIP3      17220           0.0000000000
     73913     17413  TIP3      OH2           -28.4434228604       -1.5162798108      -29.6044830755  TIP3      17221           0.0000000000
     73914     17413  TIP3      H1            -27.9890663224       -0.7068765139      -29.8763975926  TIP3      17221           0.0000000000
     73915     17413  TIP3      H2            -27.8314285155       -1.8623508580      -28.9316597929  TIP3      17221           0.0000000000
     73916     17414  TIP3      OH2           -30.2258675450       -0.7169834128      -36.4721189191  TIP3      17222           0.0000000000
     73917     17414  TIP3      H1            -31.1895452976       -0.5729455947      -36.3364033315  TIP3      17222           0.0000000000
     73918     17414  TIP3      H2            -29.8602648118        0.1192081710      -36.1285307466  TIP3      17222           0.0000000000
     73919     17415  TIP3      OH2           -24.9126505669       -5.5139587919      -29.9716595020  TIP3      17223           0.0000000000
     73920     17415  TIP3      H1            -25.2588712651       -5.7264784865      -29.0793169278  TIP3      17223           0.0000000000
     73921     17415  TIP3      H2            -24.2841005272       -6.2354007700      -30.1381504506  TIP3      17223           0.0000000000
     73922     17416  TIP3      OH2           -22.5858571788       -4.4468292778      -40.8782383685  TIP3      17224           0.0000000000
     73923     17416  TIP3      H1            -22.2919467566       -4.9221338448      -40.0747781456  TIP3      17224           0.0000000000
     73924     17416  TIP3      H2            -23.5394883801       -4.6324904549      -40.7977538366  TIP3      17224           0.0000000000
     73925     17417  TIP3      OH2           -22.1167955537       -0.9419241194      -27.4920054630  TIP3      17225           0.0000000000
     73926     17417  TIP3      H1            -22.8085155290       -1.4382651797      -27.9614078796  TIP3      17225           0.0000000000
     73927     17417  TIP3      H2            -21.9302080015       -0.2331518282      -28.1391651659  TIP3      17225           0.0000000000
     73928     17418  TIP3      OH2           -18.1249377960       -0.0971516246      -40.6227848627  TIP3      17226           0.0000000000
     73929     17418  TIP3      H1            -17.4370222451        0.5676145298      -40.8285755576  TIP3      17226           0.0000000000
     73930     17418  TIP3      H2            -18.8398532046        0.5141004682      -40.3374161815  TIP3      17226           0.0000000000
     73931     17419  TIP3      OH2           -34.0715072774      -13.6564657806      -28.0966051837  TIP3      17227           0.0000000000
     73932     17419  TIP3      H1            -34.9744762953      -13.3208904225      -28.0938462133  TIP3      17227           0.0000000000
     73933     17419  TIP3      H2            -34.1627315041      -14.5356007069      -27.6844578755  TIP3      17227           0.0000000000
     73934     17420  TIP3      OH2           -21.8128576066       -5.8148659304      -38.6358308238  TIP3      17228           0.0000000000
     73935     17420  TIP3      H1            -22.0503742052       -6.6022026210      -38.0987581116  TIP3      17228           0.0000000000
     73936     17420  TIP3      H2            -20.8600915527       -5.7719780181      -38.4581256600  TIP3      17228           0.0000000000
     73937     17421  TIP3      OH2           -34.2696858719       -1.8534472852      -29.7094406409  TIP3      17229           0.0000000000
     73938     17421  TIP3      H1            -34.1485003267       -2.8118095694      -29.6505888025  TIP3      17229           0.0000000000
     73939     17421  TIP3      H2            -34.1841340650       -1.6162467036      -28.7807127584  TIP3      17229           0.0000000000
     73940     17422  TIP3      OH2           -28.4589113740       -3.3780548675      -42.3818667239  TIP3      17230           0.0000000000
     73941     17422  TIP3      H1            -28.3605340296       -4.1419655809      -42.9727727453  TIP3      17230           0.0000000000
     73942     17422  TIP3      H2            -28.9019069098       -3.8084472838      -41.6180551101  TIP3      17230           0.0000000000
     73943     17423  TIP3      OH2           -29.6888499223       -3.8511269605      -39.9297561159  TIP3      17231           0.0000000000
     73944     17423  TIP3      H1            -29.4171648097       -4.3655174041      -39.1601651421  TIP3      17231           0.0000000000
     73945     17423  TIP3      H2            -29.5964542147       -2.9248176361      -39.6072730642  TIP3      17231           0.0000000000
     73946     17424  TIP3      OH2           -33.1946795384       -6.6076303565      -39.4544570366  TIP3      17232           0.0000000000
     73947     17424  TIP3      H1            -33.9043904367       -6.2149819030      -38.9021310707  TIP3      17232           0.0000000000
     73948     17424  TIP3      H2            -32.6719297350       -5.8273874838      -39.7253207744  TIP3      17232           0.0000000000
     73949     17425  TIP3      OH2           -25.3215609225      -13.9098369487      -29.1221590671  TIP3      17233           0.0000000000
     73950     17425  TIP3      H1            -24.6305833806      -13.8444048706      -28.4546121763  TIP3      17233           0.0000000000
     73951     17425  TIP3      H2            -25.6968457121      -14.7927201875      -28.9481587386  TIP3      17233           0.0000000000
     73952     17426  TIP3      OH2           -24.5740362924      -14.3497981684      -38.0397552737  TIP3      17234           0.0000000000
     73953     17426  TIP3      H1            -24.3417593301      -13.8852391939      -38.8684818783  TIP3      17234           0.0000000000
     73954     17426  TIP3      H2            -23.9961412878      -13.9058583469      -37.4061122917  TIP3      17234           0.0000000000
     73955     17427  TIP3      OH2           -26.8826199803       -2.1882736683      -39.2348436977  TIP3      17235           0.0000000000
     73956     17427  TIP3      H1            -27.7006300770       -1.6557792248      -39.1624408743  TIP3      17235           0.0000000000
     73957     17427  TIP3      H2            -26.3437829221       -1.6376614087      -39.8211602014  TIP3      17235           0.0000000000
     73958     17428  TIP3      OH2           -27.3408143651      -12.5966920173      -37.2193642954  TIP3      17236           0.0000000000
     73959     17428  TIP3      H1            -26.5602494768      -12.0111885783      -37.1713445946  TIP3      17236           0.0000000000
     73960     17428  TIP3      H2            -27.6095119366      -12.7223347104      -36.2894829994  TIP3      17236           0.0000000000
     73961     17429  TIP3      OH2           -26.4954045771      -15.5398490171      -36.3409450901  TIP3      17237           0.0000000000
     73962     17429  TIP3      H1            -26.8167718766      -14.8928074013      -35.6891367332  TIP3      17237           0.0000000000
     73963     17429  TIP3      H2            -25.7994973599      -14.9931891854      -36.7800771903  TIP3      17237           0.0000000000
     73964     17430  TIP3      OH2           -29.4813569392       -1.1593838417      -39.2064596889  TIP3      17238           0.0000000000
     73965     17430  TIP3      H1            -29.3844956659       -0.3433111415      -39.7590378816  TIP3      17238           0.0000000000
     73966     17430  TIP3      H2            -29.7533377707       -0.7891821143      -38.3361286280  TIP3      17238           0.0000000000
     73967     17431  TIP3      OH2           -30.8235668310      -14.4330531543      -39.6300917333  TIP3      17239           0.0000000000
     73968     17431  TIP3      H1            -30.8838245939      -13.5369126379      -39.2413783039  TIP3      17239           0.0000000000
     73969     17431  TIP3      H2            -29.9181595571      -14.6754837682      -39.3632143925  TIP3      17239           0.0000000000
     73970     17432  TIP3      OH2           -20.6099618104      -13.7260210204      -27.1853547165  TIP3      17240           0.0000000000
     73971     17432  TIP3      H1            -21.5370448203      -13.3982649161      -27.3061112624  TIP3      17240           0.0000000000
     73972     17432  TIP3      H2            -20.3094615697      -13.7156859067      -28.1090601090  TIP3      17240           0.0000000000
     73973     17433  TIP3      OH2           -21.9928138480       -9.9136896772      -33.1798652068  TIP3      17241           0.0000000000
     73974     17433  TIP3      H1            -22.8193898102      -10.3581854448      -33.4511158932  TIP3      17241           0.0000000000
     73975     17433  TIP3      H2            -21.5158717876      -10.6003542413      -32.6604077379  TIP3      17241           0.0000000000
     73976     17434  TIP3      OH2           -32.6205807128       -3.9790160286      -40.5882631574  TIP3      17242           0.0000000000
     73977     17434  TIP3      H1            -31.9504856910       -3.3502071181      -40.2764579239  TIP3      17242           0.0000000000
     73978     17434  TIP3      H2            -32.0886224164       -4.4590644248      -41.2566952509  TIP3      17242           0.0000000000
     73979     17435  TIP3      OH2           -34.3030139737      -11.3293749291      -41.4532633784  TIP3      17243           0.0000000000
     73980     17435  TIP3      H1            -34.2329336257      -10.3749300873      -41.2517084283  TIP3      17243           0.0000000000
     73981     17435  TIP3      H2            -35.1871252931      -11.4996147642      -41.7943792150  TIP3      17243           0.0000000000
     73982     17436  TIP3      OH2           -20.9346144786       -0.6562514796      -31.5242212141  TIP3      17244           0.0000000000
     73983     17436  TIP3      H1            -21.0198787042        0.0346479432      -32.2071654246  TIP3      17244           0.0000000000
     73984     17436  TIP3      H2            -19.9743218409       -0.5975589357      -31.3252574526  TIP3      17244           0.0000000000
     73985     17437  TIP3      OH2           -33.4141103602      -16.5620028885      -32.7267859008  TIP3      17245           0.0000000000
     73986     17437  TIP3      H1            -33.6375829407      -16.4976801880      -33.6814294632  TIP3      17245           0.0000000000
     73987     17437  TIP3      H2            -33.8905082027      -17.3594070233      -32.4531523486  TIP3      17245           0.0000000000
     73988     17438  TIP3      OH2           -34.4683361850       -2.6042076748      -36.5310462086  TIP3      17246           0.0000000000
     73989     17438  TIP3      H1            -35.3271857866       -2.1795107500      -36.5919624882  TIP3      17246           0.0000000000
     73990     17438  TIP3      H2            -33.9962745883       -2.1470280562      -37.2430624545  TIP3      17246           0.0000000000
     73991     17439  TIP3      OH2           -34.9679376615        0.0680102322      -25.2839177541  TIP3      17247           0.0000000000
     73992     17439  TIP3      H1            -34.5684522902       -0.1597390955      -24.4290769718  TIP3      17247           0.0000000000
     73993     17439  TIP3      H2            -35.5061315785       -0.7347088180      -25.4352110397  TIP3      17247           0.0000000000
     73994     17440  TIP3      OH2           -30.6412830551       -1.0904088597      -23.6675352914  TIP3      17248           0.0000000000
     73995     17440  TIP3      H1            -29.8259064819       -1.4975936100      -23.3510003447  TIP3      17248           0.0000000000
     73996     17440  TIP3      H2            -30.6228285705       -1.2917495295      -24.6216413308  TIP3      17248           0.0000000000
     73997     17441  TIP3      OH2           -26.4656837665       -1.5271199443      -42.2586926196  TIP3      17249           0.0000000000
     73998     17441  TIP3      H1            -27.1582958913       -2.1865240884      -42.0310520320  TIP3      17249           0.0000000000
     73999     17441  TIP3      H2            -25.7474891808       -2.1256999637      -42.5066302067  TIP3      17249           0.0000000000
     74000     17442  TIP3      OH2           -21.9076439342       -1.7833612389      -42.0721765225  TIP3      17250           0.0000000000
     74001     17442  TIP3      H1            -21.6116344693       -2.5593406189      -41.5689532921  TIP3      17250           0.0000000000
     74002     17442  TIP3      H2            -21.1451523199       -1.5580995859      -42.6244652945  TIP3      17250           0.0000000000
     74003     17443  TIP3      OH2           -35.3603129602       -6.1900516426      -24.2938857641  TIP3      17251           0.0000000000
     74004     17443  TIP3      H1            -35.2194828478       -7.0869913228      -24.6341129842  TIP3      17251           0.0000000000
     74005     17443  TIP3      H2            -36.1000392494       -5.8807112575      -24.8390848165  TIP3      17251           0.0000000000
     74006     17444  TIP3      OH2           -31.0205908602       -5.8400376463      -42.2560764283  TIP3      17252           0.0000000000
     74007     17444  TIP3      H1            -30.8844031502       -6.6031540679      -41.6748509695  TIP3      17252           0.0000000000
     74008     17444  TIP3      H2            -30.2707373730       -5.9597730570      -42.8716932943  TIP3      17252           0.0000000000
     74009     17445  TIP3      OH2           -25.5898475371       -4.7334261591      -42.4761448046  TIP3      17253           0.0000000000
     74010     17445  TIP3      H1            -25.8602301720       -4.6523505152      -41.5478728802  TIP3      17253           0.0000000000
     74011     17445  TIP3      H2            -25.7793464399       -5.6910114978      -42.6206756058  TIP3      17253           0.0000000000
     74012     17446  TIP3      OH2           -22.9532883320       -6.3370552866      -27.5134914606  TIP3      17254           0.0000000000
     74013     17446  TIP3      H1            -22.1671999837       -5.7524849129      -27.5423177145  TIP3      17254           0.0000000000
     74014     17446  TIP3      H2            -23.6532893587       -5.6751519208      -27.4291191706  TIP3      17254           0.0000000000
     74015     17447  TIP3      OH2           -34.4391979800       -8.9706543154      -24.8964679378  TIP3      17255           0.0000000000
     74016     17447  TIP3      H1            -34.0497570289       -9.8534348887      -24.9999077236  TIP3      17255           0.0000000000
     74017     17447  TIP3      H2            -34.6928984464       -8.9537701759      -23.9604835387  TIP3      17255           0.0000000000
     74018     17448  TIP3      OH2           -29.8173206800       -7.8254588516      -39.8228787577  TIP3      17256           0.0000000000
     74019     17448  TIP3      H1            -30.3208501827       -8.3644430371      -39.1950768466  TIP3      17256           0.0000000000
     74020     17448  TIP3      H2            -29.5183174626       -8.4974493880      -40.4780382231  TIP3      17256           0.0000000000
     74021     17449  TIP3      OH2           -30.5603393604       -9.9777637825      -27.5278885936  TIP3      17257           0.0000000000
     74022     17449  TIP3      H1            -31.2318893673       -9.3197291954      -27.4808461730  TIP3      17257           0.0000000000
     74023     17449  TIP3      H2            -30.0989805794       -9.7072985229      -28.3443144343  TIP3      17257           0.0000000000
     74024     17450  TIP3      OH2           -28.7438333727       -9.6008906675      -41.6248841747  TIP3      17258           0.0000000000
     74025     17450  TIP3      H1            -28.8949298729       -9.6905412093      -42.5865987554  TIP3      17258           0.0000000000
     74026     17450  TIP3      H2            -27.7655131855       -9.5495334390      -41.5600834759  TIP3      17258           0.0000000000
     74027     17451  TIP3      OH2           -25.4751283086       -7.4278807495      -24.1840754092  TIP3      17259           0.0000000000
     74028     17451  TIP3      H1            -24.5205778333       -7.4734253486      -24.2917608835  TIP3      17259           0.0000000000
     74029     17451  TIP3      H2            -25.7137568484       -8.2104868362      -23.6450481444  TIP3      17259           0.0000000000
     74030     17452  TIP3      OH2           -19.4124873755       -7.2829642860      -42.2158067816  TIP3      17260           0.0000000000
     74031     17452  TIP3      H1            -19.6034522776       -7.6627733609      -43.0865768919  TIP3      17260           0.0000000000
     74032     17452  TIP3      H2            -19.3238443342       -6.3199980231      -42.4017475212  TIP3      17260           0.0000000000
     74033     17453  TIP3      OH2           -28.2225618079       -8.8333432494      -28.7362720529  TIP3      17261           0.0000000000
     74034     17453  TIP3      H1            -27.4290141062       -8.9206824723      -29.2676449865  TIP3      17261           0.0000000000
     74035     17453  TIP3      H2            -28.5503878382       -7.9545709351      -28.9848399865  TIP3      17261           0.0000000000
     74036     17454  TIP3      OH2           -23.8183566002      -11.0251608938      -23.7055122702  TIP3      17262           0.0000000000
     74037     17454  TIP3      H1            -23.5639357431      -11.9497045513      -23.7873237877  TIP3      17262           0.0000000000
     74038     17454  TIP3      H2            -22.9550747438      -10.5700011151      -23.7369576739  TIP3      17262           0.0000000000
     74039     17455  TIP3      OH2           -22.4532157613       -8.2426777864      -25.5889670402  TIP3      17263           0.0000000000
     74040     17455  TIP3      H1            -22.7198018924       -7.4828898228      -26.1416712598  TIP3      17263           0.0000000000
     74041     17455  TIP3      H2            -21.4954502460       -8.2107677824      -25.7565130886  TIP3      17263           0.0000000000
     74042     17456  TIP3      OH2           -31.8034011415      -11.2829111422      -24.7209824396  TIP3      17264           0.0000000000
     74043     17456  TIP3      H1            -32.4452541869      -12.0134482121      -24.6801982466  TIP3      17264           0.0000000000
     74044     17456  TIP3      H2            -31.0158203145      -11.7217343179      -25.0827405562  TIP3      17264           0.0000000000
     74045     17457  TIP3      OH2           -24.9515257243      -13.3785876624      -25.8355771593  TIP3      17265           0.0000000000
     74046     17457  TIP3      H1            -25.8982934803      -13.2745266514      -25.7285951132  TIP3      17265           0.0000000000
     74047     17457  TIP3      H2            -24.6943428001      -14.0167627311      -25.1469685132  TIP3      17265           0.0000000000
     74048     17458  TIP3      OH2           -23.3833678329      -14.7103138996      -23.9009489406  TIP3      17266           0.0000000000
     74049     17458  TIP3      H1            -23.4142397279      -15.6918316760      -23.8976344263  TIP3      17266           0.0000000000
     74050     17458  TIP3      H2            -23.6325478214      -14.4575103287      -22.9890741917  TIP3      17266           0.0000000000
     74051     17459  TIP3      OH2           -33.5287678680      -13.4602070487      -24.7769004948  TIP3      17267           0.0000000000
     74052     17459  TIP3      H1            -33.3259633978      -14.1855167949      -25.3947768736  TIP3      17267           0.0000000000
     74053     17459  TIP3      H2            -33.5673839470      -13.9248184316      -23.9062891472  TIP3      17267           0.0000000000
     74054     17460  TIP3      OH2           -28.9102238240        1.0999958156      -40.5472576894  TIP3      17268           0.0000000000
     74055     17460  TIP3      H1            -27.9434517835        1.1845752161      -40.4799586751  TIP3      17268           0.0000000000
     74056     17460  TIP3      H2            -29.0559438503        1.7008936996      -41.2867129496  TIP3      17268           0.0000000000
     74057     17461  TIP3      OH2           -35.3164462816       -4.3265243910      -41.0647477567  TIP3      17269           0.0000000000
     74058     17461  TIP3      H1            -34.3550191441       -4.2136272542      -40.8918635741  TIP3      17269           0.0000000000
     74059     17461  TIP3      H2            -35.2800221413       -4.9687449982      -41.7993754578  TIP3      17269           0.0000000000
     74060     17462  TIP3      OH2            36.8669651829        1.2196614182      -36.2746347008  TIP3      17270           0.0000000000
     74061     17462  TIP3      H1             35.9658180369        1.0086410278      -36.5958069443  TIP3      17270           0.0000000000
     74062     17462  TIP3      H2             36.9511107960        0.5825882922      -35.5252066676  TIP3      17270           0.0000000000
     74063     17463  TIP3      OH2           -35.7254178073       -0.7656092763      -34.2824230041  TIP3      17271           0.0000000000
     74064     17463  TIP3      H1            -36.0803670448       -1.6546542423      -34.0524510375  TIP3      17271           0.0000000000
     74065     17463  TIP3      H2            -35.4683471336       -0.4889081160      -33.3823377455  TIP3      17271           0.0000000000
     74066     17464  TIP3      OH2           -18.2137677686       -0.0091497862      -31.3089117381  TIP3      17272           0.0000000000
     74067     17464  TIP3      H1            -18.1824398643        0.1491976242      -30.3489030481  TIP3      17272           0.0000000000
     74068     17464  TIP3      H2            -17.5093185717        0.5734317705      -31.6105590530  TIP3      17272           0.0000000000
     74069     17465  TIP3      OH2           -18.6172735653       -0.4083034114      -28.3776049420  TIP3      17273           0.0000000000
     74070     17465  TIP3      H1            -19.1187870630       -1.1713963265      -28.7343229832  TIP3      17273           0.0000000000
     74071     17465  TIP3      H2            -18.1351218415       -0.8612543017      -27.6691433033  TIP3      17273           0.0000000000
     74072     17466  TIP3      OH2           -18.8810102673       -6.3621094723      -38.2625319332  TIP3      17274           0.0000000000
     74073     17466  TIP3      H1            -18.0135871418       -5.9731655208      -38.0748936729  TIP3      17274           0.0000000000
     74074     17466  TIP3      H2            -18.8973104147       -7.0831248498      -37.5961961299  TIP3      17274           0.0000000000
     74075     17467  TIP3      OH2           -18.5199921652       -8.2871608784      -36.3710650182  TIP3      17275           0.0000000000
     74076     17467  TIP3      H1            -19.2718638250       -8.7862152185      -35.9799202843  TIP3      17275           0.0000000000
     74077     17467  TIP3      H2            -17.9231204786       -8.1584850958      -35.6082446787  TIP3      17275           0.0000000000
     74078     17468  TIP3      OH2           -18.7340499169       -5.6024553771      -31.3547779130  TIP3      17276           0.0000000000
     74079     17468  TIP3      H1            -17.9504107598       -5.9662332460      -31.8001174648  TIP3      17276           0.0000000000
     74080     17468  TIP3      H2            -18.6276294700       -4.6482157156      -31.5633008939  TIP3      17276           0.0000000000
     74081     17469  TIP3      OH2           -20.2117028982       -2.6906404396      -29.1111569331  TIP3      17277           0.0000000000
     74082     17469  TIP3      H1            -20.9027096876       -2.3443149466      -28.5210624955  TIP3      17277           0.0000000000
     74083     17469  TIP3      H2            -20.7456769732       -3.0853324624      -29.8342787388  TIP3      17277           0.0000000000
     74084     17470  TIP3      OH2           -18.2195679593       -8.4640646239      -39.9810951951  TIP3      17278           0.0000000000
     74085     17470  TIP3      H1            -18.7863085779       -8.1227788168      -40.7049232379  TIP3      17278           0.0000000000
     74086     17470  TIP3      H2            -18.3192295848       -7.7509251328      -39.3230289730  TIP3      17278           0.0000000000
     74087     17471  TIP3      OH2           -19.8434739337      -11.2380933097      -41.4702265188  TIP3      17279           0.0000000000
     74088     17471  TIP3      H1            -19.7685674350      -10.5714903136      -42.1635441307  TIP3      17279           0.0000000000
     74089     17471  TIP3      H2            -20.0313278941      -12.0599529163      -41.9644294104  TIP3      17279           0.0000000000
     74090     17472  TIP3      OH2           -20.6987777098       -9.8156182965      -35.8016044855  TIP3      17280           0.0000000000
     74091     17472  TIP3      H1            -20.8469520320      -10.7701282961      -35.8437763350  TIP3      17280           0.0000000000
     74092     17472  TIP3      H2            -21.0304414452       -9.6013792380      -34.9093794207  TIP3      17280           0.0000000000
     74093     17473  TIP3      OH2           -35.6781467893       -7.7409039872      -31.8169154825  TIP3      17281           0.0000000000
     74094     17473  TIP3      H1            -35.4753077108       -7.7838623160      -32.7722350867  TIP3      17281           0.0000000000
     74095     17473  TIP3      H2            -34.7963356188       -7.8521274638      -31.3990385174  TIP3      17281           0.0000000000
     74096     17474  TIP3      OH2           -19.8375835109       -7.8608563289      -26.2061526800  TIP3      17282           0.0000000000
     74097     17474  TIP3      H1            -19.2616510730       -8.5941495505      -25.9000448260  TIP3      17282           0.0000000000
     74098     17474  TIP3      H2            -19.2778231029       -7.0740067823      -26.0821020677  TIP3      17282           0.0000000000
     74099     17475  TIP3      OH2           -18.3039964124       -9.9605771635      -25.5116512608  TIP3      17283           0.0000000000
     74100     17475  TIP3      H1            -19.2161261671      -10.3363839919      -25.5947340875  TIP3      17283           0.0000000000
     74101     17475  TIP3      H2            -17.7881150559      -10.7795066571      -25.5276324735  TIP3      17283           0.0000000000
     74102     17476  TIP3      OH2           -20.5947607487      -13.7623127829      -42.3322218670  TIP3      17284           0.0000000000
     74103     17476  TIP3      H1            -20.0083681459      -14.2008987804      -41.6895417504  TIP3      17284           0.0000000000
     74104     17476  TIP3      H2            -21.4610353339      -14.1786426344      -42.1801848601  TIP3      17284           0.0000000000
     74105     17477  TIP3      OH2           -21.0541937996      -12.2352969642      -37.3897927669  TIP3      17285           0.0000000000
     74106     17477  TIP3      H1            -20.7370835266      -13.1553111135      -37.2269717782  TIP3      17285           0.0000000000
     74107     17477  TIP3      H2            -20.2306466717      -11.8263434950      -37.6905594286  TIP3      17285           0.0000000000
     74108     17478  TIP3      OH2           -20.3935012734      -11.6864197863      -31.8999911105  TIP3      17286           0.0000000000
     74109     17478  TIP3      H1            -19.4323544035      -11.4596747165      -31.9132051087  TIP3      17286           0.0000000000
     74110     17478  TIP3      H2            -20.5798950982      -11.5471612159      -30.9583479637  TIP3      17286           0.0000000000
     74111     17479  TIP3      OH2           -20.3471827832      -10.9801704148      -29.1364799895  TIP3      17287           0.0000000000
     74112     17479  TIP3      H1            -21.2171947010      -10.6815261508      -28.7870288047  TIP3      17287           0.0000000000
     74113     17479  TIP3      H2            -19.9106859962      -10.1208312127      -29.3406578847  TIP3      17287           0.0000000000
     74114     17480  TIP3      OH2           -35.8484189257      -12.5550646948      -25.3864051935  TIP3      17288           0.0000000000
     74115     17480  TIP3      H1            -34.9149583947      -12.8414366471      -25.3506665305  TIP3      17288           0.0000000000
     74116     17480  TIP3      H2            -36.3901329766      -13.3629073902      -25.3222489598  TIP3      17288           0.0000000000
     74117     17481  TIP3      OH2           -17.9833347704      -16.9073181560      -23.7696943944  TIP3      17289           0.0000000000
     74118     17481  TIP3      H1            -17.7255719252      -17.5759741026      -24.4188801437  TIP3      17289           0.0000000000
     74119     17481  TIP3      H2            -17.9650545426      -16.0831867795      -24.2961157917  TIP3      17289           0.0000000000
     74120     17482  TIP3      OH2           -20.3576055065      -14.9436590982      -37.2984328610  TIP3      17290           0.0000000000
     74121     17482  TIP3      H1            -20.1460990728      -15.3802603190      -36.4451025411  TIP3      17290           0.0000000000
     74122     17482  TIP3      H2            -20.9584983075      -15.5829565941      -37.7356009869  TIP3      17290           0.0000000000
     74123     17483  TIP3      OH2           -34.8426576006      -14.1839236156      -32.7887250707  TIP3      17291           0.0000000000
     74124     17483  TIP3      H1            -34.3814534021      -14.9739947401      -32.4596356870  TIP3      17291           0.0000000000
     74125     17483  TIP3      H2            -34.3371361514      -13.4751730702      -32.3455892366  TIP3      17291           0.0000000000
     74126     17484  TIP3      OH2           -36.0209729935      -10.3828310183      -31.3377815589  TIP3      17292           0.0000000000
     74127     17484  TIP3      H1            -35.9813447849      -10.8115305438      -32.2193656839  TIP3      17292           0.0000000000
     74128     17484  TIP3      H2            -35.9460578643       -9.4688547400      -31.6223443576  TIP3      17292           0.0000000000
     74129     17485  TIP3      OH2           -18.5131047460      -14.8368426163      -25.4216166767  TIP3      17293           0.0000000000
     74130     17485  TIP3      H1            -19.4439649827      -14.5363268775      -25.4646868170  TIP3      17293           0.0000000000
     74131     17485  TIP3      H2            -18.5009187155      -15.3598989556      -26.2346142297  TIP3      17293           0.0000000000
     74132     17486  TIP3      OH2           -18.5431584462      -14.9089057681      -40.7446993914  TIP3      17294           0.0000000000
     74133     17486  TIP3      H1            -18.1317081920      -15.6221390141      -41.2824840417  TIP3      17294           0.0000000000
     74134     17486  TIP3      H2            -17.8367668073      -14.2480447024      -40.6946611509  TIP3      17294           0.0000000000
     74135     17487  TIP3      OH2           -35.7600613410      -14.9231319515      -38.0643505310  TIP3      17295           0.0000000000
     74136     17487  TIP3      H1            -36.7053314680      -14.7375383401      -37.9377952192  TIP3      17295           0.0000000000
     74137     17487  TIP3      H2            -35.5363502297      -14.1631550670      -38.6393932739  TIP3      17295           0.0000000000
     74138     17488  TIP3      OH2           -21.4912580790        0.0752889480      -35.6788141870  TIP3      17296           0.0000000000
     74139     17488  TIP3      H1            -20.8081269664       -0.2297645536      -36.3027080062  TIP3      17296           0.0000000000
     74140     17488  TIP3      H2            -20.9708964730        0.5737794431      -35.0328036822  TIP3      17296           0.0000000000
     74141     17489  TIP3      OH2            37.0325214438      -16.2488484624      -29.1111221918  TIP3      17297           0.0000000000
     74142     17489  TIP3      H1             36.2375126308      -16.4775542029      -28.6049967486  TIP3      17297           0.0000000000
     74143     17489  TIP3      H2             36.5519351623      -15.7416155652      -29.7904150640  TIP3      17297           0.0000000000
     74144     17490  TIP3      OH2           -34.0845116896       -3.0073642662      -25.1425822889  TIP3      17298           0.0000000000
     74145     17490  TIP3      H1            -34.9243229181       -2.8079534772      -25.5718680000  TIP3      17298           0.0000000000
     74146     17490  TIP3      H2            -34.3436901619       -3.0613658492      -24.2225557042  TIP3      17298           0.0000000000
     74147     17491  TIP3      OH2           -31.1166304284       -1.9948975035      -28.8752749704  TIP3      17299           0.0000000000
     74148     17491  TIP3      H1            -31.5075369815       -1.1548892578      -29.1673493311  TIP3      17299           0.0000000000
     74149     17491  TIP3      H2            -30.2022790619       -1.9139212058      -29.2041699267  TIP3      17299           0.0000000000
     74150     17492  TIP3      OH2           -26.7940010793       -0.6473188574      -26.0234690304  TIP3      17300           0.0000000000
     74151     17492  TIP3      H1            -26.6492939157       -0.9096223175      -25.0815236801  TIP3      17300           0.0000000000
     74152     17492  TIP3      H2            -25.9158466556       -0.2764927118      -26.2550350742  TIP3      17300           0.0000000000
     74153     17493  TIP3      OH2           -24.5246194219        0.6575230873      -26.6714700248  TIP3      17301           0.0000000000
     74154     17493  TIP3      H1            -23.7824166156        0.0836870073      -26.9166299372  TIP3      17301           0.0000000000
     74155     17493  TIP3      H2            -24.1521525285        1.0812690943      -25.8696687856  TIP3      17301           0.0000000000
     74156     17494  TIP3      OH2           -19.5115127995      -16.7158177261      -27.5692721785  TIP3      17302           0.0000000000
     74157     17494  TIP3      H1            -20.3354252412      -16.4127517115      -27.9844952738  TIP3      17302           0.0000000000
     74158     17494  TIP3      H2            -19.3450418316      -17.5362047523      -28.0896163601  TIP3      17302           0.0000000000
     74159     17495  TIP3      OH2           -33.6851858739        1.2228732468      -28.8780933670  TIP3      17303           0.0000000000
     74160     17495  TIP3      H1            -34.4344095601        1.7131481480      -29.2719019891  TIP3      17303           0.0000000000
     74161     17495  TIP3      H2            -34.0335492840        1.0304947006      -27.9930537995  TIP3      17303           0.0000000000
     74162     17496  TIP3      OH2           -31.2349110275        0.8021862538      -29.8439109141  TIP3      17304           0.0000000000
     74163     17496  TIP3      H1            -32.1307824744        0.9335035314      -29.4455560257  TIP3      17304           0.0000000000
     74164     17496  TIP3      H2            -31.2911426121        1.4007979338      -30.6077418583  TIP3      17304           0.0000000000
     74165     17497  TIP3      OH2           -26.5385226620        0.7016737671      -30.6641120081  TIP3      17305           0.0000000000
     74166     17497  TIP3      H1            -27.0026749824        1.2616400660      -31.3054856666  TIP3      17305           0.0000000000
     74167     17497  TIP3      H2            -26.4093659208        1.3305472156      -29.9240413407  TIP3      17305           0.0000000000
     74168     17498  TIP3      OH2           -24.2621877188       -0.4762221320      -29.6227574554  TIP3      17306           0.0000000000
     74169     17498  TIP3      H1            -25.1066796307       -0.1997715641      -30.0171722457  TIP3      17306           0.0000000000
     74170     17498  TIP3      H2            -23.7705834736        0.3557975960      -29.7303598418  TIP3      17306           0.0000000000
     74171     17499  TIP3      OH2           -21.6775903351        1.0803742126      -29.4111711036  TIP3      17307           0.0000000000
     74172     17499  TIP3      H1            -21.7212961015        2.0426953916      -29.6373464039  TIP3      17307           0.0000000000
     74173     17499  TIP3      H2            -21.4522267624        0.7101810020      -30.2852993982  TIP3      17307           0.0000000000
     74174     17500  TIP3      OH2           -34.3103423310       -0.1297594767      -31.9663154051  TIP3      17308           0.0000000000
     74175     17500  TIP3      H1            -34.3125246448       -0.5770414954      -31.0939128085  TIP3      17308           0.0000000000
     74176     17500  TIP3      H2            -33.4934018419       -0.5052277581      -32.3541656996  TIP3      17308           0.0000000000
     74177     17501  TIP3      OH2           -32.2102340600       -1.4154056913      -33.2959884181  TIP3      17309           0.0000000000
     74178     17501  TIP3      H1            -32.3647707722       -2.3529587737      -33.0635658966  TIP3      17309           0.0000000000
     74179     17501  TIP3      H2            -31.3431079527       -1.2640770488      -32.8587855472  TIP3      17309           0.0000000000
     74180     17502  TIP3      OH2           -29.5900300961       -0.9446767846      -32.4225090477  TIP3      17310           0.0000000000
     74181     17502  TIP3      H1            -29.4216012178       -1.8642318200      -32.6861761794  TIP3      17310           0.0000000000
     74182     17502  TIP3      H2            -29.5260089369       -0.9922137697      -31.4567630971  TIP3      17310           0.0000000000
     74183     17503  TIP3      OH2           -26.1264311203      -15.2869692902      -33.2722303003  TIP3      17311           0.0000000000
     74184     17503  TIP3      H1            -26.8111440254      -15.9248568236      -33.0103418780  TIP3      17311           0.0000000000
     74185     17503  TIP3      H2            -25.5786333322      -15.8166350062      -33.8628137186  TIP3      17311           0.0000000000
     74186     17504  TIP3      OH2           -20.9870930525      -17.2379718726      -33.2285261500  TIP3      17312           0.0000000000
     74187     17504  TIP3      H1            -20.3752817471      -16.6458620927      -33.7329891471  TIP3      17312           0.0000000000
     74188     17504  TIP3      H2            -21.8695147603      -16.8777722139      -33.4551169561  TIP3      17312           0.0000000000
     74189     17505  TIP3      OH2           -19.3177470650      -15.9905686705      -34.9508634725  TIP3      17313           0.0000000000
     74190     17505  TIP3      H1            -18.6299580884      -16.5654820850      -35.3640591710  TIP3      17313           0.0000000000
     74191     17505  TIP3      H2            -18.8112838496      -15.1534528154      -34.8415256399  TIP3      17313           0.0000000000
     74192     17506  TIP3      OH2           -33.7472907345      -16.6713086247      -35.4081915034  TIP3      17314           0.0000000000
     74193     17506  TIP3      H1            -34.5213325398      -16.8717141365      -35.9735692956  TIP3      17314           0.0000000000
     74194     17506  TIP3      H2            -33.2463882015      -17.5035422661      -35.5128304639  TIP3      17314           0.0000000000
     74195     17507  TIP3      OH2           -34.9678205228      -16.9295934254      -39.7650416501  TIP3      17315           0.0000000000
     74196     17507  TIP3      H1            -34.4581013836      -16.2572692708      -40.2496679501  TIP3      17315           0.0000000000
     74197     17507  TIP3      H2            -35.5282091204      -16.3610311682      -39.2013294733  TIP3      17315           0.0000000000
     74198     17508  TIP3      OH2           -29.2876535403      -16.7504556963      -35.6449388811  TIP3      17316           0.0000000000
     74199     17508  TIP3      H1            -28.3903658874      -16.3823147183      -35.7278282737  TIP3      17316           0.0000000000
     74200     17508  TIP3      H2            -29.3188350440      -16.9511613282      -34.7083933684  TIP3      17316           0.0000000000
     74201     17509  TIP3      OH2           -23.5663231422      -16.7174399174      -34.0297716930  TIP3      17317           0.0000000000
     74202     17509  TIP3      H1            -23.6193230753      -16.6043322372      -34.9874240584  TIP3      17317           0.0000000000
     74203     17509  TIP3      H2            -23.9469577720      -17.6209901315      -33.9015543519  TIP3      17317           0.0000000000
     74204     17510  TIP3      OH2           -22.3007270339      -16.6875978738      -38.3458524621  TIP3      17318           0.0000000000
     74205     17510  TIP3      H1            -23.0496332352      -16.0936827252      -38.5044606831  TIP3      17318           0.0000000000
     74206     17510  TIP3      H2            -22.7405038928      -17.5397507589      -38.1123316308  TIP3      17318           0.0000000000
     74207     17511  TIP3      OH2           -35.0664436989       -0.9224634621      -38.6637264581  TIP3      17319           0.0000000000
     74208     17511  TIP3      H1            -35.6721899839       -0.9510923665      -39.4188011783  TIP3      17319           0.0000000000
     74209     17511  TIP3      H2            -35.0452764854        0.0333880653      -38.5244547378  TIP3      17319           0.0000000000
     74210     17512  TIP3      OH2           -33.1653480123      -14.9606113345      -41.1760006967  TIP3      17320           0.0000000000
     74211     17512  TIP3      H1            -32.6401077144      -15.5636914269      -41.7332059927  TIP3      17320           0.0000000000
     74212     17512  TIP3      H2            -32.4633872429      -14.6507497214      -40.5745516596  TIP3      17320           0.0000000000
     74213     17513  TIP3      OH2           -28.1300219016      -14.7221469325      -38.8047673137  TIP3      17321           0.0000000000
     74214     17513  TIP3      H1            -27.8767037124      -15.3013322284      -38.0668567455  TIP3      17321           0.0000000000
     74215     17513  TIP3      H2            -28.0594796768      -13.8555636943      -38.3465148412  TIP3      17321           0.0000000000
     74216     17514  TIP3      OH2           -26.1963489009        0.3527151508      -40.3565482046  TIP3      17322           0.0000000000
     74217     17514  TIP3      H1            -25.2786254181        0.5783165098      -40.5786575046  TIP3      17322           0.0000000000
     74218     17514  TIP3      H2            -26.4167897954       -0.1672767475      -41.1574892757  TIP3      17322           0.0000000000
     74219     17515  TIP3      OH2           -19.5038069977       -0.1473391261      -37.6360623157  TIP3      17323           0.0000000000
     74220     17515  TIP3      H1            -19.6925121974       -0.9299314740      -38.2081448642  TIP3      17323           0.0000000000
     74221     17515  TIP3      H2            -19.5691844797        0.5873501524      -38.2800910301  TIP3      17323           0.0000000000
     74222     17516  TIP3      OH2           -33.8480291415      -16.0915236965      -25.9312424396  TIP3      17324           0.0000000000
     74223     17516  TIP3      H1            -34.2198683837      -16.9363951626      -25.6133370366  TIP3      17324           0.0000000000
     74224     17516  TIP3      H2            -32.9246305658      -16.1725611890      -25.6694311482  TIP3      17324           0.0000000000
     74225     17517  TIP3      OH2           -33.2757511920       -0.0032057348      -41.7649610898  TIP3      17325           0.0000000000
     74226     17517  TIP3      H1            -33.5249112088        0.2715424506      -40.8738064252  TIP3      17325           0.0000000000
     74227     17517  TIP3      H2            -32.4676989424       -0.5236656249      -41.5961605928  TIP3      17325           0.0000000000
     74228     17518  TIP3      OH2           -23.4477124809      -17.4374711865      -24.2012576345  TIP3      17326           0.0000000000
     74229     17518  TIP3      H1            -23.3343687146      -17.9051919753      -23.3472238275  TIP3      17326           0.0000000000
     74230     17518  TIP3      H2            -22.5367946989      -17.4751006934      -24.5648984299  TIP3      17326           0.0000000000
     74231     17519  TIP3      OH2           -20.1867330681       -1.3633472983      -25.6212125553  TIP3      17327           0.0000000000
     74232     17519  TIP3      H1            -21.0509846691       -1.5574713575      -26.0389223263  TIP3      17327           0.0000000000
     74233     17519  TIP3      H2            -20.3670756369       -0.4607613403      -25.3117228017  TIP3      17327           0.0000000000
     74234     17520  TIP3      OH2            -5.8052309919       -7.5197894831      -35.5951406266  TIP3      17328           0.0000000000
     74235     17520  TIP3      H1             -5.8262735689       -6.5393909700      -35.6132952470  TIP3      17328           0.0000000000
     74236     17520  TIP3      H2             -6.5397058167       -7.7550262229      -36.1862816203  TIP3      17328           0.0000000000
     74237     17521  TIP3      OH2            -6.9524456846       -8.2675821338      -32.0837868105  TIP3      17329           0.0000000000
     74238     17521  TIP3      H1             -6.9669617592       -8.9162953182      -31.3657424112  TIP3      17329           0.0000000000
     74239     17521  TIP3      H2             -7.3054794609       -8.7757955141      -32.8344277080  TIP3      17329           0.0000000000
     74240     17522  TIP3      OH2           -14.6414554829       -8.5434592296      -30.4498508351  TIP3      17330           0.0000000000
     74241     17522  TIP3      H1            -14.4921924778       -9.3069722588      -29.8547218338  TIP3      17330           0.0000000000
     74242     17522  TIP3      H2            -13.8180054572       -8.0405355979      -30.3494038175  TIP3      17330           0.0000000000
     74243     17523  TIP3      OH2            -3.2706102539       -5.3173463953      -33.7992421561  TIP3      17331           0.0000000000
     74244     17523  TIP3      H1             -3.6797388957       -6.0357371676      -33.3062748712  TIP3      17331           0.0000000000
     74245     17523  TIP3      H2             -3.2443349593       -4.6100494482      -33.1280425960  TIP3      17331           0.0000000000
     74246     17524  TIP3      OH2           -13.6821519275       -4.1588873965      -31.9899221856  TIP3      17332           0.0000000000
     74247     17524  TIP3      H1            -13.9776335845       -5.0089637872      -32.3672570612  TIP3      17332           0.0000000000
     74248     17524  TIP3      H2            -12.7191697228       -4.3151806890      -31.9955834528  TIP3      17332           0.0000000000
     74249     17525  TIP3      OH2           -17.0387123273      -10.5869997426      -36.5375122142  TIP3      17333           0.0000000000
     74250     17525  TIP3      H1            -17.4743250260       -9.7166175869      -36.6039904336  TIP3      17333           0.0000000000
     74251     17525  TIP3      H2            -17.5991586188      -11.1276168574      -37.1095237329  TIP3      17333           0.0000000000
     74252     17526  TIP3      OH2           -16.3238595292       -8.3564391880      -34.3804997979  TIP3      17334           0.0000000000
     74253     17526  TIP3      H1            -16.0504635418       -9.1837472731      -33.9418650147  TIP3      17334           0.0000000000
     74254     17526  TIP3      H2            -15.6357998493       -8.2527634254      -35.0571322478  TIP3      17334           0.0000000000
     74255     17527  TIP3      OH2            -6.1501513127       -0.1590982992      -33.5608040306  TIP3      17335           0.0000000000
     74256     17527  TIP3      H1             -5.5010237244       -0.8475801086      -33.8482154721  TIP3      17335           0.0000000000
     74257     17527  TIP3      H2             -6.3655874433       -0.4960864638      -32.6913859880  TIP3      17335           0.0000000000
     74258     17528  TIP3      OH2            -8.5792481941       -5.8704251953      -31.6093348277  TIP3      17336           0.0000000000
     74259     17528  TIP3      H1             -8.2415477365       -6.4942954605      -32.2695807125  TIP3      17336           0.0000000000
     74260     17528  TIP3      H2             -7.7686859159       -5.7092987134      -31.0954941599  TIP3      17336           0.0000000000
     74261     17529  TIP3      OH2             0.0372717801      -14.2002741493      -30.8991795467  TIP3      17337           0.0000000000
     74262     17529  TIP3      H1              0.1903186827      -13.6243318714      -30.1202340035  TIP3      17337           0.0000000000
     74263     17529  TIP3      H2              0.5995025709      -13.7686968404      -31.5551471758  TIP3      17337           0.0000000000
     74264     17530  TIP3      OH2            -5.4101300784      -11.4038101925      -31.2916743425  TIP3      17338           0.0000000000
     74265     17530  TIP3      H1             -5.2406941259      -12.3651908772      -31.2768839989  TIP3      17338           0.0000000000
     74266     17530  TIP3      H2             -5.5136343263      -11.2652283257      -32.2536665231  TIP3      17338           0.0000000000
     74267     17531  TIP3      OH2           -12.2993304024      -13.3084490060      -34.0829878950  TIP3      17339           0.0000000000
     74268     17531  TIP3      H1            -12.1907844701      -12.4743917244      -34.5761380804  TIP3      17339           0.0000000000
     74269     17531  TIP3      H2            -12.6967595066      -13.8825678998      -34.7726966474  TIP3      17339           0.0000000000
     74270     17532  TIP3      OH2            -4.5620192499      -13.2339478002      -35.7115509947  TIP3      17340           0.0000000000
     74271     17532  TIP3      H1             -3.9118938215      -13.5458793176      -35.0397084434  TIP3      17340           0.0000000000
     74272     17532  TIP3      H2             -3.9977917390      -12.6517637507      -36.2410381084  TIP3      17340           0.0000000000
     74273     17533  TIP3      OH2           -15.6716517544      -10.8976213903      -33.3491118491  TIP3      17341           0.0000000000
     74274     17533  TIP3      H1            -15.0049566234      -11.4485571298      -32.8991896538  TIP3      17341           0.0000000000
     74275     17533  TIP3      H2            -15.5699862301      -11.2124059706      -34.2604871716  TIP3      17341           0.0000000000
     74276     17534  TIP3      OH2           -10.5187493047       -9.3426337636      -34.0257319662  TIP3      17342           0.0000000000
     74277     17534  TIP3      H1             -9.8437999557       -9.9234145483      -33.6345031206  TIP3      17342           0.0000000000
     74278     17534  TIP3      H2            -11.0325803865      -10.0010612920      -34.5342920910  TIP3      17342           0.0000000000
     74279     17535  TIP3      OH2             0.5051180141      -12.7751310199      -28.6098948265  TIP3      17343           0.0000000000
     74280     17535  TIP3      H1             -0.1549307104      -12.0552956490      -28.7175214305  TIP3      17343           0.0000000000
     74281     17535  TIP3      H2              0.4884440011      -12.8989371141      -27.6465355348  TIP3      17343           0.0000000000
     74282     17536  TIP3      OH2           -13.3884965692      -14.3998349301      -30.0444610346  TIP3      17344           0.0000000000
     74283     17536  TIP3      H1            -13.6718635795      -13.8361815878      -30.7925045677  TIP3      17344           0.0000000000
     74284     17536  TIP3      H2            -14.0700433227      -14.1758780345      -29.3678018895  TIP3      17344           0.0000000000
     74285     17537  TIP3      OH2            -6.1015537014       -4.9292106388      -36.4867724198  TIP3      17345           0.0000000000
     74286     17537  TIP3      H1             -6.3615918790       -5.2026074429      -37.3776904676  TIP3      17345           0.0000000000
     74287     17537  TIP3      H2             -6.4084967220       -3.9954040355      -36.4419401102  TIP3      17345           0.0000000000
     74288     17538  TIP3      OH2           -10.9005367586       -6.7726301314      -29.8083656171  TIP3      17346           0.0000000000
     74289     17538  TIP3      H1            -11.5838610647       -6.1096291186      -29.5846358808  TIP3      17346           0.0000000000
     74290     17538  TIP3      H2            -10.1815563057       -6.1827264344      -30.0880475938  TIP3      17346           0.0000000000
     74291     17539  TIP3      OH2            -2.7572087998      -13.8806385492      -33.7182053916  TIP3      17347           0.0000000000
     74292     17539  TIP3      H1             -2.9681780122      -14.6534152537      -33.1870812992  TIP3      17347           0.0000000000
     74293     17539  TIP3      H2             -2.0714825504      -13.4486463623      -33.1820664728  TIP3      17347           0.0000000000
     74294     17540  TIP3      OH2           -13.8202765844      -12.5522077611      -32.0082166723  TIP3      17348           0.0000000000
     74295     17540  TIP3      H1            -13.1911513130      -11.8648421787      -31.6963385648  TIP3      17348           0.0000000000
     74296     17540  TIP3      H2            -13.3033869201      -12.9636649834      -32.7461022901  TIP3      17348           0.0000000000
     74297     17541  TIP3      OH2           -12.4403185395       -4.7736623034      -29.0005205050  TIP3      17349           0.0000000000
     74298     17541  TIP3      H1            -12.4492485441       -3.8465768790      -29.3099482604  TIP3      17349           0.0000000000
     74299     17541  TIP3      H2            -13.3062877690       -4.8116396660      -28.5405236703  TIP3      17349           0.0000000000
     74300     17542  TIP3      OH2           -16.3480573686       -5.1532539555      -38.1914204921  TIP3      17350           0.0000000000
     74301     17542  TIP3      H1            -16.5990663454       -4.8135249741      -39.0681734789  TIP3      17350           0.0000000000
     74302     17542  TIP3      H2            -16.2686607226       -4.3257085072      -37.6759370170  TIP3      17350           0.0000000000
     74303     17543  TIP3      OH2            -2.7409863683       -3.4809704979      -31.4337438968  TIP3      17351           0.0000000000
     74304     17543  TIP3      H1             -3.7086203151       -3.3691690859      -31.3099910033  TIP3      17351           0.0000000000
     74305     17543  TIP3      H2             -2.4706770258       -2.5648203348      -31.6337264206  TIP3      17351           0.0000000000
     74306     17544  TIP3      OH2            -2.4173368545      -15.2038577951      -30.1121125420  TIP3      17352           0.0000000000
     74307     17544  TIP3      H1             -3.1487746364      -14.5788433477      -30.0899963169  TIP3      17352           0.0000000000
     74308     17544  TIP3      H2             -1.7018227008      -14.7409971520      -30.5765944720  TIP3      17352           0.0000000000
     74309     17545  TIP3      OH2            -9.4522133271      -17.0733270875      -32.5801060902  TIP3      17353           0.0000000000
     74310     17545  TIP3      H1             -9.5958253029      -18.0388599574      -32.6517278711  TIP3      17353           0.0000000000
     74311     17545  TIP3      H2            -10.3307397562      -16.7699267363      -32.2701072775  TIP3      17353           0.0000000000
     74312     17546  TIP3      OH2            -4.4788050915       -1.6950317217      -34.8448942691  TIP3      17354           0.0000000000
     74313     17546  TIP3      H1             -4.0518164133       -2.4150427265      -35.3522478454  TIP3      17354           0.0000000000
     74314     17546  TIP3      H2             -4.0447559185       -0.9067821428      -35.2351317089  TIP3      17354           0.0000000000
     74315     17547  TIP3      OH2            -3.2562967448       -3.7698541645      -36.3263714427  TIP3      17355           0.0000000000
     74316     17547  TIP3      H1             -3.5799856134       -4.4675914442      -36.9106019235  TIP3      17355           0.0000000000
     74317     17547  TIP3      H2             -3.2306566800       -4.2535466508      -35.4804656313  TIP3      17355           0.0000000000
     74318     17548  TIP3      OH2            -1.6657568755       -5.1761805181      -27.8240762293  TIP3      17356           0.0000000000
     74319     17548  TIP3      H1             -1.5086676155       -5.8323181043      -28.5379843070  TIP3      17356           0.0000000000
     74320     17548  TIP3      H2             -1.4310415785       -4.3339328260      -28.2578500589  TIP3      17356           0.0000000000
     74321     17549  TIP3      OH2            -7.1635498933       -8.2920106483      -38.0628954086  TIP3      17357           0.0000000000
     74322     17549  TIP3      H1             -7.8478421914       -7.7065075784      -38.4321432396  TIP3      17357           0.0000000000
     74323     17549  TIP3      H2             -6.4515289878       -8.2001742256      -38.7197319691  TIP3      17357           0.0000000000
     74324     17550  TIP3      OH2            -7.0449493056       -9.6847570256      -41.0835204736  TIP3      17358           0.0000000000
     74325     17550  TIP3      H1             -6.3803733708       -9.7503317606      -40.3814164503  TIP3      17358           0.0000000000
     74326     17550  TIP3      H2             -6.7840038902      -10.4468660636      -41.6184233355  TIP3      17358           0.0000000000
     74327     17551  TIP3      OH2             0.2334524947       -8.8644574071      -29.8008593439  TIP3      17359           0.0000000000
     74328     17551  TIP3      H1             -0.4188122210       -8.1361172475      -29.7426369891  TIP3      17359           0.0000000000
     74329     17551  TIP3      H2              0.7327022479       -8.6230343435      -30.6035509317  TIP3      17359           0.0000000000
     74330     17552  TIP3      OH2            -3.7056051562       -8.0633408990      -37.1504105510  TIP3      17360           0.0000000000
     74331     17552  TIP3      H1             -4.4510511270       -7.8288752691      -36.5494519826  TIP3      17360           0.0000000000
     74332     17552  TIP3      H2             -3.2347047794       -8.7429590290      -36.6335526173  TIP3      17360           0.0000000000
     74333     17553  TIP3      OH2            -3.7828828724       -9.9126381597      -28.0367932493  TIP3      17361           0.0000000000
     74334     17553  TIP3      H1             -3.7715079055       -9.1066632394      -27.4905711579  TIP3      17361           0.0000000000
     74335     17553  TIP3      H2             -4.4150336230       -9.6079602288      -28.7146612314  TIP3      17361           0.0000000000
     74336     17554  TIP3      OH2           -12.0970473983       -7.4177907770      -35.2285496761  TIP3      17362           0.0000000000
     74337     17554  TIP3      H1            -12.4145715226       -7.8061308051      -36.0792566229  TIP3      17362           0.0000000000
     74338     17554  TIP3      H2            -11.4781337512       -8.1059715564      -34.8979470236  TIP3      17362           0.0000000000
     74339     17555  TIP3      OH2           -10.7800870715       -4.0339498513      -32.5484490562  TIP3      17363           0.0000000000
     74340     17555  TIP3      H1            -10.7793366537       -4.5550840533      -33.3602186077  TIP3      17363           0.0000000000
     74341     17555  TIP3      H2             -9.9945320658       -4.3856249529      -32.0899707939  TIP3      17363           0.0000000000
     74342     17556  TIP3      OH2           -11.7676534091       -8.6681842331      -31.5684156578  TIP3      17364           0.0000000000
     74343     17556  TIP3      H1            -11.2188345367       -8.5734376325      -32.3720702836  TIP3      17364           0.0000000000
     74344     17556  TIP3      H2            -11.3634468524       -8.0040105965      -30.9639606699  TIP3      17364           0.0000000000
     74345     17557  TIP3      OH2            -5.3415270520       -3.0948665447      -30.8599879091  TIP3      17365           0.0000000000
     74346     17557  TIP3      H1             -5.6364885630       -2.4582514572      -30.2026902049  TIP3      17365           0.0000000000
     74347     17557  TIP3      H2             -5.5981486717       -3.9475205288      -30.4383137199  TIP3      17365           0.0000000000
     74348     17558  TIP3      OH2           -10.8382207309       -4.2834810405      -26.8430175175  TIP3      17366           0.0000000000
     74349     17558  TIP3      H1            -11.1893682332       -3.4940781960      -26.3718256907  TIP3      17366           0.0000000000
     74350     17558  TIP3      H2            -11.4711177712       -4.4154112713      -27.5768742459  TIP3      17366           0.0000000000
     74351     17559  TIP3      OH2            -4.8350232480       -8.8566403453      -39.4810652012  TIP3      17367           0.0000000000
     74352     17559  TIP3      H1             -4.2838355264       -8.7003088688      -38.6743833476  TIP3      17367           0.0000000000
     74353     17559  TIP3      H2             -4.3641804892       -8.3911434602      -40.1994620244  TIP3      17367           0.0000000000
     74354     17560  TIP3      OH2           -13.8342400229       -8.0643065900      -27.6930350854  TIP3      17368           0.0000000000
     74355     17560  TIP3      H1            -13.7724939097       -7.4267136930      -26.9623599764  TIP3      17368           0.0000000000
     74356     17560  TIP3      H2            -14.7504113913       -8.1536210932      -27.9818686013  TIP3      17368           0.0000000000
     74357     17561  TIP3      OH2            -7.1161008550       -2.1497599112      -36.0085272889  TIP3      17369           0.0000000000
     74358     17561  TIP3      H1             -6.6847212826       -1.8431200860      -35.2031978919  TIP3      17369           0.0000000000
     74359     17561  TIP3      H2             -7.6738412871       -1.4007434357      -36.2471010821  TIP3      17369           0.0000000000
     74360     17562  TIP3      OH2           -12.6177787108       -2.3331312815      -26.1409571890  TIP3      17370           0.0000000000
     74361     17562  TIP3      H1            -12.6075244873       -2.2761439139      -27.1050330142  TIP3      17370           0.0000000000
     74362     17562  TIP3      H2            -13.5432333054       -2.3081096291      -25.8860093882  TIP3      17370           0.0000000000
     74363     17563  TIP3      OH2            -1.1046345222      -17.1414894002      -39.5767279023  TIP3      17371           0.0000000000
     74364     17563  TIP3      H1             -2.0514223842      -17.0262212035      -39.3374372661  TIP3      17371           0.0000000000
     74365     17563  TIP3      H2             -0.9021600379      -16.3013256601      -40.0216663772  TIP3      17371           0.0000000000
     74366     17564  TIP3      OH2           -13.1335269649       -8.3974963030      -37.6012419853  TIP3      17372           0.0000000000
     74367     17564  TIP3      H1            -13.4116019255       -7.6120964418      -38.1186405021  TIP3      17372           0.0000000000
     74368     17564  TIP3      H2            -13.7801871868       -9.0612717620      -37.8464988450  TIP3      17372           0.0000000000
     74369     17565  TIP3      OH2             0.0029345940       -2.7964083006      -41.2405881161  TIP3      17373           0.0000000000
     74370     17565  TIP3      H1              0.1723823844       -1.8515648301      -41.0594162772  TIP3      17373           0.0000000000
     74371     17565  TIP3      H2              0.9346980390       -3.0935023010      -41.2272421164  TIP3      17373           0.0000000000
     74372     17566  TIP3      OH2           -17.1575736945       -5.9055880240      -28.9058558435  TIP3      17374           0.0000000000
     74373     17566  TIP3      H1            -17.6121380543       -5.9737475268      -29.7781000872  TIP3      17374           0.0000000000
     74374     17566  TIP3      H2            -17.2190657243       -6.8514504513      -28.7148025170  TIP3      17374           0.0000000000
     74375     17567  TIP3      OH2           -17.2699738997       -3.2343851159      -31.9286640261  TIP3      17375           0.0000000000
     74376     17567  TIP3      H1            -16.3122403288       -3.3262108467      -31.9804952555  TIP3      17375           0.0000000000
     74377     17567  TIP3      H2            -17.3577704273       -2.4066117517      -31.4407080810  TIP3      17375           0.0000000000
     74378     17568  TIP3      OH2             0.9315019853       -2.5088505268      -26.2905297130  TIP3      17376           0.0000000000
     74379     17568  TIP3      H1              0.8655432440       -3.4749215518      -26.2703411028  TIP3      17376           0.0000000000
     74380     17568  TIP3      H2              0.0683942602       -2.2893029989      -25.8776624317  TIP3      17376           0.0000000000
     74381     17569  TIP3      OH2            -8.0776476196       -2.9612995555      -27.4100904701  TIP3      17377           0.0000000000
     74382     17569  TIP3      H1             -8.0261253294       -2.1422011834      -26.8564874163  TIP3      17377           0.0000000000
     74383     17569  TIP3      H2             -8.9250192437       -3.3392864856      -27.1111059800  TIP3      17377           0.0000000000
     74384     17570  TIP3      OH2            -7.6337379072        0.7579537898      -37.5986791997  TIP3      17378           0.0000000000
     74385     17570  TIP3      H1             -7.7456945256        0.6801658710      -38.5637587833  TIP3      17378           0.0000000000
     74386     17570  TIP3      H2             -7.6328533036        1.7203908232      -37.4420861809  TIP3      17378           0.0000000000
     74387     17571  TIP3      OH2           -13.9990936104       -0.3622336345      -35.7740239891  TIP3      17379           0.0000000000
     74388     17571  TIP3      H1            -13.8529555750       -0.7766152553      -34.8969920037  TIP3      17379           0.0000000000
     74389     17571  TIP3      H2            -14.8470509470       -0.7720049700      -36.0135511025  TIP3      17379           0.0000000000
     74390     17572  TIP3      OH2            -4.5855647460       -0.0127345736      -40.6085119820  TIP3      17380           0.0000000000
     74391     17572  TIP3      H1             -4.1312000355       -0.7642610613      -41.0473920913  TIP3      17380           0.0000000000
     74392     17572  TIP3      H2             -4.5437375438       -0.2860717286      -39.6683531161  TIP3      17380           0.0000000000
     74393     17573  TIP3      OH2            -4.8833233752       -0.0918758486      -37.8395792410  TIP3      17381           0.0000000000
     74394     17573  TIP3      H1             -5.8451327359       -0.0177305010      -37.6701542402  TIP3      17381           0.0000000000
     74395     17573  TIP3      H2             -4.6520915618       -0.8316431348      -37.2589250757  TIP3      17381           0.0000000000
     74396     17574  TIP3      OH2            -1.9060784548      -11.0714803368      -25.7888177756  TIP3      17382           0.0000000000
     74397     17574  TIP3      H1             -2.3678685008      -10.6069077396      -26.5079813815  TIP3      17382           0.0000000000
     74398     17574  TIP3      H2             -1.8882379877      -11.9914273467      -26.1126707006  TIP3      17382           0.0000000000
     74399     17575  TIP3      OH2           -14.7286196997       -4.6954092106      -27.8165803060  TIP3      17383           0.0000000000
     74400     17575  TIP3      H1            -14.5170831188       -4.9029744235      -26.8756630961  TIP3      17383           0.0000000000
     74401     17575  TIP3      H2            -15.6702927658       -4.8320606669      -28.0211142512  TIP3      17383           0.0000000000
     74402     17576  TIP3      OH2           -12.0675847735      -16.1710820748      -31.8279886229  TIP3      17384           0.0000000000
     74403     17576  TIP3      H1            -12.9705547812      -16.2993500245      -32.1932731005  TIP3      17384           0.0000000000
     74404     17576  TIP3      H2            -12.2023688032      -15.3420838437      -31.3401922478  TIP3      17384           0.0000000000
     74405     17577  TIP3      OH2            -7.4484667613      -16.5117548916      -28.4636661783  TIP3      17385           0.0000000000
     74406     17577  TIP3      H1             -7.0069624422      -16.9041499903      -27.6897600379  TIP3      17385           0.0000000000
     74407     17577  TIP3      H2             -8.4121275094      -16.6262224476      -28.2899382183  TIP3      17385           0.0000000000
     74408     17578  TIP3      OH2            -4.1316312411      -12.6481324158      -27.5600190946  TIP3      17386           0.0000000000
     74409     17578  TIP3      H1             -4.7158510910      -12.8818769607      -26.8049288705  TIP3      17386           0.0000000000
     74410     17578  TIP3      H2             -4.3294309789      -11.7281753640      -27.7907662793  TIP3      17386           0.0000000000
     74411     17579  TIP3      OH2            -3.3556513519       -7.9372310809      -41.6399124847  TIP3      17387           0.0000000000
     74412     17579  TIP3      H1             -3.3894186916       -8.2169822275      -42.5971657639  TIP3      17387           0.0000000000
     74413     17579  TIP3      H2             -2.4317729508       -7.6339168013      -41.5341963247  TIP3      17387           0.0000000000
     74414     17580  TIP3      OH2            -7.7842174500      -13.9181302084      -41.1558602846  TIP3      17388           0.0000000000
     74415     17580  TIP3      H1             -8.0992879057      -13.9822840896      -40.2357343605  TIP3      17388           0.0000000000
     74416     17580  TIP3      H2             -8.0920309159      -14.7958411459      -41.4620339756  TIP3      17388           0.0000000000
     74417     17581  TIP3      OH2           -11.9645096953      -11.1960328975      -30.5660120260  TIP3      17389           0.0000000000
     74418     17581  TIP3      H1            -12.7022314253      -11.2073234276      -29.9319539578  TIP3      17389           0.0000000000
     74419     17581  TIP3      H2            -12.0113070109      -10.2894845655      -30.9442138854  TIP3      17389           0.0000000000
     74420     17582  TIP3      OH2           -12.0057387857      -11.0851861569      -35.7073304501  TIP3      17390           0.0000000000
     74421     17582  TIP3      H1            -12.9446667550      -11.3323121945      -35.8384809750  TIP3      17390           0.0000000000
     74422     17582  TIP3      H2            -11.6297818117      -11.3738257366      -36.5625958737  TIP3      17390           0.0000000000
     74423     17583  TIP3      OH2            -6.4864532200      -10.5791588665      -36.9307796454  TIP3      17391           0.0000000000
     74424     17583  TIP3      H1             -6.8773991147       -9.7558567900      -37.3044811602  TIP3      17391           0.0000000000
     74425     17583  TIP3      H2             -5.7984018345      -10.7501866706      -37.5952974125  TIP3      17391           0.0000000000
     74426     17584  TIP3      OH2            -7.4143844647      -10.3684067855      -25.5076037140  TIP3      17392           0.0000000000
     74427     17584  TIP3      H1             -7.9489518339      -11.1389341817      -25.2031875167  TIP3      17392           0.0000000000
     74428     17584  TIP3      H2             -6.5908764636      -10.4961467664      -25.0095569904  TIP3      17392           0.0000000000
     74429     17585  TIP3      OH2            -5.4498602231      -11.0861923386      -34.0938148435  TIP3      17393           0.0000000000
     74430     17585  TIP3      H1             -5.7368951744      -10.5252662909      -34.8336973833  TIP3      17393           0.0000000000
     74431     17585  TIP3      H2             -5.3570676344      -11.9381232215      -34.5607598359  TIP3      17393           0.0000000000
     74432     17586  TIP3      OH2           -14.3782224037      -10.9247373247      -28.8818017061  TIP3      17394           0.0000000000
     74433     17586  TIP3      H1            -14.2509343208      -10.5730695837      -27.9871462927  TIP3      17394           0.0000000000
     74434     17586  TIP3      H2            -14.7713747461      -11.7965769601      -28.6896873944  TIP3      17394           0.0000000000
     74435     17587  TIP3      OH2           -10.9733592736      -13.5523840804      -42.0378078830  TIP3      17395           0.0000000000
     74436     17587  TIP3      H1            -11.4281101722      -13.9745963218      -41.2806893581  TIP3      17395           0.0000000000
     74437     17587  TIP3      H2            -11.6829370197      -13.1215918541      -42.5298892522  TIP3      17395           0.0000000000
     74438     17588  TIP3      OH2           -17.6862590809      -13.8401791678      -34.9035540474  TIP3      17396           0.0000000000
     74439     17588  TIP3      H1            -17.0019836323      -13.8797994487      -34.2030596143  TIP3      17396           0.0000000000
     74440     17588  TIP3      H2            -17.2387693073      -14.2144633028      -35.6843732067  TIP3      17396           0.0000000000
     74441     17589  TIP3      OH2           -16.4226898058      -13.1220209364      -39.5587849427  TIP3      17397           0.0000000000
     74442     17589  TIP3      H1            -15.9086700481      -12.5096076166      -40.1159025553  TIP3      17397           0.0000000000
     74443     17589  TIP3      H2            -17.1090593346      -12.4984769486      -39.2378529985  TIP3      17397           0.0000000000
     74444     17590  TIP3      OH2            -6.2560941180       -9.5048494495      -29.5413575983  TIP3      17398           0.0000000000
     74445     17590  TIP3      H1             -5.8746877358      -10.1919992428      -30.1246179795  TIP3      17398           0.0000000000
     74446     17590  TIP3      H2             -6.7223525768      -10.0339372451      -28.8689256056  TIP3      17398           0.0000000000
     74447     17591  TIP3      OH2            -9.4530668462      -13.5240667430      -34.6986151683  TIP3      17399           0.0000000000
     74448     17591  TIP3      H1            -10.3874212960      -13.5239843615      -34.4082189407  TIP3      17399           0.0000000000
     74449     17591  TIP3      H2             -8.9696860319      -13.6991651986      -33.8775201363  TIP3      17399           0.0000000000
     74450     17592  TIP3      OH2           -14.6434028638      -11.9784219042      -35.8338935369  TIP3      17400           0.0000000000
     74451     17592  TIP3      H1            -15.5268375493      -11.8217253048      -36.2257052615  TIP3      17400           0.0000000000
     74452     17592  TIP3      H2            -14.3588330230      -12.8122014839      -36.2436821303  TIP3      17400           0.0000000000
     74453     17593  TIP3      OH2           -10.9988823634      -11.9310961182      -38.2086811968  TIP3      17401           0.0000000000
     74454     17593  TIP3      H1            -10.0432337246      -11.8194190146      -38.0471962455  TIP3      17401           0.0000000000
     74455     17593  TIP3      H2            -11.2365423255      -11.2476680175      -38.8633359586  TIP3      17401           0.0000000000
     74456     17594  TIP3      OH2            -5.0480419807      -14.2674030942      -31.4853380112  TIP3      17402           0.0000000000
     74457     17594  TIP3      H1             -5.7044120598      -14.2538318389      -30.7524296580  TIP3      17402           0.0000000000
     74458     17594  TIP3      H2             -5.5662045319      -14.5651911066      -32.2415578639  TIP3      17402           0.0000000000
     74459     17595  TIP3      OH2           -12.2930333348      -10.7542282495      -40.6196401243  TIP3      17403           0.0000000000
     74460     17595  TIP3      H1            -12.8262372386      -11.1335349326      -41.3391848531  TIP3      17403           0.0000000000
     74461     17595  TIP3      H2            -11.4728370676      -10.5464857012      -41.0932643818  TIP3      17403           0.0000000000
     74462     17596  TIP3      OH2            -1.8303421412        1.3339956162      -25.1105866606  TIP3      17404           0.0000000000
     74463     17596  TIP3      H1             -1.5847982984        1.7134480603      -25.9806760088  TIP3      17404           0.0000000000
     74464     17596  TIP3      H2             -1.1026004717        1.6984369785      -24.5792595996  TIP3      17404           0.0000000000
     74465     17597  TIP3      OH2           -14.2614520603       -6.1657258489      -25.5832078961  TIP3      17405           0.0000000000
     74466     17597  TIP3      H1            -13.4635810221       -5.9418045238      -25.0542971522  TIP3      17405           0.0000000000
     74467     17597  TIP3      H2            -14.9393479901       -6.0639985202      -24.9076071453  TIP3      17405           0.0000000000
     74468     17598  TIP3      OH2            -8.1712219002      -10.7716488694      -32.8103955643  TIP3      17406           0.0000000000
     74469     17598  TIP3      H1             -7.5692746037      -11.3042013154      -33.3438583792  TIP3      17406           0.0000000000
     74470     17598  TIP3      H2             -8.3150121706      -11.3211933555      -32.0280383666  TIP3      17406           0.0000000000
     74471     17599  TIP3      OH2           -13.1593324955      -14.6268204662      -36.3732989385  TIP3      17407           0.0000000000
     74472     17599  TIP3      H1            -13.4692946558      -15.5507179990      -36.3808605243  TIP3      17407           0.0000000000
     74473     17599  TIP3      H2            -12.3689663779      -14.6947957650      -36.9225645541  TIP3      17407           0.0000000000
     74474     17600  TIP3      OH2            -9.5320155503      -12.4478489436      -30.3948106783  TIP3      17408           0.0000000000
     74475     17600  TIP3      H1            -10.3554471617      -11.9259025462      -30.3071189857  TIP3      17408           0.0000000000
     74476     17600  TIP3      H2             -8.9745007200      -12.0916305544      -29.6753887148  TIP3      17408           0.0000000000
     74477     17601  TIP3      OH2            -8.9354490952       -6.2194415900      -38.6983229138  TIP3      17409           0.0000000000
     74478     17601  TIP3      H1             -9.7369025796       -6.6847661322      -39.0343098956  TIP3      17409           0.0000000000
     74479     17601  TIP3      H2             -9.1685155925       -6.0964022602      -37.7549239939  TIP3      17409           0.0000000000
     74480     17602  TIP3      OH2            -1.7554963378       -7.0191780050      -29.9050644145  TIP3      17410           0.0000000000
     74481     17602  TIP3      H1             -1.1924786291       -6.5337213564      -30.5344635098  TIP3      17410           0.0000000000
     74482     17602  TIP3      H2             -2.6172955021       -6.9727958614      -30.3654037218  TIP3      17410           0.0000000000
     74483     17603  TIP3      OH2            -5.1086856185      -13.3977999113      -40.5336915028  TIP3      17411           0.0000000000
     74484     17603  TIP3      H1             -6.0615900848      -13.2500483388      -40.6594257138  TIP3      17411           0.0000000000
     74485     17603  TIP3      H2             -4.7720983653      -12.5512767593      -40.1712973421  TIP3      17411           0.0000000000
     74486     17604  TIP3      OH2            -7.4543154793       -5.9594824049      -27.4851978816  TIP3      17412           0.0000000000
     74487     17604  TIP3      H1             -7.7935518419       -6.3766779855      -26.6833329965  TIP3      17412           0.0000000000
     74488     17604  TIP3      H2             -7.7161341176       -5.0410653422      -27.3504441587  TIP3      17412           0.0000000000
     74489     17605  TIP3      OH2            -4.3791261594      -11.4907711741      -38.8918159905  TIP3      17413           0.0000000000
     74490     17605  TIP3      H1             -3.4928679028      -11.6237403464      -38.4890298091  TIP3      17413           0.0000000000
     74491     17605  TIP3      H2             -4.2745370962      -10.6765672171      -39.4057058084  TIP3      17413           0.0000000000
     74492     17606  TIP3      OH2           -13.8304177517       -6.8239250709      -32.8742686251  TIP3      17414           0.0000000000
     74493     17606  TIP3      H1            -13.1632198737       -6.8973144843      -33.5869084422  TIP3      17414           0.0000000000
     74494     17606  TIP3      H2            -13.7656443445       -7.6969765487      -32.4576900263  TIP3      17414           0.0000000000
     74495     17607  TIP3      OH2            -6.8456843399       -4.7462139918      -39.6720256388  TIP3      17415           0.0000000000
     74496     17607  TIP3      H1             -7.2049054658       -3.9079048780      -39.3010749371  TIP3      17415           0.0000000000
     74497     17607  TIP3      H2             -7.5784495209       -5.3645455237      -39.4446705335  TIP3      17415           0.0000000000
     74498     17608  TIP3      OH2           -16.8195585901       -8.5112609039      -27.6403948276  TIP3      17416           0.0000000000
     74499     17608  TIP3      H1            -16.7624429755       -8.9432630649      -26.7569066268  TIP3      17416           0.0000000000
     74500     17608  TIP3      H2            -17.4864586766       -9.0902004564      -28.0844203572  TIP3      17416           0.0000000000
     74501     17609  TIP3      OH2            -9.8365729288       -8.8695543461      -25.4721165089  TIP3      17417           0.0000000000
     74502     17609  TIP3      H1            -10.1444871874       -9.1649164852      -26.3404634102  TIP3      17417           0.0000000000
     74503     17609  TIP3      H2             -8.9073207191       -9.1805006920      -25.4588861055  TIP3      17417           0.0000000000
     74504     17610  TIP3      OH2            -5.1437877213       -3.5390379093      -27.4940743339  TIP3      17418           0.0000000000
     74505     17610  TIP3      H1             -6.0623510654       -3.3513252377      -27.7502433380  TIP3      17418           0.0000000000
     74506     17610  TIP3      H2             -5.1791005128       -3.2397048638      -26.5683523277  TIP3      17418           0.0000000000
     74507     17611  TIP3      OH2             0.5282215389      -11.3556180263      -39.1246799324  TIP3      17419           0.0000000000
     74508     17611  TIP3      H1             -0.0453887584      -11.6369667669      -39.8600477361  TIP3      17419           0.0000000000
     74509     17611  TIP3      H2              0.6004076188      -10.4050823260      -39.3708397511  TIP3      17419           0.0000000000
     74510     17612  TIP3      OH2             0.5305206547       -5.4977109615      -26.3028626891  TIP3      17420           0.0000000000
     74511     17612  TIP3      H1             -0.3560767450       -5.2663416378      -26.6735157660  TIP3      17420           0.0000000000
     74512     17612  TIP3      H2              1.0658164448       -5.5424515608      -27.1163283787  TIP3      17420           0.0000000000
     74513     17613  TIP3      OH2            -1.2538697933       -2.5181922372      -38.7444059747  TIP3      17421           0.0000000000
     74514     17613  TIP3      H1             -1.5360092792       -3.3555929256      -38.3564240053  TIP3      17421           0.0000000000
     74515     17613  TIP3      H2             -0.8481898840       -2.7364909121      -39.5954582752  TIP3      17421           0.0000000000
     74516     17614  TIP3      OH2            -3.9777482873       -7.7086971412      -31.6092798022  TIP3      17422           0.0000000000
     74517     17614  TIP3      H1             -4.9210885302       -7.9195281985      -31.7246462276  TIP3      17422           0.0000000000
     74518     17614  TIP3      H2             -3.5477657402       -8.4635651842      -32.0507768552  TIP3      17422           0.0000000000
     74519     17615  TIP3      OH2           -11.4568305660       -3.3689166086      -35.5122717288  TIP3      17423           0.0000000000
     74520     17615  TIP3      H1            -10.9591162563       -2.5630371486      -35.7202708631  TIP3      17423           0.0000000000
     74521     17615  TIP3      H2            -12.3360715715       -3.1405447753      -35.8446227551  TIP3      17423           0.0000000000
     74522     17616  TIP3      OH2           -15.6888881474       -8.5344952995      -40.9442422851  TIP3      17424           0.0000000000
     74523     17616  TIP3      H1            -15.1123722247       -7.8680795772      -40.5329447445  TIP3      17424           0.0000000000
     74524     17616  TIP3      H2            -16.5810067657       -8.2211889830      -40.6953248123  TIP3      17424           0.0000000000
     74525     17617  TIP3      OH2           -10.0493402038       -5.7034419119      -36.0047691585  TIP3      17425           0.0000000000
     74526     17617  TIP3      H1            -10.3607188662       -4.7854950846      -35.9028764187  TIP3      17425           0.0000000000
     74527     17617  TIP3      H2            -10.7597467435       -6.2003061091      -35.5532402535  TIP3      17425           0.0000000000
     74528     17618  TIP3      OH2            -9.5956768132       -1.5237963549      -29.5899453270  TIP3      17426           0.0000000000
     74529     17618  TIP3      H1             -9.1345284721       -0.7153763855      -29.8647984795  TIP3      17426           0.0000000000
     74530     17618  TIP3      H2             -8.9857178356       -1.8675685232      -28.9097462754  TIP3      17426           0.0000000000
     74531     17619  TIP3      OH2           -11.3671576644       -0.7184379944      -36.4739177637  TIP3      17427           0.0000000000
     74532     17619  TIP3      H1            -12.3301097457       -0.5754477807      -36.3367474033  TIP3      17427           0.0000000000
     74533     17619  TIP3      H2            -11.0013742989        0.1171119469      -36.1270759317  TIP3      17427           0.0000000000
     74534     17620  TIP3      OH2            -6.0753308794       -5.5291512227      -29.9694561931  TIP3      17428           0.0000000000
     74535     17620  TIP3      H1             -6.3963182097       -5.7191646144      -29.0626556548  TIP3      17428           0.0000000000
     74536     17620  TIP3      H2             -5.4317453880       -6.2363834174      -30.1354847757  TIP3      17428           0.0000000000
     74537     17621  TIP3      OH2            -3.7537511217       -4.5158766555      -40.9031210303  TIP3      17429           0.0000000000
     74538     17621  TIP3      H1             -3.4608765945       -4.8602053505      -40.0208389463  TIP3      17429           0.0000000000
     74539     17621  TIP3      H2             -4.7211490724       -4.5722606027      -40.7375748260  TIP3      17429           0.0000000000
     74540     17622  TIP3      OH2            -3.2773210341       -0.9226386720      -27.4491883446  TIP3      17430           0.0000000000
     74541     17622  TIP3      H1             -3.9429719495       -1.4322284887      -27.9544788547  TIP3      17430           0.0000000000
     74542     17622  TIP3      H2             -3.0603714534       -0.2499585330      -28.1308503005  TIP3      17430           0.0000000000
     74543     17623  TIP3      OH2             0.7297999464       -0.0969621632      -40.6227167255  TIP3      17431           0.0000000000
     74544     17623  TIP3      H1              1.4194616464        0.5660870771      -40.8290850383  TIP3      17431           0.0000000000
     74545     17623  TIP3      H2              0.0185878571        0.5185474502      -40.3359627356  TIP3      17431           0.0000000000
     74546     17624  TIP3      OH2           -15.1956420064      -13.6829931767      -28.0902087717  TIP3      17432           0.0000000000
     74547     17624  TIP3      H1            -16.1033571520      -13.3284277841      -28.1238459938  TIP3      17432           0.0000000000
     74548     17624  TIP3      H2            -15.3164202757      -14.5318263274      -27.6382469553  TIP3      17432           0.0000000000
     74549     17625  TIP3      OH2            -2.9513013292       -5.8473300232      -38.6901487557  TIP3      17433           0.0000000000
     74550     17625  TIP3      H1             -3.1970003252       -6.5919310489      -38.0933257452  TIP3      17433           0.0000000000
     74551     17625  TIP3      H2             -2.0139258746       -5.7632223371      -38.4351383134  TIP3      17433           0.0000000000
     74552     17626  TIP3      OH2           -15.5863440602       -1.9160708869      -29.6470168151  TIP3      17434           0.0000000000
     74553     17626  TIP3      H1            -15.2603100970       -2.8245807453      -29.6643690253  TIP3      17434           0.0000000000
     74554     17626  TIP3      H2            -15.2990775983       -1.5966464110      -28.7827558100  TIP3      17434           0.0000000000
     74555     17627  TIP3      OH2            -9.5970589675       -3.3810465007      -42.3802365766  TIP3      17435           0.0000000000
     74556     17627  TIP3      H1             -9.5078188823       -4.1437787151      -42.9734450473  TIP3      17435           0.0000000000
     74557     17627  TIP3      H2            -10.0469780968       -3.8082824956      -41.6180160652  TIP3      17435           0.0000000000
     74558     17628  TIP3      OH2           -10.8317512693       -3.8506935502      -39.9301941502  TIP3      17436           0.0000000000
     74559     17628  TIP3      H1            -10.5622078149       -4.3654286962      -39.1598164399  TIP3      17436           0.0000000000
     74560     17628  TIP3      H2            -10.7405039372       -2.9247178580      -39.6066295031  TIP3      17436           0.0000000000
     74561     17629  TIP3      OH2           -14.2887774367       -6.6051505110      -39.4455527430  TIP3      17437           0.0000000000
     74562     17629  TIP3      H1            -15.0031837895       -6.2095413271      -38.9069962993  TIP3      17437           0.0000000000
     74563     17629  TIP3      H2            -13.7836364941       -5.8249209848      -39.7385433344  TIP3      17437           0.0000000000
     74564     17630  TIP3      OH2            -6.4903444188      -13.8860168605      -29.1072584867  TIP3      17438           0.0000000000
     74565     17630  TIP3      H1             -5.7147239981      -13.8975808919      -28.5247612281  TIP3      17438           0.0000000000
     74566     17630  TIP3      H2             -6.8212600989      -14.7928894001      -28.9543449817  TIP3      17438           0.0000000000
     74567     17631  TIP3      OH2            -5.7187179968      -14.3485909295      -38.0405000464  TIP3      17439           0.0000000000
     74568     17631  TIP3      H1             -5.4851337252      -13.8847803395      -38.8684510187  TIP3      17439           0.0000000000
     74569     17631  TIP3      H2             -5.1390654372      -13.9081571317      -37.4055123790  TIP3      17439           0.0000000000
     74570     17632  TIP3      OH2            -8.0284395511       -2.1887760501      -39.2352320489  TIP3      17440           0.0000000000
     74571     17632  TIP3      H1             -8.8463247710       -1.6554695593      -39.1587289267  TIP3      17440           0.0000000000
     74572     17632  TIP3      H2             -7.4886474347       -1.6372736782      -39.8202903840  TIP3      17440           0.0000000000
     74573     17633  TIP3      OH2            -8.4845195608      -12.5964786335      -37.2196951129  TIP3      17441           0.0000000000
     74574     17633  TIP3      H1             -7.7040593725      -12.0109791084      -37.1708360308  TIP3      17441           0.0000000000
     74575     17633  TIP3      H2             -8.7538159210      -12.7221952615      -36.2899259394  TIP3      17441           0.0000000000
     74576     17634  TIP3      OH2            -7.9268872560      -11.5541320923      -28.0556412290  TIP3      17442           0.0000000000
     74577     17634  TIP3      H1             -7.8693069756      -11.0215587605      -27.2388396728  TIP3      17442           0.0000000000
     74578     17634  TIP3      H2             -7.2783282662      -12.2696595067      -27.9353736759  TIP3      17442           0.0000000000
     74579     17635  TIP3      OH2            -7.6409520957      -15.5388485064      -36.3432106302  TIP3      17443           0.0000000000
     74580     17635  TIP3      H1             -7.9616404557      -14.8877906761      -35.6975912773  TIP3      17443           0.0000000000
     74581     17635  TIP3      H2             -6.9428296909      -14.9937278497      -36.7812979801  TIP3      17443           0.0000000000
     74582     17636  TIP3      OH2           -10.6244206361       -1.1537930675      -39.2039402821  TIP3      17444           0.0000000000
     74583     17636  TIP3      H1            -10.5331084808       -0.3391032029      -39.7552738427  TIP3      17444           0.0000000000
     74584     17636  TIP3      H2            -10.8991709439       -0.7892802660      -38.3341585966  TIP3      17444           0.0000000000
     74585     17637  TIP3      OH2           -11.9798039062      -14.4328552993      -39.6264116092  TIP3      17445           0.0000000000
     74586     17637  TIP3      H1            -12.0294297613      -13.5342756866      -39.2423848440  TIP3      17445           0.0000000000
     74587     17637  TIP3      H2            -11.0707334357      -14.6777461317      -39.3631708229  TIP3      17445           0.0000000000
     74588     17638  TIP3      OH2            -1.7356635597      -13.6797942190      -27.1546774936  TIP3      17446           0.0000000000
     74589     17638  TIP3      H1             -2.6861753554      -13.4424208631      -27.3082949527  TIP3      17446           0.0000000000
     74590     17638  TIP3      H2             -1.4686897373      -13.7610929365      -28.0868858701  TIP3      17446           0.0000000000
     74591     17639  TIP3      OH2            -3.1367647430       -9.9142216846      -33.1801087722  TIP3      17447           0.0000000000
     74592     17639  TIP3      H1             -3.9639188258      -10.3584767940      -33.4503596470  TIP3      17447           0.0000000000
     74593     17639  TIP3      H2             -2.6599025071      -10.6004705106      -32.6602122460  TIP3      17447           0.0000000000
     74594     17640  TIP3      OH2           -13.7474941860       -3.9914821834      -40.5855067458  TIP3      17448           0.0000000000
     74595     17640  TIP3      H1            -13.0814674231       -3.3632750688      -40.2685678456  TIP3      17448           0.0000000000
     74596     17640  TIP3      H2            -13.2225094684       -4.4557011554      -41.2682689044  TIP3      17448           0.0000000000
     74597     17641  TIP3      OH2           -15.4021310707      -11.3168751335      -41.4386551653  TIP3      17449           0.0000000000
     74598     17641  TIP3      H1            -15.3840812204      -10.3590346771      -41.2331801073  TIP3      17449           0.0000000000
     74599     17641  TIP3      H2            -16.2941000498      -11.4919367455      -41.7479645951  TIP3      17449           0.0000000000
     74600     17642  TIP3      OH2            -2.0772256942       -0.6515774543      -31.5040876232  TIP3      17450           0.0000000000
     74601     17642  TIP3      H1             -2.1665484037        0.0282262049      -32.2002180238  TIP3      17450           0.0000000000
     74602     17642  TIP3      H2             -1.1130881727       -0.6002894665      -31.3316688460  TIP3      17450           0.0000000000
     74603     17643  TIP3      OH2           -14.5859106935      -16.5323758026      -32.6949544437  TIP3      17451           0.0000000000
     74604     17643  TIP3      H1            -14.7799182863      -16.5141495233      -33.6579737206  TIP3      17451           0.0000000000
     74605     17643  TIP3      H2            -14.9993740293      -17.3854350008      -32.4449352606  TIP3      17451           0.0000000000
     74606     17644  TIP3      OH2           -15.6291158915       -2.6106715801      -36.5492106131  TIP3      17452           0.0000000000
     74607     17644  TIP3      H1            -16.4819859531       -2.1632456965      -36.5972553459  TIP3      17452           0.0000000000
     74608     17644  TIP3      H2            -15.1537488060       -2.1459409221      -37.2509651527  TIP3      17452           0.0000000000
     74609     17645  TIP3      OH2           -16.4009800289        0.0498935157      -25.2654692875  TIP3      17453           0.0000000000
     74610     17645  TIP3      H1            -15.8382847358       -0.2004587944      -24.5291001468  TIP3      17453           0.0000000000
     74611     17645  TIP3      H2            -16.8409485853       -0.7898845379      -25.4977292941  TIP3      17453           0.0000000000
     74612     17646  TIP3      OH2            -7.6164490714       -1.5152725604      -42.2540057590  TIP3      17454           0.0000000000
     74613     17646  TIP3      H1             -8.3032667983       -2.1859058446      -42.0299310953  TIP3      17454           0.0000000000
     74614     17646  TIP3      H2             -6.9009924806       -2.1077025085      -42.5087855830  TIP3      17454           0.0000000000
     74615     17647  TIP3      OH2            -5.2070716688       -2.6439316347      -24.9192582622  TIP3      17455           0.0000000000
     74616     17647  TIP3      H1             -5.5792856052       -3.5155072130      -24.6498948269  TIP3      17455           0.0000000000
     74617     17647  TIP3      H2             -4.4630047415       -2.5835273316      -24.3201880460  TIP3      17455           0.0000000000
     74618     17648  TIP3      OH2            -3.0744381114       -1.8096341326      -42.0935288393  TIP3      17456           0.0000000000
     74619     17648  TIP3      H1             -2.7313593954       -2.5172325030      -41.5348203756  TIP3      17456           0.0000000000
     74620     17648  TIP3      H2             -2.2995147270       -1.5408059775      -42.6141603732  TIP3      17456           0.0000000000
     74621     17649  TIP3      OH2           -12.1616085246       -5.8408038847      -42.2525733967  TIP3      17457           0.0000000000
     74622     17649  TIP3      H1            -12.0249441071       -6.6036446165      -41.6701236551  TIP3      17457           0.0000000000
     74623     17649  TIP3      H2            -11.4157108752       -5.9616659021      -42.8717210220  TIP3      17457           0.0000000000
     74624     17650  TIP3      OH2            -9.7390548589       -6.2331353489      -24.8743403515  TIP3      17458           0.0000000000
     74625     17650  TIP3      H1            -10.1136338346       -5.8601334752      -25.6972669676  TIP3      17458           0.0000000000
     74626     17650  TIP3      H2             -9.7490722133       -7.2063276871      -25.0153528295  TIP3      17458           0.0000000000
     74627     17651  TIP3      OH2            -6.6400032436       -4.7597942098      -42.4560397743  TIP3      17459           0.0000000000
     74628     17651  TIP3      H1             -7.0373366164       -4.6285026816      -41.5728485326  TIP3      17459           0.0000000000
     74629     17651  TIP3      H2             -6.9566783183       -5.6824625972      -42.6243784598  TIP3      17459           0.0000000000
     74630     17652  TIP3      OH2            -4.1017050563       -6.3363206464      -27.4706883934  TIP3      17460           0.0000000000
     74631     17652  TIP3      H1             -3.3119845871       -5.7597664854      -27.5682905677  TIP3      17460           0.0000000000
     74632     17652  TIP3      H2             -4.8024741359       -5.6698215040      -27.4552779728  TIP3      17460           0.0000000000
     74633     17653  TIP3      OH2           -15.5034603812       -8.9429439807      -24.8770205264  TIP3      17461           0.0000000000
     74634     17653  TIP3      H1            -15.1986831321       -9.8527686556      -24.9788969521  TIP3      17461           0.0000000000
     74635     17653  TIP3      H2            -15.9358749265       -8.9741400838      -24.0142035072  TIP3      17461           0.0000000000
     74636     17654  TIP3      OH2           -10.9613879218       -7.8243786480      -39.8235419068  TIP3      17462           0.0000000000
     74637     17654  TIP3      H1            -11.4660768835       -8.3636662037      -39.1963045688  TIP3      17462           0.0000000000
     74638     17654  TIP3      H2            -10.6633165000       -8.4972524060      -40.4786559416  TIP3      17462           0.0000000000
     74639     17655  TIP3      OH2           -11.7121110522      -10.0310596218      -27.5570369323  TIP3      17463           0.0000000000
     74640     17655  TIP3      H1            -12.2631337344       -9.2960789253      -27.2685009273  TIP3      17463           0.0000000000
     74641     17655  TIP3      H2            -11.2750647885       -9.6526634935      -28.3409068163  TIP3      17463           0.0000000000
     74642     17656  TIP3      OH2            -9.8861546334       -9.6030171694      -41.6285430374  TIP3      17464           0.0000000000
     74643     17656  TIP3      H1            -10.0538147439       -9.7036111226      -42.5866734083  TIP3      17464           0.0000000000
     74644     17656  TIP3      H2             -8.9100806535       -9.5470207069      -41.5661271236  TIP3      17464           0.0000000000
     74645     17657  TIP3      OH2            -6.6170693050       -7.4286659456      -24.1288021224  TIP3      17465           0.0000000000
     74646     17657  TIP3      H1             -5.6805193034       -7.4854711648      -24.3715564232  TIP3      17465           0.0000000000
     74647     17657  TIP3      H2             -6.7926589019       -8.2364233153      -23.6413218181  TIP3      17465           0.0000000000
     74648     17658  TIP3      OH2            -0.6817593044       -7.2550503058      -42.2220061972  TIP3      17466           0.0000000000
     74649     17658  TIP3      H1             -0.6770303170       -7.6852508638      -43.0985978657  TIP3      17466           0.0000000000
     74650     17658  TIP3      H2             -0.3825996455       -6.3349744084      -42.4154976776  TIP3      17466           0.0000000000
     74651     17659  TIP3      OH2           -11.2866275527      -12.6328325014      -26.4849618015  TIP3      17467           0.0000000000
     74652     17659  TIP3      H1            -11.1678364140      -13.3383564076      -27.1485814824  TIP3      17467           0.0000000000
     74653     17659  TIP3      H2            -11.3303957221      -11.8214370011      -27.0325619470  TIP3      17467           0.0000000000
     74654     17660  TIP3      OH2           -10.8862308429      -14.2596193474      -28.9164111160  TIP3      17468           0.0000000000
     74655     17660  TIP3      H1            -10.3720022182      -13.7995857063      -29.6197822653  TIP3      17468           0.0000000000
     74656     17660  TIP3      H2            -11.7758448792      -14.3386922518      -29.3250816649  TIP3      17468           0.0000000000
     74657     17661  TIP3      OH2            -9.3530911457       -8.7783786492      -28.6854733410  TIP3      17469           0.0000000000
     74658     17661  TIP3      H1             -8.5922401663       -8.9306048389      -29.2569078745  TIP3      17469           0.0000000000
     74659     17661  TIP3      H2             -9.7119673564       -7.9350197289      -29.0088006233  TIP3      17469           0.0000000000
     74660     17662  TIP3      OH2            -4.9368792806      -11.0048970606      -23.7240037853  TIP3      17470           0.0000000000
     74661     17662  TIP3      H1             -4.7038257441      -11.9206728629      -23.8375148811  TIP3      17470           0.0000000000
     74662     17662  TIP3      H2             -4.0769536135      -10.5635389046      -23.7306421248  TIP3      17470           0.0000000000
     74663     17663  TIP3      OH2            -3.6181012768       -8.2094527755      -25.5584184203  TIP3      17471           0.0000000000
     74664     17663  TIP3      H1             -3.8526068368       -7.4895336146      -26.1806042095  TIP3      17471           0.0000000000
     74665     17663  TIP3      H2             -2.6529538086       -8.2459845740      -25.7277621413  TIP3      17471           0.0000000000
     74666     17664  TIP3      OH2           -12.8107900522      -11.4135249628      -24.5339367667  TIP3      17472           0.0000000000
     74667     17664  TIP3      H1            -13.5940306637      -11.9660710158      -24.7331617993  TIP3      17472           0.0000000000
     74668     17664  TIP3      H2            -12.1644633649      -11.7387908104      -25.1891345162  TIP3      17472           0.0000000000
     74669     17665  TIP3      OH2           -10.1058692314      -16.8160442086      -28.5114294378  TIP3      17473           0.0000000000
     74670     17665  TIP3      H1            -10.2795377842      -15.8562712395      -28.6394155478  TIP3      17473           0.0000000000
     74671     17665  TIP3      H2            -10.8409080822      -17.1917213040      -29.0321604706  TIP3      17473           0.0000000000
     74672     17666  TIP3      OH2            -8.8133083430      -12.5313627436      -24.9467515112  TIP3      17474           0.0000000000
     74673     17666  TIP3      H1             -9.1376538449      -12.6939885840      -24.0404896863  TIP3      17474           0.0000000000
     74674     17666  TIP3      H2             -9.6296084694      -12.6869358521      -25.4617183389  TIP3      17474           0.0000000000
     74675     17667  TIP3      OH2            -6.0845109974      -13.2860964878      -25.7402387370  TIP3      17475           0.0000000000
     74676     17667  TIP3      H1             -7.0640255173      -13.2749164885      -25.7423950197  TIP3      17475           0.0000000000
     74677     17667  TIP3      H2             -5.8943909083      -14.0529074175      -25.2101815339  TIP3      17475           0.0000000000
     74678     17668  TIP3      OH2           -14.7374896130      -13.4561545172      -24.7933313957  TIP3      17476           0.0000000000
     74679     17668  TIP3      H1            -14.5010012090      -14.1747222048      -25.4044718134  TIP3      17476           0.0000000000
     74680     17668  TIP3      H2            -14.8211484177      -13.9161103205      -23.9331811341  TIP3      17476           0.0000000000
     74681     17669  TIP3      OH2            -9.8844917660      -17.4264410157      -25.8267146152  TIP3      17477           0.0000000000
     74682     17669  TIP3      H1             -9.1913190867      -18.1196603476      -25.8321771105  TIP3      17477           0.0000000000
     74683     17669  TIP3      H2             -9.9884890536      -17.2723044571      -26.7829407763  TIP3      17477           0.0000000000
     74684     17670  TIP3      OH2           -10.0549144206        1.1008890864      -40.5467643353  TIP3      17478           0.0000000000
     74685     17670  TIP3      H1             -9.0879055504        1.1844463671      -40.4800973357  TIP3      17478           0.0000000000
     74686     17670  TIP3      H2            -10.2016112024        1.7013231926      -41.2872253308  TIP3      17478           0.0000000000
     74687     17671  TIP3      OH2           -16.5021951159       -4.3282267951      -41.0790283798  TIP3      17479           0.0000000000
     74688     17671  TIP3      H1            -15.5350757125       -4.2335763261      -40.8989102295  TIP3      17479           0.0000000000
     74689     17671  TIP3      H2            -16.4515324414       -4.9713945753      -41.8257448118  TIP3      17479           0.0000000000
     74690     17672  TIP3      OH2           -17.7195000866        1.0502306324      -36.1056523217  TIP3      17480           0.0000000000
     74691     17672  TIP3      H1            -18.4387645376        0.5687523160      -36.5702926340  TIP3      17480           0.0000000000
     74692     17672  TIP3      H2            -17.4384353007        0.3948354073      -35.4422948963  TIP3      17480           0.0000000000
     74693     17673  TIP3      OH2           -16.8957337550       -0.8074480422      -34.2362611595  TIP3      17481           0.0000000000
     74694     17673  TIP3      H1            -17.2513749541       -1.6834927311      -34.0328169810  TIP3      17481           0.0000000000
     74695     17673  TIP3      H2            -16.6694194882       -0.4739108750      -33.3522351407  TIP3      17481           0.0000000000
     74696     17674  TIP3      OH2             0.6419627266       -0.0102854692      -31.3115566644  TIP3      17482           0.0000000000
     74697     17674  TIP3      H1              0.6725664371        0.1423636822      -30.3519899568  TIP3      17482           0.0000000000
     74698     17674  TIP3      H2              1.3466580551        0.5734569834      -31.6102502843  TIP3      17482           0.0000000000
     74699     17675  TIP3      OH2             0.2403859627       -0.4113241839      -28.3767482053  TIP3      17483           0.0000000000
     74700     17675  TIP3      H1             -0.2628676090       -1.1688452612      -28.7453231196  TIP3      17483           0.0000000000
     74701     17675  TIP3      H2              0.7078836821       -0.8798108752      -27.6668262799  TIP3      17483           0.0000000000
     74702     17676  TIP3      OH2            -1.3419764645       -4.7312849659      -23.6274719409  TIP3      17484           0.0000000000
     74703     17676  TIP3      H1             -2.2473700861       -4.7203707537      -23.3182535347  TIP3      17484           0.0000000000
     74704     17676  TIP3      H2             -0.9891256646       -3.8808541840      -23.2988437626  TIP3      17484           0.0000000000
     74705     17677  TIP3      OH2            -0.0289291060       -6.3668812070      -38.2773895729  TIP3      17485           0.0000000000
     74706     17677  TIP3      H1              0.8348801198       -5.9710247820      -38.0790846928  TIP3      17485           0.0000000000
     74707     17677  TIP3      H2             -0.0408556901       -7.0756207323      -37.5938720531  TIP3      17485           0.0000000000
     74708     17678  TIP3      OH2             0.3306627696       -8.2818318980      -36.3854583183  TIP3      17486           0.0000000000
     74709     17678  TIP3      H1             -0.4155172700       -8.7853214565      -35.9861699283  TIP3      17486           0.0000000000
     74710     17678  TIP3      H2              0.9298469823       -8.1559969390      -35.6184085743  TIP3      17486           0.0000000000
     74711     17679  TIP3      OH2             0.0925149290       -5.5940346431      -31.3896159920  TIP3      17487           0.0000000000
     74712     17679  TIP3      H1              0.9071719071       -5.9711392864      -31.7689770188  TIP3      17487           0.0000000000
     74713     17679  TIP3      H2              0.2380468952       -4.6408804819      -31.5607474709  TIP3      17487           0.0000000000
     74714     17680  TIP3      OH2            -1.3556184695       -2.6922603600      -29.1397615214  TIP3      17488           0.0000000000
     74715     17680  TIP3      H1             -2.0212423830       -2.3501002644      -28.5259425553  TIP3      17488           0.0000000000
     74716     17680  TIP3      H2             -1.9138113989       -3.0899793001      -29.8391160293  TIP3      17488           0.0000000000
     74717     17681  TIP3      OH2             0.6432700406       -8.4706944190      -39.9874049083  TIP3      17489           0.0000000000
     74718     17681  TIP3      H1              0.0757403248       -8.1274128243      -40.6992645821  TIP3      17489           0.0000000000
     74719     17681  TIP3      H2              0.5531836935       -7.7651883897      -39.3167904144  TIP3      17489           0.0000000000
     74720     17682  TIP3      OH2            -1.0094804591      -11.2167376968      -41.4836202784  TIP3      17490           0.0000000000
     74721     17682  TIP3      H1             -0.8981597067      -10.5744358889      -42.1867887401  TIP3      17490           0.0000000000
     74722     17682  TIP3      H2             -1.1767657915      -12.0530198639      -41.9618593028  TIP3      17490           0.0000000000
     74723     17683  TIP3      OH2            -1.8428112330       -9.8163031821      -35.8034746509  TIP3      17491           0.0000000000
     74724     17683  TIP3      H1             -1.9909383780      -10.7704224232      -35.8419672064  TIP3      17491           0.0000000000
     74725     17683  TIP3      H2             -2.1731301153       -9.6003923951      -34.9113449600  TIP3      17491           0.0000000000
     74726     17684  TIP3      OH2           -16.8313756918       -7.7198153621      -31.7354050342  TIP3      17492           0.0000000000
     74727     17684  TIP3      H1            -16.6762313170       -7.8110620004      -32.7052080722  TIP3      17492           0.0000000000
     74728     17684  TIP3      H2            -15.9329306142       -7.9184184479      -31.4133622301  TIP3      17492           0.0000000000
     74729     17685  TIP3      OH2            -0.9974175730       -7.8451016903      -26.0846012977  TIP3      17493           0.0000000000
     74730     17685  TIP3      H1             -0.3799233483       -8.5981039094      -25.9640339666  TIP3      17493           0.0000000000
     74731     17685  TIP3      H2             -0.3925468108       -7.0807065089      -26.1306279336  TIP3      17493           0.0000000000
     74732     17686  TIP3      OH2             0.5111910726       -9.9669473599      -25.4713619487  TIP3      17494           0.0000000000
     74733     17686  TIP3      H1             -0.3594906140      -10.3791950889      -25.6490983609  TIP3      17494           0.0000000000
     74734     17686  TIP3      H2              1.0914073479      -10.7510280084      -25.5275409657  TIP3      17494           0.0000000000
     74735     17687  TIP3      OH2            -1.7391859777      -13.7591821618      -42.3319988467  TIP3      17495           0.0000000000
     74736     17687  TIP3      H1             -1.1524066444      -14.2011233335      -41.6895310834  TIP3      17495           0.0000000000
     74737     17687  TIP3      H2             -2.6047610544      -14.1777249359      -42.1804215453  TIP3      17495           0.0000000000
     74738     17688  TIP3      OH2            -2.2001753098      -12.2340430653      -37.3925170774  TIP3      17496           0.0000000000
     74739     17688  TIP3      H1             -1.8791893839      -13.1523461121      -37.2282888636  TIP3      17496           0.0000000000
     74740     17688  TIP3      H2             -1.3797415007      -11.8226750170      -37.6969815543  TIP3      17496           0.0000000000
     74741     17689  TIP3      OH2            -1.5362302433      -11.6891922989      -31.9014245599  TIP3      17497           0.0000000000
     74742     17689  TIP3      H1             -0.5756808665      -11.4571502428      -31.9198429742  TIP3      17497           0.0000000000
     74743     17689  TIP3      H2             -1.7227845091      -11.5454800498      -30.9615900559  TIP3      17497           0.0000000000
     74744     17690  TIP3      OH2            -1.4735758633      -10.9610398323      -29.1221461875  TIP3      17498           0.0000000000
     74745     17690  TIP3      H1             -2.3552686846      -10.6770845473      -28.7872885212  TIP3      17498           0.0000000000
     74746     17690  TIP3      H2             -1.0359086202      -10.1019871841      -29.3328796784  TIP3      17498           0.0000000000
     74747     17691  TIP3      OH2           -17.2110372496      -12.4730205838      -25.6364876727  TIP3      17499           0.0000000000
     74748     17691  TIP3      H1            -16.2805898417      -12.6589460381      -25.3972506711  TIP3      17499           0.0000000000
     74749     17691  TIP3      H2            -17.6890874228      -13.2580154397      -25.2950685966  TIP3      17499           0.0000000000
     74750     17692  TIP3      OH2            -1.5014180140      -14.9434799554      -37.2986112906  TIP3      17500           0.0000000000
     74751     17692  TIP3      H1             -1.2894594366      -15.3803168035      -36.4455805261  TIP3      17500           0.0000000000
     74752     17692  TIP3      H2             -2.1023060708      -15.5829010064      -37.7356936237  TIP3      17500           0.0000000000
     74753     17693  TIP3      OH2           -16.0227662405      -14.1391650269      -32.7381457700  TIP3      17501           0.0000000000
     74754     17693  TIP3      H1            -15.5603804296      -14.9649294247      -32.4844398719  TIP3      17501           0.0000000000
     74755     17693  TIP3      H2            -15.4704135083      -13.4487133115      -32.3528593618  TIP3      17501           0.0000000000
     74756     17694  TIP3      OH2           -17.7420890385      -11.1568898724      -31.7183186329  TIP3      17502           0.0000000000
     74757     17694  TIP3      H1            -17.1716848856      -11.3970439079      -32.4735218079  TIP3      17502           0.0000000000
     74758     17694  TIP3      H2            -17.2819736872      -10.3466400766      -31.4538895529  TIP3      17502           0.0000000000
     74759     17695  TIP3      OH2             0.2900314704      -14.8861297527      -25.3746108625  TIP3      17503           0.0000000000
     74760     17695  TIP3      H1             -0.6158093291      -14.5466347121      -25.5023722416  TIP3      17503           0.0000000000
     74761     17695  TIP3      H2              0.3780591377      -15.3561537589      -26.2185401058  TIP3      17503           0.0000000000
     74762     17696  TIP3      OH2             0.3120209909      -14.9093396950      -40.7451373017  TIP3      17504           0.0000000000
     74763     17696  TIP3      H1              0.7238079287      -15.6217528069      -41.2826292842  TIP3      17504           0.0000000000
     74764     17696  TIP3      H2              1.0190339092      -14.2485528425      -40.6948679829  TIP3      17504           0.0000000000
     74765     17697  TIP3      OH2           -17.3683048971      -14.8593096999      -37.6190648490  TIP3      17505           0.0000000000
     74766     17697  TIP3      H1            -18.3119956533      -14.7024720404      -37.7846811234  TIP3      17505           0.0000000000
     74767     17697  TIP3      H2            -16.9518137310      -14.3847585794      -38.3569299569  TIP3      17505           0.0000000000
     74768     17698  TIP3      OH2            -2.6357958697        0.0752433088      -35.6773193080  TIP3      17506           0.0000000000
     74769     17698  TIP3      H1             -1.9517776371       -0.2284191940      -36.3012283339  TIP3      17506           0.0000000000
     74770     17698  TIP3      H2             -2.1192652588        0.5724705772      -35.0263409248  TIP3      17506           0.0000000000
     74771     17699  TIP3      OH2           -17.4254149703      -16.2295720113      -29.3394032992  TIP3      17507           0.0000000000
     74772     17699  TIP3      H1            -18.0907356275      -16.4170711242      -28.6543511938  TIP3      17507           0.0000000000
     74773     17699  TIP3      H2            -17.8816175001      -15.5480581020      -29.8741941453  TIP3      17507           0.0000000000
     74774     17700  TIP3      OH2           -15.2470353947       -3.0799925998      -25.1553604300  TIP3      17508           0.0000000000
     74775     17700  TIP3      H1            -16.0547879429       -2.7723986762      -25.6036413898  TIP3      17508           0.0000000000
     74776     17700  TIP3      H2            -15.4804136440       -3.0323804766      -24.2277220863  TIP3      17508           0.0000000000
     74777     17701  TIP3      OH2           -12.3203664713       -2.0362667643      -28.9379903830  TIP3      17509           0.0000000000
     74778     17701  TIP3      H1            -12.6218887435       -1.1502517551      -29.1802055687  TIP3      17509           0.0000000000
     74779     17701  TIP3      H2            -11.3697646259       -1.9439039255      -29.1708343714  TIP3      17509           0.0000000000
     74780     17702  TIP3      OH2            -7.9357659928       -0.6263061067      -26.0196861406  TIP3      17510           0.0000000000
     74781     17702  TIP3      H1             -7.8304593534       -0.9155969550      -25.0730941272  TIP3      17510           0.0000000000
     74782     17702  TIP3      H2             -7.0452739305       -0.2808202281      -26.2136110430  TIP3      17510           0.0000000000
     74783     17703  TIP3      OH2            -5.6800155746        0.6711092572      -26.6828822491  TIP3      17511           0.0000000000
     74784     17703  TIP3      H1             -4.9566127131        0.0790202901      -26.9225019012  TIP3      17511           0.0000000000
     74785     17703  TIP3      H2             -5.3152748868        1.0975972753      -25.8821870168  TIP3      17511           0.0000000000
     74786     17704  TIP3      OH2            -0.6325371815      -16.7065301184      -27.6038264672  TIP3      17512           0.0000000000
     74787     17704  TIP3      H1             -1.5160954195      -16.4314685542      -27.9447001474  TIP3      17512           0.0000000000
     74788     17704  TIP3      H2             -0.5153549434      -17.5407444358      -28.1038307805  TIP3      17512           0.0000000000
     74789     17705  TIP3      OH2           -14.8761605521        1.1999977942      -28.9174936267  TIP3      17513           0.0000000000
     74790     17705  TIP3      H1            -15.5941680104        1.7201256021      -29.3065463057  TIP3      17513           0.0000000000
     74791     17705  TIP3      H2            -15.1861915193        1.0457106876      -28.0171119338  TIP3      17513           0.0000000000
     74792     17706  TIP3      OH2           -12.3930598533        0.7999595778      -29.8341651187  TIP3      17514           0.0000000000
     74793     17706  TIP3      H1            -13.2794852346        0.9586761437      -29.4321886332  TIP3      17514           0.0000000000
     74794     17706  TIP3      H2            -12.4494092360        1.3899774209      -30.6067534927  TIP3      17514           0.0000000000
     74795     17707  TIP3      OH2            -7.6820039619        0.7114826325      -30.6558040578  TIP3      17515           0.0000000000
     74796     17707  TIP3      H1             -8.1466309193        1.2666488340      -31.3020503267  TIP3      17515           0.0000000000
     74797     17707  TIP3      H2             -7.5572062831        1.3420830417      -29.9107636282  TIP3      17515           0.0000000000
     74798     17708  TIP3      OH2            -5.3976351542       -0.4853551854      -29.6281822741  TIP3      17516           0.0000000000
     74799     17708  TIP3      H1             -6.2512948445       -0.2054614969      -29.9968928598  TIP3      17516           0.0000000000
     74800     17708  TIP3      H2             -4.9115586655        0.3527355883      -29.7182778094  TIP3      17516           0.0000000000
     74801     17709  TIP3      OH2            -2.8230905998        1.0806939594      -29.4088700872  TIP3      17517           0.0000000000
     74802     17709  TIP3      H1             -2.8782136676        2.0446208794      -29.6241535172  TIP3      17517           0.0000000000
     74803     17709  TIP3      H2             -2.5982148150        0.7139559292      -30.2877650123  TIP3      17517           0.0000000000
     74804     17710  TIP3      OH2           -15.3992671613       -0.1380032918      -31.9512607217  TIP3      17518           0.0000000000
     74805     17710  TIP3      H1            -15.4839372459       -0.6045019431      -31.0927241433  TIP3      17518           0.0000000000
     74806     17710  TIP3      H2            -14.5854008338       -0.5131322616      -32.3432565697  TIP3      17518           0.0000000000
     74807     17711  TIP3      OH2           -13.3239482977       -1.4219247824      -33.3045828142  TIP3      17519           0.0000000000
     74808     17711  TIP3      H1            -13.4890086216       -2.3539441441      -33.0694490162  TIP3      17519           0.0000000000
     74809     17711  TIP3      H2            -12.4692072910       -1.2657229612      -32.8503062561  TIP3      17519           0.0000000000
     74810     17712  TIP3      OH2           -10.7169150934       -0.9363768851      -32.4275483192  TIP3      17520           0.0000000000
     74811     17712  TIP3      H1            -10.5651694679       -1.8609093299      -32.6890844799  TIP3      17520           0.0000000000
     74812     17712  TIP3      H2            -10.6762322209       -0.9938004548      -31.4606439479  TIP3      17520           0.0000000000
     74813     17713  TIP3      OH2            -7.2674660785      -15.2884970127      -33.2860894794  TIP3      17521           0.0000000000
     74814     17713  TIP3      H1             -7.9453612090      -15.9277782717      -33.0087622471  TIP3      17521           0.0000000000
     74815     17713  TIP3      H2             -6.7162207988      -15.8211066192      -33.8717726446  TIP3      17521           0.0000000000
     74816     17714  TIP3      OH2            -2.1319830161      -17.2380678966      -33.2280081389  TIP3      17522           0.0000000000
     74817     17714  TIP3      H1             -1.5185686573      -16.6448019209      -33.7325783519  TIP3      17522           0.0000000000
     74818     17714  TIP3      H2             -3.0140665606      -16.8757571322      -33.4561827281  TIP3      17522           0.0000000000
     74819     17715  TIP3      OH2            -0.4601603983      -15.9892650160      -34.9514131444  TIP3      17523           0.0000000000
     74820     17715  TIP3      H1              0.2271658592      -16.5620273057      -35.3696551236  TIP3      17523           0.0000000000
     74821     17715  TIP3      H2              0.0458192033      -15.1515250666      -34.8453082879  TIP3      17523           0.0000000000
     74822     17716  TIP3      OH2           -14.8940677623      -16.6619314729      -35.4406518709  TIP3      17524           0.0000000000
     74823     17716  TIP3      H1            -15.6918881539      -16.8553560715      -35.9691595127  TIP3      17524           0.0000000000
     74824     17716  TIP3      H2            -14.4364312714      -17.5230156330      -35.5010946568  TIP3      17524           0.0000000000
     74825     17717  TIP3      OH2           -16.1263730694      -16.9097294833      -39.7210641851  TIP3      17525           0.0000000000
     74826     17717  TIP3      H1            -15.6355673403      -16.2577124823      -40.2552952507  TIP3      17525           0.0000000000
     74827     17717  TIP3      H2            -16.6948718968      -16.3354313950      -39.1826560021  TIP3      17525           0.0000000000
     74828     17718  TIP3      OH2           -10.4270962221      -16.7355736417      -35.6539852453  TIP3      17526           0.0000000000
     74829     17718  TIP3      H1             -9.5262996604      -16.3781875633      -35.7305371166  TIP3      17526           0.0000000000
     74830     17718  TIP3      H2            -10.4617872447      -16.9528789472      -34.7227902527  TIP3      17526           0.0000000000
     74831     17719  TIP3      OH2            -4.7118278257      -16.7192515503      -34.0253588867  TIP3      17527           0.0000000000
     74832     17719  TIP3      H1             -4.7593820087      -16.6051442510      -34.9832872119  TIP3      17527           0.0000000000
     74833     17719  TIP3      H2             -5.0910667099      -17.6236638274      -33.9010616405  TIP3      17527           0.0000000000
     74834     17720  TIP3      OH2            -3.4446801315      -16.6875031137      -38.3459565484  TIP3      17528           0.0000000000
     74835     17720  TIP3      H1             -4.1936446442      -16.0937664241      -38.5044036424  TIP3      17528           0.0000000000
     74836     17720  TIP3      H2             -3.8844049711      -17.5397842686      -38.1123098007  TIP3      17528           0.0000000000
     74837     17721  TIP3      OH2           -16.2153099069       -0.9601447414      -38.6891160988  TIP3      17529           0.0000000000
     74838     17721  TIP3      H1            -16.8720278189       -0.9740727466      -39.4094517439  TIP3      17529           0.0000000000
     74839     17721  TIP3      H2            -16.2177178774       -0.0049891958      -38.5180119509  TIP3      17529           0.0000000000
     74840     17722  TIP3      OH2           -14.3010378826      -14.9644222167      -41.2076246014  TIP3      17530           0.0000000000
     74841     17722  TIP3      H1            -13.7691312857      -15.5822161392      -41.7358400440  TIP3      17530           0.0000000000
     74842     17722  TIP3      H2            -13.6351217297      -14.6424090836      -40.5725664597  TIP3      17530           0.0000000000
     74843     17723  TIP3      OH2            -9.2745874287      -14.7213787103      -38.8048830624  TIP3      17531           0.0000000000
     74844     17723  TIP3      H1             -9.0237312738      -15.2989376588      -38.0652289221  TIP3      17531           0.0000000000
     74845     17723  TIP3      H2             -9.2036542818      -13.8560392356      -38.3455514542  TIP3      17531           0.0000000000
     74846     17724  TIP3      OH2            -7.3405626392        0.3530680443      -40.3558219740  TIP3      17532           0.0000000000
     74847     17724  TIP3      H1             -6.4231686233        0.5793656833      -40.5780679065  TIP3      17532           0.0000000000
     74848     17724  TIP3      H2             -7.5618955071       -0.1671509381      -41.1570992954  TIP3      17532           0.0000000000
     74849     17725  TIP3      OH2            -0.6491939364       -0.1524911394      -37.6380686024  TIP3      17533           0.0000000000
     74850     17725  TIP3      H1             -0.8391649393       -0.9310998010      -38.2112691000  TIP3      17533           0.0000000000
     74851     17725  TIP3      H2             -0.7135263497        0.5860019361      -38.2788788161  TIP3      17533           0.0000000000
     74852     17726  TIP3      OH2           -14.9788814584      -16.1006603047      -25.9118365987  TIP3      17534           0.0000000000
     74853     17726  TIP3      H1            -15.3867820147      -16.9192279045      -25.5773584912  TIP3      17534           0.0000000000
     74854     17726  TIP3      H2            -14.0519874186      -16.1584219863      -25.6521825797  TIP3      17534           0.0000000000
     74855     17727  TIP3      OH2           -14.4211632670        0.0277092393      -41.7491110401  TIP3      17535           0.0000000000
     74856     17727  TIP3      H1            -14.6804734763        0.2859985460      -40.8527502650  TIP3      17535           0.0000000000
     74857     17727  TIP3      H2            -13.6377728148       -0.5362581241      -41.5937152647  TIP3      17535           0.0000000000
     74858     17728  TIP3      OH2            -1.3980632262       -1.3908139550      -25.5143112351  TIP3      17536           0.0000000000
     74859     17728  TIP3      H1             -2.1759410621       -1.5594319731      -26.0916539986  TIP3      17536           0.0000000000
     74860     17728  TIP3      H2             -1.5086148903       -0.4366762828      -25.3699524144  TIP3      17536           0.0000000000
     74861     17729  TIP3      OH2            13.0508655443       -7.5212798345      -35.5950906757  TIP3      17537           0.0000000000
     74862     17729  TIP3      H1             13.0294755906       -6.5407023948      -35.6114301061  TIP3      17537           0.0000000000
     74863     17729  TIP3      H2             12.3164831844       -7.7547860393      -36.1870041943  TIP3      17537           0.0000000000
     74864     17730  TIP3      OH2            11.9067913087       -8.2781562822      -32.0813064187  TIP3      17538           0.0000000000
     74865     17730  TIP3      H1             11.8918055940       -8.9246124796      -31.3606793277  TIP3      17538           0.0000000000
     74866     17730  TIP3      H2             11.5521603206       -8.7815365810      -32.8332733900  TIP3      17538           0.0000000000
     74867     17731  TIP3      OH2             4.2536944634       -8.5895062074      -30.5276235997  TIP3      17539           0.0000000000
     74868     17731  TIP3      H1              4.3382066115       -9.2787570058      -29.8359412728  TIP3      17539           0.0000000000
     74869     17731  TIP3      H2              5.0043218144       -8.0193207891      -30.3079402921  TIP3      17539           0.0000000000
     74870     17732  TIP3      OH2            15.5860303563       -5.3169343835      -33.7995945748  TIP3      17540           0.0000000000
     74871     17732  TIP3      H1             15.1746537440       -6.0346207475      -33.3078108367  TIP3      17540           0.0000000000
     74872     17732  TIP3      H2             15.6119985933       -4.6092468513      -33.1290476362  TIP3      17540           0.0000000000
     74873     17733  TIP3      OH2             5.1802929504       -4.1378539831      -32.0392268995  TIP3      17541           0.0000000000
     74874     17733  TIP3      H1              4.8688014520       -5.0108421005      -32.3487357002  TIP3      17541           0.0000000000
     74875     17733  TIP3      H2              6.1350775897       -4.3241966437      -31.9853211760  TIP3      17541           0.0000000000
     74876     17734  TIP3      OH2             1.8175991494      -10.5870992876      -36.5374394563  TIP3      17542           0.0000000000
     74877     17734  TIP3      H1              1.3823306013       -9.7167659085      -36.6036760753  TIP3      17542           0.0000000000
     74878     17734  TIP3      H2              1.2568785140      -11.1276257065      -37.1090902297  TIP3      17542           0.0000000000
     74879     17735  TIP3      OH2             2.5309014197       -8.3610212760      -34.3901381675  TIP3      17543           0.0000000000
     74880     17735  TIP3      H1              2.8068491240       -9.1823345531      -33.9394100692  TIP3      17543           0.0000000000
     74881     17735  TIP3      H2              3.2244536581       -8.2533398817      -35.0588428483  TIP3      17543           0.0000000000
     74882     17736  TIP3      OH2            12.7060804403       -0.1590211841      -33.5607312006  TIP3      17544           0.0000000000
     74883     17736  TIP3      H1             13.3550996804       -0.8476247453      -33.8482861389  TIP3      17544           0.0000000000
     74884     17736  TIP3      H2             12.4904181142       -0.4960892061      -32.6914465951  TIP3      17544           0.0000000000
     74885     17737  TIP3      OH2            10.2752530971       -5.8678701415      -31.6086904827  TIP3      17545           0.0000000000
     74886     17737  TIP3      H1             10.6137316912       -6.4937610174      -32.2691016499  TIP3      17545           0.0000000000
     74887     17737  TIP3      H2             11.0868099340       -5.7092631928      -31.0950287702  TIP3      17545           0.0000000000
     74888     17738  TIP3      OH2            18.8446107892      -14.1969006286      -30.9006298471  TIP3      17546           0.0000000000
     74889     17738  TIP3      H1             19.0481732044      -13.6288354270      -30.1193889736  TIP3      17546           0.0000000000
     74890     17738  TIP3      H2             19.4382320346      -13.7865801004      -31.5476726098  TIP3      17546           0.0000000000
     74891     17739  TIP3      OH2            13.4169467144      -11.3692622320      -31.3006629231  TIP3      17547           0.0000000000
     74892     17739  TIP3      H1             13.6358409891      -12.3147290780      -31.2560867547  TIP3      17547           0.0000000000
     74893     17739  TIP3      H2             13.3424108706      -11.2287343494      -32.2653837018  TIP3      17547           0.0000000000
     74894     17740  TIP3      OH2             6.5648888039      -13.3109723948      -34.0845008908  TIP3      17548           0.0000000000
     74895     17740  TIP3      H1              6.6648199061      -12.4745206922      -34.5757182115  TIP3      17548           0.0000000000
     74896     17740  TIP3      H2              6.1594554946      -13.8827545025      -34.7719756397  TIP3      17548           0.0000000000
     74897     17741  TIP3      OH2            14.2929376280      -13.2447959598      -35.6839836657  TIP3      17549           0.0000000000
     74898     17741  TIP3      H1             14.9825136979      -13.5308957332      -35.0490480620  TIP3      17549           0.0000000000
     74899     17741  TIP3      H2             14.8276513910      -12.6545084964      -36.2433920811  TIP3      17549           0.0000000000
     74900     17742  TIP3      OH2             3.1816059528      -10.8974207491      -33.3484870030  TIP3      17550           0.0000000000
     74901     17742  TIP3      H1              3.8512113611      -11.4425324049      -32.8933244700  TIP3      17550           0.0000000000
     74902     17742  TIP3      H2              3.2876459324      -11.2133048314      -34.2595446545  TIP3      17550           0.0000000000
     74903     17743  TIP3      OH2             8.3386623898       -9.3425403408      -34.0267329109  TIP3      17551           0.0000000000
     74904     17743  TIP3      H1              9.0116021236       -9.9242256879      -33.6339550359  TIP3      17551           0.0000000000
     74905     17743  TIP3      H2              7.8238859453      -10.0011444025      -34.5336521365  TIP3      17551           0.0000000000
     74906     17744  TIP3      OH2            19.3047225930      -12.8042982922      -28.6324415643  TIP3      17552           0.0000000000
     74907     17744  TIP3      H1             18.6852338393      -12.0480760830      -28.7162516155  TIP3      17552           0.0000000000
     74908     17744  TIP3      H2             19.3638983081      -12.8876649999      -27.6649049823  TIP3      17552           0.0000000000
     74909     17745  TIP3      OH2             5.4628480608      -14.4265369443      -30.0678566256  TIP3      17553           0.0000000000
     74910     17745  TIP3      H1              5.1829011595      -13.8359069848      -30.7978418939  TIP3      17553           0.0000000000
     74911     17745  TIP3      H2              4.8041287721      -14.1842556323      -29.3721614724  TIP3      17553           0.0000000000
     74912     17746  TIP3      OH2            12.7542940934       -4.9320593576      -36.4958338802  TIP3      17554           0.0000000000
     74913     17746  TIP3      H1             12.4925757891       -5.2023527004      -37.3852656396  TIP3      17554           0.0000000000
     74914     17746  TIP3      H2             12.4484071712       -3.9970562000      -36.4450417410  TIP3      17554           0.0000000000
     74915     17747  TIP3      OH2             7.9792002833       -6.7665030633      -29.8046666209  TIP3      17555           0.0000000000
     74916     17747  TIP3      H1              7.2745955723       -6.1224296723      -29.5825868177  TIP3      17555           0.0000000000
     74917     17747  TIP3      H2              8.6865892811       -6.1684967802      -30.0934076000  TIP3      17555           0.0000000000
     74918     17748  TIP3      OH2            16.0423485079      -13.8751211051      -33.6584219598  TIP3      17556           0.0000000000
     74919     17748  TIP3      H1             16.0031567123      -14.6824380994      -33.1576494812  TIP3      17556           0.0000000000
     74920     17748  TIP3      H2             16.7827225156      -13.4292636914      -33.2034999233  TIP3      17556           0.0000000000
     74921     17749  TIP3      OH2             5.0348326117      -12.5525273432      -32.0070847538  TIP3      17557           0.0000000000
     74922     17749  TIP3      H1              5.6651380807      -11.8642082483      -31.6985317745  TIP3      17557           0.0000000000
     74923     17749  TIP3      H2              5.5496833309      -12.9646336133      -32.7450386758  TIP3      17557           0.0000000000
     74924     17750  TIP3      OH2             6.4272077580       -4.7583073613      -28.9793039696  TIP3      17558           0.0000000000
     74925     17750  TIP3      H1              6.3806540721       -3.8474964454      -29.3244869328  TIP3      17558           0.0000000000
     74926     17750  TIP3      H2              5.5410906316       -4.8465813014      -28.5491807236  TIP3      17558           0.0000000000
     74927     17751  TIP3      OH2             2.5079462462       -5.1533564728      -38.1912308199  TIP3      17559           0.0000000000
     74928     17751  TIP3      H1              2.2553437303       -4.8148167653      -39.0677938799  TIP3      17559           0.0000000000
     74929     17751  TIP3      H2              2.5877025831       -4.3258152458      -37.6758838702  TIP3      17559           0.0000000000
     74930     17752  TIP3      OH2            16.1165321479       -3.4772678382      -31.4282557596  TIP3      17560           0.0000000000
     74931     17752  TIP3      H1             15.1471015426       -3.3679464679      -31.3131307945  TIP3      17560           0.0000000000
     74932     17752  TIP3      H2             16.3865392306       -2.5585186401      -31.6193470378  TIP3      17560           0.0000000000
     74933     17753  TIP3      OH2            16.3910439563      -15.2083717556      -30.1321703129  TIP3      17561           0.0000000000
     74934     17753  TIP3      H1             15.7301282579      -14.5015049028      -30.0955473920  TIP3      17561           0.0000000000
     74935     17753  TIP3      H2             17.1756713445      -14.7625941696      -30.5206422541  TIP3      17561           0.0000000000
     74936     17754  TIP3      OH2             9.4129465038      -17.0800266675      -32.5627097035  TIP3      17562           0.0000000000
     74937     17754  TIP3      H1              9.2344560981      -18.0411891754      -32.6640402922  TIP3      17562           0.0000000000
     74938     17754  TIP3      H2              8.5162386990      -16.7790303775      -32.2836714312  TIP3      17562           0.0000000000
     74939     17755  TIP3      OH2            14.3767128249       -1.6946343530      -34.8456101410  TIP3      17563           0.0000000000
     74940     17755  TIP3      H1             14.8040833752       -2.4154300235      -35.3524929123  TIP3      17563           0.0000000000
     74941     17755  TIP3      H2             14.8115363933       -0.9067489557      -35.2352649674  TIP3      17563           0.0000000000
     74942     17756  TIP3      OH2            15.5910095933       -3.7696370409      -36.3237053936  TIP3      17564           0.0000000000
     74943     17756  TIP3      H1             15.2877014254       -4.4661788407      -36.9274376761  TIP3      17564           0.0000000000
     74944     17756  TIP3      H2             15.6230803653       -4.2601555041      -35.4827495554  TIP3      17564           0.0000000000
     74945     17757  TIP3      OH2            17.1984023583       -5.1660165452      -27.8317009828  TIP3      17565           0.0000000000
     74946     17757  TIP3      H1             17.3506352222       -5.8277494347      -28.5421646569  TIP3      17565           0.0000000000
     74947     17757  TIP3      H2             17.4079324931       -4.3247897739      -28.2755706418  TIP3      17565           0.0000000000
     74948     17758  TIP3      OH2            11.7011699971       -8.2884009558      -38.0724783899  TIP3      17566           0.0000000000
     74949     17758  TIP3      H1             11.0078927474       -7.7047678510      -38.4362618824  TIP3      17566           0.0000000000
     74950     17758  TIP3      H2             12.4117725005       -8.1858383762      -38.7318240013  TIP3      17566           0.0000000000
     74951     17759  TIP3      OH2            11.7836322041       -9.7160049639      -41.0597907899  TIP3      17567           0.0000000000
     74952     17759  TIP3      H1             12.4879634826       -9.7347606077      -40.3942703259  TIP3      17567           0.0000000000
     74953     17759  TIP3      H2             12.0892711388      -10.4344144913      -41.6282478423  TIP3      17567           0.0000000000
     74954     17760  TIP3      OH2            19.0890121757       -8.8621438178      -29.7907911083  TIP3      17568           0.0000000000
     74955     17760  TIP3      H1             18.4339456703       -8.1376055666      -29.7480501233  TIP3      17568           0.0000000000
     74956     17760  TIP3      H2             19.5867918683       -8.6271633715      -30.5943004194  TIP3      17568           0.0000000000
     74957     17761  TIP3      OH2            15.1584729493       -8.0806710524      -37.1500536351  TIP3      17569           0.0000000000
     74958     17761  TIP3      H1             14.4130683992       -7.8328236600      -36.5499495119  TIP3      17569           0.0000000000
     74959     17761  TIP3      H2             15.6263505566       -8.7518806167      -36.6249502775  TIP3      17569           0.0000000000
     74960     17762  TIP3      OH2            15.0761897497       -9.9129324385      -28.0527021555  TIP3      17570           0.0000000000
     74961     17762  TIP3      H1             15.1010040293       -9.1199893596      -27.4843895029  TIP3      17570           0.0000000000
     74962     17762  TIP3      H2             14.4335612126       -9.5935586778      -28.7096411400  TIP3      17570           0.0000000000
     74963     17763  TIP3      OH2             6.7610213858       -7.4152546688      -35.2320008522  TIP3      17571           0.0000000000
     74964     17763  TIP3      H1              6.4411511550       -7.8062792931      -36.0797054019  TIP3      17571           0.0000000000
     74965     17763  TIP3      H2              7.3760042465       -8.1064047711      -34.8960295531  TIP3      17571           0.0000000000
     74966     17764  TIP3      OH2             8.0782171240       -4.0345616806      -32.5415921033  TIP3      17572           0.0000000000
     74967     17764  TIP3      H1              8.0741783466       -4.5511982408      -33.3577675986  TIP3      17572           0.0000000000
     74968     17764  TIP3      H2              8.8688820324       -4.3907450589      -32.0966447634  TIP3      17572           0.0000000000
     74969     17765  TIP3      OH2             7.0894953526       -8.6677267358      -31.5660561033  TIP3      17573           0.0000000000
     74970     17765  TIP3      H1              7.6385356904       -8.5704241760      -32.3689935608  TIP3      17573           0.0000000000
     74971     17765  TIP3      H2              7.4828875876       -8.0030389368      -30.9580192205  TIP3      17573           0.0000000000
     74972     17766  TIP3      OH2            13.5130220326       -3.0986509877      -30.8612559818  TIP3      17574           0.0000000000
     74973     17766  TIP3      H1             13.2176059813       -2.4590023757      -30.2068085066  TIP3      17574           0.0000000000
     74974     17766  TIP3      H2             13.2429350011       -3.9515734656      -30.4460570428  TIP3      17574           0.0000000000
     74975     17767  TIP3      OH2             8.0280867013       -4.2455175344      -26.8360644204  TIP3      17575           0.0000000000
     74976     17767  TIP3      H1              7.6304836465       -3.4885082684      -26.3718152972  TIP3      17575           0.0000000000
     74977     17767  TIP3      H2              7.3782710143       -4.4409659075      -27.5549813847  TIP3      17575           0.0000000000
     74978     17768  TIP3      OH2            14.0288043070       -8.8690492724      -39.4827371868  TIP3      17576           0.0000000000
     74979     17768  TIP3      H1             14.5844750743       -8.6969652722      -38.6821267040  TIP3      17576           0.0000000000
     74980     17768  TIP3      H2             14.4800314019       -8.3758615298      -40.2040259076  TIP3      17576           0.0000000000
     74981     17769  TIP3      OH2             4.9797004559       -8.0529862785      -27.6813131411  TIP3      17577           0.0000000000
     74982     17769  TIP3      H1              5.0095727917       -7.4000733601      -26.9591119177  TIP3      17577           0.0000000000
     74983     17769  TIP3      H2              4.0456276856       -7.9962188161      -27.9431590130  TIP3      17577           0.0000000000
     74984     17770  TIP3      OH2            11.7394484724       -2.1492245337      -36.0079213035  TIP3      17578           0.0000000000
     74985     17770  TIP3      H1             12.1718480190       -1.8432262537      -35.2030065566  TIP3      17578           0.0000000000
     74986     17770  TIP3      H2             11.1783656085       -1.4016365420      -36.2426006164  TIP3      17578           0.0000000000
     74987     17771  TIP3      OH2             6.2669458562       -2.1830079139      -26.1648452703  TIP3      17579           0.0000000000
     74988     17771  TIP3      H1              6.2636683662       -2.3146350640      -27.1336132971  TIP3      17579           0.0000000000
     74989     17771  TIP3      H2              5.3501715599       -2.3443167425      -25.9451227591  TIP3      17579           0.0000000000
     74990     17772  TIP3      OH2            17.7674181963      -17.1321225175      -39.5653999935  TIP3      17580           0.0000000000
     74991     17772  TIP3      H1             16.8106110151      -17.0449308720      -39.3399147490  TIP3      17580           0.0000000000
     74992     17772  TIP3      H2             17.9318303850      -16.2973352303      -40.0321941081  TIP3      17580           0.0000000000
     74993     17773  TIP3      OH2             5.7204233716       -8.3966942899      -37.5982778915  TIP3      17581           0.0000000000
     74994     17773  TIP3      H1              5.4444908433       -7.6122104883      -38.1184069086  TIP3      17581           0.0000000000
     74995     17773  TIP3      H2              5.0762779559       -9.0614951401      -37.8472284168  TIP3      17581           0.0000000000
     74996     17774  TIP3      OH2            18.8633532063       -2.7797355423      -41.2423783669  TIP3      17582           0.0000000000
     74997     17774  TIP3      H1             19.0309112140       -1.8390856304      -41.0612318210  TIP3      17582           0.0000000000
     74998     17774  TIP3      H2             19.7853701854       -3.1031572191      -41.2302976630  TIP3      17582           0.0000000000
     74999     17775  TIP3      OH2             1.8455436478       -5.9663020462      -28.7529481659  TIP3      17583           0.0000000000
     75000     17775  TIP3      H1              1.3708545568       -6.0551689798      -29.5977207897  TIP3      17583           0.0000000000
     75001     17775  TIP3      H2              1.8973517271       -6.9062253297      -28.4966900852  TIP3      17583           0.0000000000
     75002     17776  TIP3      OH2             1.5804625861       -3.2244419346      -31.9389117747  TIP3      17584           0.0000000000
     75003     17776  TIP3      H1              2.5382161774       -3.3439361059      -31.9604072148  TIP3      17584           0.0000000000
     75004     17776  TIP3      H2              1.5012210370       -2.4119481977      -31.4239319438  TIP3      17584           0.0000000000
     75005     17777  TIP3      OH2            19.8503189450       -2.5432582883      -26.2653417457  TIP3      17585           0.0000000000
     75006     17777  TIP3      H1             19.6742765483       -3.4932507366      -26.2829797581  TIP3      17585           0.0000000000
     75007     17777  TIP3      H2             18.9810635710       -2.2377158333      -25.8865195873  TIP3      17585           0.0000000000
     75008     17778  TIP3      OH2            10.7718869411       -2.9858019614      -27.4018580791  TIP3      17586           0.0000000000
     75009     17778  TIP3      H1             10.8402722330       -2.1469757235      -26.8882501560  TIP3      17586           0.0000000000
     75010     17778  TIP3      H2              9.9065517271       -3.3442904815      -27.1284361616  TIP3      17586           0.0000000000
     75011     17779  TIP3      OH2            11.2228193178        0.7579542190      -37.5985207660  TIP3      17587           0.0000000000
     75012     17779  TIP3      H1             11.1094662428        0.6799087499      -38.5633222485  TIP3      17587           0.0000000000
     75013     17779  TIP3      H2             11.2227019769        1.7203437793      -37.4421567321  TIP3      17587           0.0000000000
     75014     17780  TIP3      OH2             4.8565587875       -0.3619426677      -35.7734841052  TIP3      17588           0.0000000000
     75015     17780  TIP3      H1              5.0029288858       -0.7769902561      -34.8966180888  TIP3      17588           0.0000000000
     75016     17780  TIP3      H2              4.0089350894       -0.7722131789      -36.0132412911  TIP3      17588           0.0000000000
     75017     17781  TIP3      OH2            14.2848800249       -0.0199441507      -40.6262193181  TIP3      17589           0.0000000000
     75018     17781  TIP3      H1             14.7254094761       -0.7950866834      -41.0435073180  TIP3      17589           0.0000000000
     75019     17781  TIP3      H2             14.3099921411       -0.2788154696      -39.6793997003  TIP3      17589           0.0000000000
     75020     17782  TIP3      OH2            13.9722952702       -0.0916425329      -37.8404460368  TIP3      17590           0.0000000000
     75021     17782  TIP3      H1             13.0099147876       -0.0166840605      -37.6695084964  TIP3      17590           0.0000000000
     75022     17782  TIP3      H2             14.2043492566       -0.8349237677      -37.2626388558  TIP3      17590           0.0000000000
     75023     17783  TIP3      OH2            17.0367349415      -11.0544314349      -25.8833592607  TIP3      17591           0.0000000000
     75024     17783  TIP3      H1             16.4544178933      -10.6140383908      -26.5085473064  TIP3      17591           0.0000000000
     75025     17783  TIP3      H2             16.9484405480      -11.9984336675      -26.0573286303  TIP3      17591           0.0000000000
     75026     17784  TIP3      OH2             4.0968758752       -4.6199373834      -27.7494401776  TIP3      17592           0.0000000000
     75027     17784  TIP3      H1              4.3214381023       -5.0480462287      -26.8924489196  TIP3      17592           0.0000000000
     75028     17784  TIP3      H2              3.2433014119       -5.0437002372      -27.9999398985  TIP3      17592           0.0000000000
     75029     17785  TIP3      OH2             6.7876468633      -16.1738626777      -31.8274226962  TIP3      17593           0.0000000000
     75030     17785  TIP3      H1              5.8831971775      -16.2993559135      -32.1947973439  TIP3      17593           0.0000000000
     75031     17785  TIP3      H2              6.6478442312      -15.3447734108      -31.3377820145  TIP3      17593           0.0000000000
     75032     17786  TIP3      OH2            11.4344083733      -16.5210528513      -28.4801833939  TIP3      17594           0.0000000000
     75033     17786  TIP3      H1             11.8018391231      -16.9229427449      -27.6742417215  TIP3      17594           0.0000000000
     75034     17786  TIP3      H2             10.4558153544      -16.6116633877      -28.3235617525  TIP3      17594           0.0000000000
     75035     17787  TIP3      OH2            14.6495875620      -12.6978194314      -27.6574001317  TIP3      17595           0.0000000000
     75036     17787  TIP3      H1             14.1653718284      -12.8748517156      -26.8143111596  TIP3      17595           0.0000000000
     75037     17787  TIP3      H2             14.5818341966      -11.7338658740      -27.7655603783  TIP3      17595           0.0000000000
     75038     17788  TIP3      OH2            15.4758338619       -7.8395865178      -41.6679394194  TIP3      17596           0.0000000000
     75039     17788  TIP3      H1             15.4552569142       -8.0328754313      -42.6340204103  TIP3      17596           0.0000000000
     75040     17788  TIP3      H2             16.3355393117       -7.3980330333      -41.6154327742  TIP3      17596           0.0000000000
     75041     17789  TIP3      OH2            11.0711643015      -13.9186217946      -41.1562629471  TIP3      17597           0.0000000000
     75042     17789  TIP3      H1             10.7568269136      -13.9818113646      -40.2360030699  TIP3      17597           0.0000000000
     75043     17789  TIP3      H2             10.7639512089      -14.7962647975      -41.4624461575  TIP3      17597           0.0000000000
     75044     17790  TIP3      OH2             6.8892354616      -11.1999159169      -30.5718678955  TIP3      17598           0.0000000000
     75045     17790  TIP3      H1              6.1471588241      -11.2156462999      -29.9388493631  TIP3      17598           0.0000000000
     75046     17790  TIP3      H2              6.8427770720      -10.2880386905      -30.9378661412  TIP3      17598           0.0000000000
     75047     17791  TIP3      OH2             6.8507683140      -11.0861403990      -35.7073528620  TIP3      17599           0.0000000000
     75048     17791  TIP3      H1              5.9119960619      -11.3336002988      -35.8396874900  TIP3      17599           0.0000000000
     75049     17791  TIP3      H2              7.2262294294      -11.3732868478      -36.5621170299  TIP3      17599           0.0000000000
     75050     17792  TIP3      OH2            12.3723824953      -10.5761691279      -36.9280593982  TIP3      17600           0.0000000000
     75051     17792  TIP3      H1             11.9768833830       -9.7546725473      -37.3038297775  TIP3      17600           0.0000000000
     75052     17792  TIP3      H2             13.0562627027      -10.7470780264      -37.5979587182  TIP3      17600           0.0000000000
     75053     17793  TIP3      OH2            11.3956114774      -10.3454915157      -25.4805906009  TIP3      17601           0.0000000000
     75054     17793  TIP3      H1             10.8925002647      -11.1387920221      -25.1884973378  TIP3      17601           0.0000000000
     75055     17793  TIP3      H2             12.2542711394      -10.4898762195      -25.0683917072  TIP3      17601           0.0000000000
     75056     17794  TIP3      OH2            13.3979290343      -11.1114735612      -34.0851302505  TIP3      17602           0.0000000000
     75057     17794  TIP3      H1             13.1246276561      -10.5144918487      -34.8102227029  TIP3      17602           0.0000000000
     75058     17794  TIP3      H2             13.5046021179      -11.9288586782      -34.5997361035  TIP3      17602           0.0000000000
     75059     17795  TIP3      OH2             4.5089226415      -10.9458311530      -28.8860900973  TIP3      17603           0.0000000000
     75060     17795  TIP3      H1              4.6021362273      -10.5548120883      -27.9998983568  TIP3      17603           0.0000000000
     75061     17795  TIP3      H2              4.0719562027      -11.7886941206      -28.6791147777  TIP3      17603           0.0000000000
     75062     17796  TIP3      OH2             7.8827368356      -13.5526183759      -42.0381952370  TIP3      17604           0.0000000000
     75063     17796  TIP3      H1              7.4286370617      -13.9737033576      -41.2802362020  TIP3      17604           0.0000000000
     75064     17796  TIP3      H2              7.1731186451      -13.1212290411      -42.5297202461  TIP3      17604           0.0000000000
     75065     17797  TIP3      OH2             1.1693004563      -13.8397127803      -34.9016985427  TIP3      17605           0.0000000000
     75066     17797  TIP3      H1              1.8542706048      -13.8790463765      -34.2026729818  TIP3      17605           0.0000000000
     75067     17797  TIP3      H2              1.6175830146      -14.2165984647      -35.6817974252  TIP3      17605           0.0000000000
     75068     17798  TIP3      OH2             2.4329818361      -13.1218510880      -39.5588696216  TIP3      17606           0.0000000000
     75069     17798  TIP3      H1              2.9473636666      -12.5094236668      -40.1156371395  TIP3      17606           0.0000000000
     75070     17798  TIP3      H2              1.7469249892      -12.4983280684      -39.2375838187  TIP3      17606           0.0000000000
     75071     17799  TIP3      OH2            12.6003310291       -9.5001331832      -29.5371489799  TIP3      17607           0.0000000000
     75072     17799  TIP3      H1             12.9861598731      -10.1844601134      -30.1261373549  TIP3      17607           0.0000000000
     75073     17799  TIP3      H2             12.1324981537      -10.0378829053      -28.8723647543  TIP3      17607           0.0000000000
     75074     17800  TIP3      OH2             9.4161218205      -13.5412421977      -34.6957324984  TIP3      17608           0.0000000000
     75075     17800  TIP3      H1              8.4746305918      -13.5185468830      -34.4240326557  TIP3      17608           0.0000000000
     75076     17800  TIP3      H2              9.8714085443      -13.6867763929      -33.8609624209  TIP3      17608           0.0000000000
     75077     17801  TIP3      OH2             4.2130410232      -11.9782064646      -35.8342635078  TIP3      17609           0.0000000000
     75078     17801  TIP3      H1              3.3292038005      -11.8217955974      -36.2254597035  TIP3      17609           0.0000000000
     75079     17801  TIP3      H2              4.4969394554      -12.8124311708      -36.2434979665  TIP3      17609           0.0000000000
     75080     17802  TIP3      OH2             7.8572054660      -11.9311472530      -38.2079128361  TIP3      17610           0.0000000000
     75081     17802  TIP3      H1              8.8130835964      -11.8190354073      -38.0483805898  TIP3      17610           0.0000000000
     75082     17802  TIP3      H2              7.6199025574      -11.2485156904      -38.8625610643  TIP3      17610           0.0000000000
     75083     17803  TIP3      OH2            13.9293854479      -13.9918179816      -31.2595881924  TIP3      17611           0.0000000000
     75084     17803  TIP3      H1             13.2014933942      -14.0706794001      -30.5769345983  TIP3      17611           0.0000000000
     75085     17803  TIP3      H2             13.4347133399      -13.8774804409      -32.0785395299  TIP3      17611           0.0000000000
     75086     17804  TIP3      OH2             6.5628620119      -10.7541252991      -40.6196466338  TIP3      17612           0.0000000000
     75087     17804  TIP3      H1              6.0296549261      -11.1333034638      -41.3392398097  TIP3      17612           0.0000000000
     75088     17804  TIP3      H2              7.3833542178      -10.5466056470      -41.0933233715  TIP3      17612           0.0000000000
     75089     17805  TIP3      OH2            16.9335845042        1.4876896145      -25.1292151601  TIP3      17613           0.0000000000
     75090     17805  TIP3      H1             17.3222177880        1.7280910559      -25.9831761611  TIP3      17613           0.0000000000
     75091     17805  TIP3      H2             17.7210038719        1.5654862980      -24.5398937939  TIP3      17613           0.0000000000
     75092     17806  TIP3      OH2             4.6863457099       -6.1297967603      -25.5587143189  TIP3      17614           0.0000000000
     75093     17806  TIP3      H1              5.3935273219       -5.9666668739      -24.9006425571  TIP3      17614           0.0000000000
     75094     17806  TIP3      H2              3.9084313578       -6.0597742374      -24.9569106321  TIP3      17614           0.0000000000
     75095     17807  TIP3      OH2            10.6870420400      -10.7751594123      -32.8085997029  TIP3      17615           0.0000000000
     75096     17807  TIP3      H1             11.2820985504      -11.2996714442      -33.3515758572  TIP3      17615           0.0000000000
     75097     17807  TIP3      H2             10.5305300236      -11.3128560450      -32.0206175363  TIP3      17615           0.0000000000
     75098     17808  TIP3      OH2             5.6959095673      -14.6264105087      -36.3725666099  TIP3      17616           0.0000000000
     75099     17808  TIP3      H1              5.3863055961      -15.5504906442      -36.3809387262  TIP3      17616           0.0000000000
     75100     17808  TIP3      H2              6.4817544658      -14.6917925692      -36.9281185010  TIP3      17616           0.0000000000
     75101     17809  TIP3      OH2             9.3388657792      -12.4363338337      -30.4123856620  TIP3      17617           0.0000000000
     75102     17809  TIP3      H1              8.5033940037      -11.9378460695      -30.3123240621  TIP3      17617           0.0000000000
     75103     17809  TIP3      H2              9.8648844198      -12.0826410378      -29.6648740391  TIP3      17617           0.0000000000
     75104     17810  TIP3      OH2             9.9149140837       -6.2212962294      -38.6991873425  TIP3      17618           0.0000000000
     75105     17810  TIP3      H1              9.1149487570       -6.6869443653      -39.0340831104  TIP3      17618           0.0000000000
     75106     17810  TIP3      H2              9.6874696930       -6.0968100075      -37.7550874620  TIP3      17618           0.0000000000
     75107     17811  TIP3      OH2            17.1004081033       -7.0159914110      -29.8950019630  TIP3      17619           0.0000000000
     75108     17811  TIP3      H1             17.6631214035       -6.5350275103      -30.5288675841  TIP3      17619           0.0000000000
     75109     17811  TIP3      H2             16.2405997714       -6.9744356517      -30.3600117979  TIP3      17619           0.0000000000
     75110     17812  TIP3      OH2            13.7340632380      -13.4116546369      -40.5106183525  TIP3      17620           0.0000000000
     75111     17812  TIP3      H1             12.7873063020      -13.2502266361      -40.6596319679  TIP3      17620           0.0000000000
     75112     17812  TIP3      H2             14.0809679103      -12.5573596760      -40.1737038541  TIP3      17620           0.0000000000
     75113     17813  TIP3      OH2            11.3862762406       -5.9411208389      -27.4679222269  TIP3      17621           0.0000000000
     75114     17813  TIP3      H1             11.0585673427       -6.3727369383      -26.6687787116  TIP3      17621           0.0000000000
     75115     17813  TIP3      H2             11.1599878799       -5.0159988534      -27.3403558112  TIP3      17621           0.0000000000
     75116     17814  TIP3      OH2            14.4662635945      -11.4775677206      -38.9000184674  TIP3      17622           0.0000000000
     75117     17814  TIP3      H1             15.3461514458      -11.6092483766      -38.4890410094  TIP3      17622           0.0000000000
     75118     17814  TIP3      H2             14.5781137094      -10.6613868857      -39.4144415211  TIP3      17622           0.0000000000
     75119     17815  TIP3      OH2             5.0268310809       -6.8238861154      -32.8986044103  TIP3      17623           0.0000000000
     75120     17815  TIP3      H1              5.7040278814       -6.9093117834      -33.5991437905  TIP3      17623           0.0000000000
     75121     17815  TIP3      H2              5.0830926353       -7.6834560962      -32.4433625802  TIP3      17623           0.0000000000
     75122     17816  TIP3      OH2            12.0080243739       -4.7534748310      -39.6673081521  TIP3      17624           0.0000000000
     75123     17816  TIP3      H1             11.6644965196       -3.9083714491      -39.3100651721  TIP3      17624           0.0000000000
     75124     17816  TIP3      H2             11.2761773450       -5.3701808552      -39.4486058739  TIP3      17624           0.0000000000
     75125     17817  TIP3      OH2             2.0120371252       -8.4315107022      -27.6275495401  TIP3      17625           0.0000000000
     75126     17817  TIP3      H1              2.1796714295       -8.8679631517      -26.7738949561  TIP3      17625           0.0000000000
     75127     17817  TIP3      H2              1.4015035388       -9.0508606512      -28.0664077561  TIP3      17625           0.0000000000
     75128     17818  TIP3      OH2             9.0492975612       -8.8570488867      -25.4757094649  TIP3      17626           0.0000000000
     75129     17818  TIP3      H1              8.7103704330       -9.1850468383      -26.3191871560  TIP3      17626           0.0000000000
     75130     17818  TIP3      H2              9.9638133268       -9.1940983517      -25.4583155702  TIP3      17626           0.0000000000
     75131     17819  TIP3      OH2            13.7149145938       -3.5244691779      -27.4904577993  TIP3      17627           0.0000000000
     75132     17819  TIP3      H1             12.7934456663       -3.3486985695      -27.7367911372  TIP3      17627           0.0000000000
     75133     17819  TIP3      H2             13.6709956187       -3.2305928538      -26.5628395447  TIP3      17627           0.0000000000
     75134     17820  TIP3      OH2            19.4156263070      -11.3805149521      -39.1544066646  TIP3      17628           0.0000000000
     75135     17820  TIP3      H1             18.7811108419      -11.6085186453      -39.8620371076  TIP3      17628           0.0000000000
     75136     17820  TIP3      H2             19.4568302916      -10.4134517735      -39.3572614421  TIP3      17628           0.0000000000
     75137     17821  TIP3      OH2            19.3610338180       -5.5298677361      -26.3169919133  TIP3      17629           0.0000000000
     75138     17821  TIP3      H1             18.4877175160       -5.2540953562      -26.6857590360  TIP3      17629           0.0000000000
     75139     17821  TIP3      H2             19.9191831791       -5.5321432755      -27.1187285159  TIP3      17629           0.0000000000
     75140     17822  TIP3      OH2            17.6353721454       -2.5200750550      -38.7256243213  TIP3      17630           0.0000000000
     75141     17822  TIP3      H1             17.3033756198       -3.3571620343      -38.3765808892  TIP3      17630           0.0000000000
     75142     17822  TIP3      H2             17.9879449855       -2.7385560961      -39.6036823611  TIP3      17630           0.0000000000
     75143     17823  TIP3      OH2            14.8775206663       -7.7067762160      -31.6146201966  TIP3      17631           0.0000000000
     75144     17823  TIP3      H1             13.9356224479       -7.9141202866      -31.7222338437  TIP3      17631           0.0000000000
     75145     17823  TIP3      H2             15.3064249761       -8.4719859343      -32.0439757937  TIP3      17631           0.0000000000
     75146     17824  TIP3      OH2             7.3997480491       -3.3689720329      -35.5127866462  TIP3      17632           0.0000000000
     75147     17824  TIP3      H1              7.8967057983       -2.5627034246      -35.7202435417  TIP3      17632           0.0000000000
     75148     17824  TIP3      H2              6.5198472353       -3.1408341435      -35.8438399903  TIP3      17632           0.0000000000
     75149     17825  TIP3      OH2             3.1634757564       -8.5332979115      -40.9445994655  TIP3      17633           0.0000000000
     75150     17825  TIP3      H1              3.7423781672       -7.8688895274      -40.5334416882  TIP3      17633           0.0000000000
     75151     17825  TIP3      H2              2.2737089500       -8.2205022107      -40.6931926332  TIP3      17633           0.0000000000
     75152     17826  TIP3      OH2             8.8059646497       -5.7039504472      -36.0052662428  TIP3      17634           0.0000000000
     75153     17826  TIP3      H1              8.4944984649       -4.7850084459      -35.9027707018  TIP3      17634           0.0000000000
     75154     17826  TIP3      H2              8.0954218622       -6.2003088662      -35.5531464898  TIP3      17634           0.0000000000
     75155     17827  TIP3      OH2             9.2635443472       -1.5230852864      -29.5823078103  TIP3      17635           0.0000000000
     75156     17827  TIP3      H1              9.7238291098       -0.7210399726      -29.8698047773  TIP3      17635           0.0000000000
     75157     17827  TIP3      H2              9.8792711306       -1.8657639572      -28.9104838704  TIP3      17635           0.0000000000
     75158     17828  TIP3      OH2             7.4874328766       -0.7176639761      -36.4727389095  TIP3      17636           0.0000000000
     75159     17828  TIP3      H1              6.5244037033       -0.5744316509      -36.3358869819  TIP3      17636           0.0000000000
     75160     17828  TIP3      H2              7.8537721408        0.1180210201      -36.1266519306  TIP3      17636           0.0000000000
     75161     17829  TIP3      OH2            12.7809091970       -5.5291521551      -29.9688508185  TIP3      17637           0.0000000000
     75162     17829  TIP3      H1             12.4590877331       -5.7185544605      -29.0625409825  TIP3      17637           0.0000000000
     75163     17829  TIP3      H2             13.4241033512       -6.2368066519      -30.1350055581  TIP3      17637           0.0000000000
     75164     17830  TIP3      OH2            15.1258250699       -4.4451553664      -40.8784356137  TIP3      17638           0.0000000000
     75165     17830  TIP3      H1             15.4202108786       -4.9216785053      -40.0754978505  TIP3      17638           0.0000000000
     75166     17830  TIP3      H2             14.1725029201       -4.6327107246      -40.7977609332  TIP3      17638           0.0000000000
     75167     17831  TIP3      OH2            15.4660732051       -0.8911571115      -27.4816084613  TIP3      17639           0.0000000000
     75168     17831  TIP3      H1             14.8791717530       -1.4570657739      -27.9987551316  TIP3      17639           0.0000000000
     75169     17831  TIP3      H2             15.7793361532       -0.2482247515      -28.1491564365  TIP3      17639           0.0000000000
     75170     17832  TIP3      OH2            19.5732029272       -0.0896351408      -40.6508324178  TIP3      17640           0.0000000000
     75171     17832  TIP3      H1             20.2871285213        0.5593771944      -40.8142997405  TIP3      17640           0.0000000000
     75172     17832  TIP3      H2             18.8731912118        0.5155708808      -40.3222208696  TIP3      17640           0.0000000000
     75173     17833  TIP3      OH2             3.6674469092      -13.6913205518      -28.0961587701  TIP3      17641           0.0000000000
     75174     17833  TIP3      H1              2.7578325941      -13.3432380053      -28.1156129699  TIP3      17641           0.0000000000
     75175     17833  TIP3      H2              3.5584415152      -14.5268605271      -27.6178540821  TIP3      17641           0.0000000000
     75176     17834  TIP3      OH2            15.8996684554       -5.8137108048      -38.6368684320  TIP3      17642           0.0000000000
     75177     17834  TIP3      H1             15.6611617544       -6.6012103980      -38.1007920882  TIP3      17642           0.0000000000
     75178     17834  TIP3      H2             16.8525069702       -5.7732173565      -38.4575679956  TIP3      17642           0.0000000000
     75179     17835  TIP3      OH2             3.2773813002       -1.9042382687      -29.6511133955  TIP3      17643           0.0000000000
     75180     17835  TIP3      H1              3.5772779147       -2.8252219806      -29.6513358057  TIP3      17643           0.0000000000
     75181     17835  TIP3      H2              3.5360921257       -1.6173717349      -28.7728109585  TIP3      17643           0.0000000000
     75182     17836  TIP3      OH2             9.2523811208       -3.3780815529      -42.3819389268  TIP3      17644           0.0000000000
     75183     17836  TIP3      H1              9.3515978253       -4.1421686867      -42.9725144365  TIP3      17644           0.0000000000
     75184     17836  TIP3      H2              8.8100784008       -3.8084946065      -41.6178660557  TIP3      17644           0.0000000000
     75185     17837  TIP3      OH2             8.0233833323       -3.8505663245      -39.9297230586  TIP3      17645           0.0000000000
     75186     17837  TIP3      H1              8.2944001506       -4.3655311055      -39.1601419062  TIP3      17645           0.0000000000
     75187     17837  TIP3      H2              8.1161008901       -2.9246247562      -39.6068037479  TIP3      17645           0.0000000000
     75188     17838  TIP3      OH2             4.5674012695       -6.6053919903      -39.4444771868  TIP3      17646           0.0000000000
     75189     17838  TIP3      H1              3.8526803134       -6.2094438960      -38.9063648892  TIP3      17646           0.0000000000
     75190     17838  TIP3      H2              5.0720843407       -5.8251993942      -39.7383158349  TIP3      17646           0.0000000000
     75191     17839  TIP3      OH2            12.3973156408      -13.9633459307      -29.1631161902  TIP3      17647           0.0000000000
     75192     17839  TIP3      H1             13.0996151792      -13.8436806600      -28.5000764316  TIP3      17647           0.0000000000
     75193     17839  TIP3      H2             11.9792604013      -14.7992049914      -28.8878984940  TIP3      17647           0.0000000000
     75194     17840  TIP3      OH2            13.1325810654      -14.3537666957      -38.0146017136  TIP3      17648           0.0000000000
     75195     17840  TIP3      H1             13.3508567170      -13.9015217051      -38.8525141184  TIP3      17648           0.0000000000
     75196     17840  TIP3      H2             13.7323260355      -13.8897071983      -37.4245985267  TIP3      17648           0.0000000000
     75197     17841  TIP3      OH2            10.8285357998       -2.1894785850      -39.2341001442  TIP3      17649           0.0000000000
     75198     17841  TIP3      H1             10.0111664063       -1.6559970723      -39.1621333362  TIP3      17649           0.0000000000
     75199     17841  TIP3      H2             11.3660427134       -1.6387403710      -39.8197095586  TIP3      17649           0.0000000000
     75200     17842  TIP3      OH2            10.3711256067      -12.5966264434      -37.2255407071  TIP3      17650           0.0000000000
     75201     17842  TIP3      H1             11.1519242137      -12.0117624718      -37.1715852332  TIP3      17650           0.0000000000
     75202     17842  TIP3      H2             10.0913642707      -12.7130293943      -36.2981088611  TIP3      17650           0.0000000000
     75203     17843  TIP3      OH2            10.9758205022      -11.5495274611      -28.0753096395  TIP3      17651           0.0000000000
     75204     17843  TIP3      H1             11.0059601561      -11.0196079615      -27.2592335087  TIP3      17651           0.0000000000
     75205     17843  TIP3      H2             11.5771376781      -12.2800992848      -27.9080819720  TIP3      17651           0.0000000000
     75206     17844  TIP3      OH2            11.2537532112      -15.5472328026      -36.2949220958  TIP3      17652           0.0000000000
     75207     17844  TIP3      H1             10.8643551035      -14.8745651169      -35.7152197790  TIP3      17652           0.0000000000
     75208     17844  TIP3      H2             11.8978672126      -14.9878701582      -36.8004472091  TIP3      17652           0.0000000000
     75209     17845  TIP3      OH2             8.2317372153       -1.1534408126      -39.2038572084  TIP3      17653           0.0000000000
     75210     17845  TIP3      H1              8.3234994780       -0.3389996800      -39.7553997249  TIP3      17653           0.0000000000
     75211     17845  TIP3      H2              7.9568827738       -0.7891006569      -38.3340828967  TIP3      17653           0.0000000000
     75212     17846  TIP3      OH2             6.8763296386      -14.4327506301      -39.6260228046  TIP3      17654           0.0000000000
     75213     17846  TIP3      H1              6.8262268942      -13.5339792048      -39.2426512027  TIP3      17654           0.0000000000
     75214     17846  TIP3      H2              7.7856918385      -14.6768053440      -39.3640507412  TIP3      17654           0.0000000000
     75215     17847  TIP3      OH2            17.0703497956      -13.7416569259      -27.1766645858  TIP3      17655           0.0000000000
     75216     17847  TIP3      H1             16.1665629816      -13.3788847481      -27.3029339219  TIP3      17655           0.0000000000
     75217     17847  TIP3      H2             17.4023735706      -13.7022040697      -28.0846698963  TIP3      17655           0.0000000000
     75218     17848  TIP3      OH2            15.7247633802       -9.8977656844      -33.1788228295  TIP3      17656           0.0000000000
     75219     17848  TIP3      H1             14.8998939755      -10.3286747272      -33.4542391595  TIP3      17656           0.0000000000
     75220     17848  TIP3      H2             16.2024672129      -10.5831172773      -32.6584210614  TIP3      17656           0.0000000000
     75221     17849  TIP3      OH2             5.1075916531       -3.9913066411      -40.5854498262  TIP3      17657           0.0000000000
     75222     17849  TIP3      H1              5.7750369539       -3.3655871608      -40.2675035625  TIP3      17657           0.0000000000
     75223     17849  TIP3      H2              5.6322654830       -4.4560065708      -41.2683247511  TIP3      17657           0.0000000000
     75224     17850  TIP3      OH2             3.4546375109      -11.3176192251      -41.4399910026  TIP3      17658           0.0000000000
     75225     17850  TIP3      H1              3.4715830726      -10.3600889283      -41.2322663893  TIP3      17658           0.0000000000
     75226     17850  TIP3      H2              2.5631650049      -11.4943842124      -41.7479780480  TIP3      17658           0.0000000000
     75227     17851  TIP3      OH2            16.7760308011       -0.6558911761      -31.5345645390  TIP3      17659           0.0000000000
     75228     17851  TIP3      H1             16.6922353509        0.0395837203      -32.2128359122  TIP3      17659           0.0000000000
     75229     17851  TIP3      H2             17.7362183266       -0.5994720813      -31.3362765138  TIP3      17659           0.0000000000
     75230     17852  TIP3      OH2             4.2709570545      -16.5337852368      -32.6954026145  TIP3      17660           0.0000000000
     75231     17852  TIP3      H1              4.0770192674      -16.5147765340      -33.6587582428  TIP3      17660           0.0000000000
     75232     17852  TIP3      H2              3.8564239656      -17.3858706316      -32.4444486269  TIP3      17660           0.0000000000
     75233     17853  TIP3      OH2             3.2257943400       -2.6109286760      -36.5499455477  TIP3      17661           0.0000000000
     75234     17853  TIP3      H1              2.3735476523       -2.1615094282      -36.5962763756  TIP3      17661           0.0000000000
     75235     17853  TIP3      H2              3.7024221738       -2.1460041513      -37.2506947414  TIP3      17661           0.0000000000
     75236     17854  TIP3      OH2             7.0904295576       -1.0082958090      -23.7109064509  TIP3      17662           0.0000000000
     75237     17854  TIP3      H1              7.7788107194       -1.5825626196      -23.3143997921  TIP3      17662           0.0000000000
     75238     17854  TIP3      H2              7.1152676381       -1.3289202812      -24.6309540640  TIP3      17662           0.0000000000
     75239     17855  TIP3      OH2            11.2462141224       -1.5280709558      -42.2584179135  TIP3      17663           0.0000000000
     75240     17855  TIP3      H1             10.5523299165       -2.1868500206      -42.0308513261  TIP3      17663           0.0000000000
     75241     17855  TIP3      H2             11.9634992092       -2.1274432471      -42.5064269657  TIP3      17663           0.0000000000
     75242     17856  TIP3      OH2            13.6088523845       -2.6709329120      -24.9066965569  TIP3      17664           0.0000000000
     75243     17856  TIP3      H1             13.2942467376       -3.5569773062      -24.6278060102  TIP3      17664           0.0000000000
     75244     17856  TIP3      H2             14.4081934928       -2.5288438901      -24.3576357958  TIP3      17664           0.0000000000
     75245     17857  TIP3      OH2            15.8150394435       -1.7628358917      -42.0797368854  TIP3      17665           0.0000000000
     75246     17857  TIP3      H1             16.0890184675       -2.5443866591      -41.5692458029  TIP3      17665           0.0000000000
     75247     17857  TIP3      H2             16.5849138066       -1.5855716082      -42.6306661120  TIP3      17665           0.0000000000
     75248     17858  TIP3      OH2             2.3304069564       -6.2170541551      -24.2682688774  TIP3      17666           0.0000000000
     75249     17858  TIP3      H1              2.5244629744       -7.1169663264      -24.5745389171  TIP3      17666           0.0000000000
     75250     17858  TIP3      H2              1.6072721517       -5.9090075033      -24.8396465380  TIP3      17666           0.0000000000
     75251     17859  TIP3      OH2             6.6917075504       -5.8421862974      -42.2547153357  TIP3      17667           0.0000000000
     75252     17859  TIP3      H1              6.8307626286       -6.6032878615      -41.6706200184  TIP3      17667           0.0000000000
     75253     17859  TIP3      H2              7.4404618963       -5.9613782520      -42.8715767112  TIP3      17667           0.0000000000
     75254     17860  TIP3      OH2             9.1394379488       -6.2053559440      -24.9113628695  TIP3      17668           0.0000000000
     75255     17860  TIP3      H1              8.7286337350       -5.8904389780      -25.7340980249  TIP3      17668           0.0000000000
     75256     17860  TIP3      H2              9.1188818785       -7.1897896879      -24.9890667482  TIP3      17668           0.0000000000
     75257     17861  TIP3      OH2            12.1224743917       -4.7334872964      -42.4759642834  TIP3      17669           0.0000000000
     75258     17861  TIP3      H1             11.8515854504       -4.6523248583      -41.5478926436  TIP3      17669           0.0000000000
     75259     17861  TIP3      H2             11.9326094375       -5.6909876654      -42.6206602820  TIP3      17669           0.0000000000
     75260     17862  TIP3      OH2            14.7499839139       -6.3224469005      -27.4788421713  TIP3      17670           0.0000000000
     75261     17862  TIP3      H1             15.5445840100       -5.7583773614      -27.5901590655  TIP3      17670           0.0000000000
     75262     17862  TIP3      H2             14.0569000627       -5.6486864126      -27.4670881854  TIP3      17670           0.0000000000
     75263     17863  TIP3      OH2             3.2174331634       -8.9376835201      -24.8659051088  TIP3      17671           0.0000000000
     75264     17863  TIP3      H1              3.6472218675       -9.7920367644      -24.9964769462  TIP3      17671           0.0000000000
     75265     17863  TIP3      H2              3.0287281713       -8.9668077457      -23.9225386222  TIP3      17671           0.0000000000
     75266     17864  TIP3      OH2             7.8945878444       -7.8245975133      -39.8232018293  TIP3      17672           0.0000000000
     75267     17864  TIP3      H1              7.3899345104       -8.3640460889      -39.1962556847  TIP3      17672           0.0000000000
     75268     17864  TIP3      H2              8.1926390152       -8.4973554478      -40.4787243961  TIP3      17672           0.0000000000
     75269     17865  TIP3      OH2             7.1656064267      -10.0218691665      -27.5496379309  TIP3      17673           0.0000000000
     75270     17865  TIP3      H1              6.5757387663       -9.3055509972      -27.2689388222  TIP3      17673           0.0000000000
     75271     17865  TIP3      H2              7.5612628304       -9.6482342384      -28.3531480488  TIP3      17673           0.0000000000
     75272     17866  TIP3      OH2             8.9704973244       -9.6015320522      -41.6270959281  TIP3      17674           0.0000000000
     75273     17866  TIP3      H1              8.8187335042       -9.6915356797      -42.5903534550  TIP3      17674           0.0000000000
     75274     17866  TIP3      H2              9.9466406304       -9.5496193301      -41.5602780092  TIP3      17674           0.0000000000
     75275     17867  TIP3      OH2            12.2607315957       -7.4062719174      -24.1282114580  TIP3      17675           0.0000000000
     75276     17867  TIP3      H1             13.1960071161       -7.5004182868      -24.3668004785  TIP3      17675           0.0000000000
     75277     17867  TIP3      H2             12.0334111673       -8.2107752245      -23.6410153140  TIP3      17675           0.0000000000
     75278     17868  TIP3      OH2            18.2973034339       -7.2797368020      -42.2155668409  TIP3      17676           0.0000000000
     75279     17868  TIP3      H1             18.1086095156       -7.6617016153      -43.0861400820  TIP3      17676           0.0000000000
     75280     17868  TIP3      H2             18.3883959147       -6.3175264876      -42.4025033181  TIP3      17676           0.0000000000
     75281     17869  TIP3      OH2             7.5790644689      -12.6297268966      -26.4586661735  TIP3      17677           0.0000000000
     75282     17869  TIP3      H1              7.6516655928      -13.3352041387      -27.1205600263  TIP3      17677           0.0000000000
     75283     17869  TIP3      H2              7.4746927877      -11.8130943337      -26.9807893666  TIP3      17677           0.0000000000
     75284     17870  TIP3      OH2             7.9769033032      -14.2583582047      -28.9115950026  TIP3      17678           0.0000000000
     75285     17870  TIP3      H1              8.4741162793      -13.7849715643      -29.6158425224  TIP3      17678           0.0000000000
     75286     17870  TIP3      H2              7.0786751689      -14.3403306419      -29.3009323974  TIP3      17678           0.0000000000
     75287     17871  TIP3      OH2             9.5129410666       -8.7661377161      -28.6895244092  TIP3      17679           0.0000000000
     75288     17871  TIP3      H1             10.2683674493       -8.9279788706      -29.2633948006  TIP3      17679           0.0000000000
     75289     17871  TIP3      H2              9.1421237507       -7.9330638913      -29.0200716345  TIP3      17679           0.0000000000
     75290     17872  TIP3      OH2            15.2271773200       -8.2004327943      -25.5811260361  TIP3      17680           0.0000000000
     75291     17872  TIP3      H1             15.0191997762       -7.4805200818      -26.2085366826  TIP3      17680           0.0000000000
     75292     17872  TIP3      H2             16.1974355118       -8.2666710984      -25.7017717866  TIP3      17680           0.0000000000
     75293     17873  TIP3      OH2             8.7564193534      -16.8287251400      -28.5333707497  TIP3      17681           0.0000000000
     75294     17873  TIP3      H1              8.5754339069      -15.8638159504      -28.6295849787  TIP3      17681           0.0000000000
     75295     17873  TIP3      H2              8.0097917591      -17.1889729651      -29.0420816203  TIP3      17681           0.0000000000
     75296     17874  TIP3      OH2            10.0221856711      -12.5371986331      -24.9231198036  TIP3      17682           0.0000000000
     75297     17874  TIP3      H1              9.7129388553      -12.6893305117      -24.0157522807  TIP3      17682           0.0000000000
     75298     17874  TIP3      H2              9.2064674982      -12.6978126264      -25.4492878261  TIP3      17682           0.0000000000
     75299     17875  TIP3      OH2            12.7071430935      -13.4061544240      -25.8669628600  TIP3      17683           0.0000000000
     75300     17875  TIP3      H1             11.7588067099      -13.3030453501      -25.6816503274  TIP3      17683           0.0000000000
     75301     17875  TIP3      H2             13.0364076942      -13.9797001751      -25.1501135237  TIP3      17683           0.0000000000
     75302     17876  TIP3      OH2            14.2463587460      -14.7404754074      -23.9226788961  TIP3      17684           0.0000000000
     75303     17876  TIP3      H1             14.3002595465      -15.6908753361      -23.8652350954  TIP3      17684           0.0000000000
     75304     17876  TIP3      H2             14.0962560591      -14.4114195280      -23.0237949576  TIP3      17684           0.0000000000
     75305     17877  TIP3      OH2             4.0150591272      -13.5213354956      -24.8275577131  TIP3      17685           0.0000000000
     75306     17877  TIP3      H1              4.4275083546      -14.1932012135      -25.3822479242  TIP3      17685           0.0000000000
     75307     17877  TIP3      H2              4.0969980706      -13.8560380060      -23.9161402968  TIP3      17685           0.0000000000
     75308     17878  TIP3      OH2             8.9709827747      -17.4464524259      -25.8166236196  TIP3      17686           0.0000000000
     75309     17878  TIP3      H1              9.6577642468      -18.1301278245      -25.8490801796  TIP3      17686           0.0000000000
     75310     17878  TIP3      H2              8.8515959872      -17.2524783621      -26.7662324642  TIP3      17686           0.0000000000
     75311     17879  TIP3      OH2             8.8070034582        1.0973308347      -40.5510306888  TIP3      17687           0.0000000000
     75312     17879  TIP3      H1              9.7734012167        1.1856785774      -40.4811173352  TIP3      17687           0.0000000000
     75313     17879  TIP3      H2              8.6531706467        1.7008891929      -41.2869286407  TIP3      17687           0.0000000000
     75314     17880  TIP3      OH2             2.3380644057       -4.3364428842      -41.0848439030  TIP3      17688           0.0000000000
     75315     17880  TIP3      H1              3.3016405345       -4.2298002862      -40.8947873804  TIP3      17688           0.0000000000
     75316     17880  TIP3      H2              2.4183747423       -4.9751234346      -41.8303067398  TIP3      17688           0.0000000000
     75317     17881  TIP3      OH2             1.1371418732        1.0563060799      -36.1151682622  TIP3      17689           0.0000000000
     75318     17881  TIP3      H1              0.4161406610        0.5717382716      -36.5732809779  TIP3      17689           0.0000000000
     75319     17881  TIP3      H2              1.4169331790        0.4038811863      -35.4477728685  TIP3      17689           0.0000000000
     75320     17882  TIP3      OH2             1.9584667362       -0.8064054203      -34.2365418850  TIP3      17690           0.0000000000
     75321     17882  TIP3      H1              1.6052856166       -1.6835380326      -34.0325939438  TIP3      17690           0.0000000000
     75322     17882  TIP3      H2              2.1846217671       -0.4755588358      -33.3514656689  TIP3      17690           0.0000000000
     75323     17883  TIP3      OH2            19.5043668171       -0.0027193401      -31.3279596006  TIP3      17691           0.0000000000
     75324     17883  TIP3      H1             19.5272975320        0.1441202692      -30.3635656384  TIP3      17691           0.0000000000
     75325     17883  TIP3      H2             20.2113194809        0.5808702300      -31.6148155578  TIP3      17691           0.0000000000
     75326     17884  TIP3      OH2            19.1051366233       -0.4100317538      -28.4109989772  TIP3      17692           0.0000000000
     75327     17884  TIP3      H1             18.5917778754       -1.1834333643      -28.7238307995  TIP3      17692           0.0000000000
     75328     17884  TIP3      H2             19.5448346468       -0.8348405828      -27.6536344614  TIP3      17692           0.0000000000
     75329     17885  TIP3      OH2            17.5199598021       -4.6589912111      -23.6936782475  TIP3      17693           0.0000000000
     75330     17885  TIP3      H1             16.6382132323       -4.7280414355      -23.3298107159  TIP3      17693           0.0000000000
     75331     17885  TIP3      H2             17.8775032872       -3.8681045004      -23.2566488452  TIP3      17693           0.0000000000
     75332     17886  TIP3      OH2            18.8320700413       -6.3623281145      -38.2612523883  TIP3      17694           0.0000000000
     75333     17886  TIP3      H1             19.6985248921       -5.9687166621      -38.0739188985  TIP3      17694           0.0000000000
     75334     17886  TIP3      H2             18.8161777100       -7.0817221231      -37.5924992767  TIP3      17694           0.0000000000
     75335     17887  TIP3      OH2            19.1950520081       -8.2909848060      -36.3705638114  TIP3      17695           0.0000000000
     75336     17887  TIP3      H1             18.4406668184       -8.7854309935      -35.9785157003  TIP3      17695           0.0000000000
     75337     17887  TIP3      H2             19.7901902046       -8.1560334342      -35.6071422513  TIP3      17695           0.0000000000
     75338     17888  TIP3      OH2            18.9476068709       -5.5978162181      -31.3934212384  TIP3      17696           0.0000000000
     75339     17888  TIP3      H1             19.7641886260       -5.9719644438      -31.7690552224  TIP3      17696           0.0000000000
     75340     17888  TIP3      H2             19.0938783042       -4.6425657434      -31.5608093448  TIP3      17696           0.0000000000
     75341     17889  TIP3      OH2            17.5112213592       -2.6838060395      -29.1208586430  TIP3      17697           0.0000000000
     75342     17889  TIP3      H1             16.8377776364       -2.3449819123      -28.5069617357  TIP3      17697           0.0000000000
     75343     17889  TIP3      H2             16.9527607411       -3.0853002552      -29.8225139875  TIP3      17697           0.0000000000
     75344     17890  TIP3      OH2            19.4903081104       -8.4650853576      -39.9802391477  TIP3      17698           0.0000000000
     75345     17890  TIP3      H1             18.9259766275       -8.1226247889      -40.7051192817  TIP3      17698           0.0000000000
     75346     17890  TIP3      H2             19.3933150711       -7.7506929599      -39.3231934347  TIP3      17698           0.0000000000
     75347     17891  TIP3      OH2            17.8668634220      -11.2378587924      -41.4699643250  TIP3      17699           0.0000000000
     75348     17891  TIP3      H1             17.9415938300      -10.5710839057      -42.1642689845  TIP3      17699           0.0000000000
     75349     17891  TIP3      H2             17.6808710717      -12.0599665554      -41.9655473048  TIP3      17699           0.0000000000
     75350     17892  TIP3      OH2            17.0135082754       -9.8145241870      -35.8005669893  TIP3      17700           0.0000000000
     75351     17892  TIP3      H1             16.8671667341      -10.7678291846      -35.8453259015  TIP3      17700           0.0000000000
     75352     17892  TIP3      H2             16.6847519205       -9.6023428171      -34.9068815029  TIP3      17700           0.0000000000
     75353     17893  TIP3      OH2             2.0170091176       -7.7263572478      -31.7423450363  TIP3      17701           0.0000000000
     75354     17893  TIP3      H1              2.1962179422       -7.8097947782      -32.7054174976  TIP3      17701           0.0000000000
     75355     17893  TIP3      H2              2.9120038431       -7.9056583058      -31.3895184232  TIP3      17701           0.0000000000
     75356     17894  TIP3      OH2            17.8517955390       -7.8504344577      -26.1214742778  TIP3      17702           0.0000000000
     75357     17894  TIP3      H1             18.4570797574       -8.6114317141      -25.9580836465  TIP3      17702           0.0000000000
     75358     17894  TIP3      H2             18.4801580260       -7.0981862441      -26.1248520910  TIP3      17702           0.0000000000
     75359     17895  TIP3      OH2            19.4036331233       -9.9448352944      -25.6261732611  TIP3      17703           0.0000000000
     75360     17895  TIP3      H1             18.5012489568      -10.3447481502      -25.5622851354  TIP3      17703           0.0000000000
     75361     17895  TIP3      H2             19.9433258057      -10.7427439011      -25.5016545077  TIP3      17703           0.0000000000
     75362     17896  TIP3      OH2            17.1106725889      -13.7634684819      -42.3385704844  TIP3      17704           0.0000000000
     75363     17896  TIP3      H1             17.6832603238      -14.2006691686      -41.6912925192  TIP3      17704           0.0000000000
     75364     17896  TIP3      H2             16.2405942704      -14.1730826930      -42.1873886295  TIP3      17704           0.0000000000
     75365     17897  TIP3      OH2            16.6574799245      -12.2365327565      -37.3890586885  TIP3      17705           0.0000000000
     75366     17897  TIP3      H1             16.9762630413      -13.1558021935      -37.2296183485  TIP3      17705           0.0000000000
     75367     17897  TIP3      H2             17.4796914936      -11.8267318882      -37.6911031343  TIP3      17705           0.0000000000
     75368     17898  TIP3      OH2            17.3030634182      -11.7068780070      -31.9001525271  TIP3      17706           0.0000000000
     75369     17898  TIP3      H1             18.2618607128      -11.4677245435      -31.9242214013  TIP3      17706           0.0000000000
     75370     17898  TIP3      H2             17.1359549432      -11.5352539677      -30.9591725791  TIP3      17706           0.0000000000
     75371     17899  TIP3      OH2            17.3677947809      -10.9777102055      -29.1608672659  TIP3      17707           0.0000000000
     75372     17899  TIP3      H1             16.5233313545      -10.6781798181      -28.7535585997  TIP3      17707           0.0000000000
     75373     17899  TIP3      H2             17.8088985671      -10.1223817272      -29.3623866160  TIP3      17707           0.0000000000
     75374     17900  TIP3      OH2             1.6346157303      -12.4390178784      -25.6219463136  TIP3      17708           0.0000000000
     75375     17900  TIP3      H1              2.5686215338      -12.6503403901      -25.3929182026  TIP3      17708           0.0000000000
     75376     17900  TIP3      H2              1.1691059563      -13.2339821730      -25.2984188087  TIP3      17708           0.0000000000
     75377     17901  TIP3      OH2            17.3830516610      -14.9540176234      -37.3212582032  TIP3      17709           0.0000000000
     75378     17901  TIP3      H1             17.5651839820      -15.3787788235      -36.4570174840  TIP3      17709           0.0000000000
     75379     17901  TIP3      H2             16.7397119809      -15.5737168615      -37.7338755403  TIP3      17709           0.0000000000
     75380     17902  TIP3      OH2             2.8523862693      -14.1353026409      -32.7573865585  TIP3      17710           0.0000000000
     75381     17902  TIP3      H1              3.2992043374      -14.9637424055      -32.4836815475  TIP3      17710           0.0000000000
     75382     17902  TIP3      H2              3.3907163882      -13.4438495295      -32.3505556848  TIP3      17710           0.0000000000
     75383     17903  TIP3      OH2             1.1175947777      -11.1401534519      -31.7081185936  TIP3      17711           0.0000000000
     75384     17903  TIP3      H1              1.6837653563      -11.3877361585      -32.4664093724  TIP3      17711           0.0000000000
     75385     17903  TIP3      H2              1.5838773536      -10.3359157811      -31.4345310055  TIP3      17711           0.0000000000
     75386     17904  TIP3      OH2            19.2004352047      -14.7951183183      -25.3988640167  TIP3      17712           0.0000000000
     75387     17904  TIP3      H1             18.2624757363      -14.5321696123      -25.4629467770  TIP3      17712           0.0000000000
     75388     17904  TIP3      H2             19.2365109641      -15.3910304203      -26.1570130452  TIP3      17712           0.0000000000
     75389     17905  TIP3      OH2            19.2025311039      -14.9460404892      -40.6987938624  TIP3      17713           0.0000000000
     75390     17905  TIP3      H1             19.5506006054      -15.6260674830      -41.3179900697  TIP3      17713           0.0000000000
     75391     17905  TIP3      H2             19.8277618440      -14.2148703423      -40.7712725076  TIP3      17713           0.0000000000
     75392     17906  TIP3      OH2             1.4850228398      -14.8579849704      -37.6194269659  TIP3      17714           0.0000000000
     75393     17906  TIP3      H1              0.5426079263      -14.7023561633      -37.7851098277  TIP3      17714           0.0000000000
     75394     17906  TIP3      H2              1.9038219365      -14.3847376589      -38.3567325650  TIP3      17714           0.0000000000
     75395     17907  TIP3      OH2            16.2201406295        0.0769092254      -35.6785950420  TIP3      17715           0.0000000000
     75396     17907  TIP3      H1             16.9045907457       -0.2293234938      -36.3007012181  TIP3      17715           0.0000000000
     75397     17907  TIP3      H2             16.7369217706        0.5715243027      -35.0257998206  TIP3      17715           0.0000000000
     75398     17908  TIP3      OH2             1.4352419532      -16.2168819696      -29.3255828709  TIP3      17716           0.0000000000
     75399     17908  TIP3      H1              0.7426475935      -16.4163086760      -28.6686426573  TIP3      17716           0.0000000000
     75400     17908  TIP3      H2              0.9684238797      -15.5523036103      -29.8687770144  TIP3      17716           0.0000000000
     75401     17909  TIP3      OH2             6.5704845756       -2.0148655486      -28.8901366450  TIP3      17717           0.0000000000
     75402     17909  TIP3      H1              6.2433546178       -1.1485632099      -29.1774514435  TIP3      17717           0.0000000000
     75403     17909  TIP3      H2              7.4953834333       -1.9333171224      -29.2035742936  TIP3      17717           0.0000000000
     75404     17910  TIP3      OH2            10.8983128662       -0.5941585700      -25.9671703904  TIP3      17718           0.0000000000
     75405     17910  TIP3      H1             11.0573529058       -0.9240108779      -25.0527352249  TIP3      17718           0.0000000000
     75406     17910  TIP3      H2             11.7933850101       -0.2927346332      -26.2395728068  TIP3      17718           0.0000000000
     75407     17911  TIP3      OH2            13.1882270580        0.6502427840      -26.6653257295  TIP3      17719           0.0000000000
     75408     17911  TIP3      H1             13.9322099734        0.0796361143      -26.9298016525  TIP3      17719           0.0000000000
     75409     17911  TIP3      H2             13.5736647144        1.0901790680      -25.8870164581  TIP3      17719           0.0000000000
     75410     17912  TIP3      OH2            18.2217366073      -16.7086123829      -27.6070248265  TIP3      17720           0.0000000000
     75411     17912  TIP3      H1             17.3676042376      -16.4233619153      -27.9587522981  TIP3      17720           0.0000000000
     75412     17912  TIP3      H2             18.3693929208      -17.5430334764      -28.0966638849  TIP3      17720           0.0000000000
     75413     17913  TIP3      OH2             3.9964329534        1.2091108450      -28.8927140259  TIP3      17721           0.0000000000
     75414     17913  TIP3      H1              3.2756195732        1.7104584194      -29.3039079305  TIP3      17721           0.0000000000
     75415     17913  TIP3      H2              3.6668610739        1.0369927388      -28.0115438478  TIP3      17721           0.0000000000
     75416     17914  TIP3      OH2             6.4648323971        0.7938116494      -29.8278771454  TIP3      17722           0.0000000000
     75417     17914  TIP3      H1              5.5723259490        0.9392367279      -29.4329974879  TIP3      17722           0.0000000000
     75418     17914  TIP3      H2              6.4099900350        1.3857083216      -30.6012803603  TIP3      17722           0.0000000000
     75419     17915  TIP3      OH2            11.1720344692        0.7044115641      -30.6637236705  TIP3      17723           0.0000000000
     75420     17915  TIP3      H1             10.7060029010        1.2644558765      -31.3058073910  TIP3      17723           0.0000000000
     75421     17915  TIP3      H2             11.3019752326        1.3347340321      -29.9234898791  TIP3      17723           0.0000000000
     75422     17916  TIP3      OH2            13.4541994261       -0.4860784299      -29.6315983708  TIP3      17724           0.0000000000
     75423     17916  TIP3      H1             12.6020910913       -0.2034655686      -29.9994932694  TIP3      17724           0.0000000000
     75424     17916  TIP3      H2             13.9417457432        0.3519363732      -29.7156147324  TIP3      17724           0.0000000000
     75425     17917  TIP3      OH2            16.0393036876        1.0812313692      -29.4111088572  TIP3      17725           0.0000000000
     75426     17917  TIP3      H1             15.9890568360        2.0441007890      -29.6359700006  TIP3      17725           0.0000000000
     75427     17917  TIP3      H2             16.2581346055        0.7131611419      -30.2883580255  TIP3      17725           0.0000000000
     75428     17918  TIP3      OH2             3.4579265557       -0.1346786938      -31.9534603680  TIP3      17726           0.0000000000
     75429     17918  TIP3      H1              3.3694888474       -0.5982538239      -31.0935323898  TIP3      17726           0.0000000000
     75430     17918  TIP3      H2              4.2710305361       -0.5128968565      -32.3451323365  TIP3      17726           0.0000000000
     75431     17919  TIP3      OH2             5.5319312479       -1.4214769227      -33.3040519114  TIP3      17727           0.0000000000
     75432     17919  TIP3      H1              5.3675670121       -2.3552257374      -33.0706496800  TIP3      17727           0.0000000000
     75433     17919  TIP3      H2              6.3874677331       -1.2663071754      -32.8515341745  TIP3      17727           0.0000000000
     75434     17920  TIP3      OH2             8.1398090096       -0.9359924286      -32.4266974042  TIP3      17728           0.0000000000
     75435     17920  TIP3      H1              8.2909508507       -1.8611721766      -32.6902773165  TIP3      17728           0.0000000000
     75436     17920  TIP3      H2              8.1817321030       -0.9940868191      -31.4607589803  TIP3      17728           0.0000000000
     75437     17921  TIP3      OH2            11.5041353108      -15.3404085898      -33.3412125465  TIP3      17729           0.0000000000
     75438     17921  TIP3      H1             10.7769411902      -15.9490251224      -33.0717803712  TIP3      17729           0.0000000000
     75439     17921  TIP3      H2             11.9522210734      -15.8381605936      -34.0355024580  TIP3      17729           0.0000000000
     75440     17922  TIP3      OH2            16.7208929721      -17.2010950451      -33.1960658078  TIP3      17730           0.0000000000
     75441     17922  TIP3      H1             17.3703814033      -16.6709511682      -33.7325752460  TIP3      17730           0.0000000000
     75442     17922  TIP3      H2             15.8595776194      -16.8912215354      -33.5131462327  TIP3      17730           0.0000000000
     75443     17923  TIP3      OH2            18.3711701907      -15.9861420893      -34.9299242887  TIP3      17731           0.0000000000
     75444     17923  TIP3      H1             19.0499443960      -16.5726847118      -35.3399220640  TIP3      17731           0.0000000000
     75445     17923  TIP3      H2             18.8901749708      -15.1572996391      -34.8206279424  TIP3      17731           0.0000000000
     75446     17924  TIP3      OH2             3.9617599388      -16.6620765132      -35.4410359382  TIP3      17732           0.0000000000
     75447     17924  TIP3      H1              3.1639860034      -16.8553864709      -35.9695348855  TIP3      17732           0.0000000000
     75448     17924  TIP3      H2              4.4195479110      -17.5230753054      -35.5009816915  TIP3      17732           0.0000000000
     75449     17925  TIP3      OH2             2.7262919295      -16.9088845259      -39.7194097622  TIP3      17733           0.0000000000
     75450     17925  TIP3      H1              3.2190256173      -16.2585497038      -40.2538742927  TIP3      17733           0.0000000000
     75451     17925  TIP3      H2              2.1591319455      -16.3330905105      -39.1810345961  TIP3      17733           0.0000000000
     75452     17926  TIP3      OH2             8.4233929960      -16.7384796999      -35.6574115389  TIP3      17734           0.0000000000
     75453     17926  TIP3      H1              9.3217857286      -16.3776924570      -35.7307368608  TIP3      17734           0.0000000000
     75454     17926  TIP3      H2              8.3788180566      -16.9532969009      -34.7264106754  TIP3      17734           0.0000000000
     75455     17927  TIP3      OH2            14.1704956669      -16.7647767781      -34.1073130801  TIP3      17735           0.0000000000
     75456     17927  TIP3      H1             14.1226247310      -16.6481595511      -35.0723475428  TIP3      17735           0.0000000000
     75457     17927  TIP3      H2             13.8007533617      -17.6831951835      -33.9883016254  TIP3      17735           0.0000000000
     75458     17928  TIP3      OH2            15.4118004821      -16.6883294173      -38.3471120461  TIP3      17736           0.0000000000
     75459     17928  TIP3      H1             14.6626477261      -16.0944281967      -38.5037211945  TIP3      17736           0.0000000000
     75460     17928  TIP3      H2             14.9709322097      -17.5393465752      -38.1114061445  TIP3      17736           0.0000000000
     75461     17929  TIP3      OH2             2.6403241458       -0.9603557173      -38.6892467600  TIP3      17737           0.0000000000
     75462     17929  TIP3      H1              1.9840850624       -0.9732074974      -39.4097110333  TIP3      17737           0.0000000000
     75463     17929  TIP3      H2              2.6384951625       -0.0050968341      -38.5178167826  TIP3      17737           0.0000000000
     75464     17930  TIP3      OH2             4.5549933021      -14.9644498071      -41.2076431400  TIP3      17738           0.0000000000
     75465     17930  TIP3      H1              5.0868768727      -15.5822462758      -41.7358373276  TIP3      17738           0.0000000000
     75466     17930  TIP3      H2              5.2208900221      -14.6424206379      -40.5726002015  TIP3      17738           0.0000000000
     75467     17931  TIP3      OH2             9.5834203323      -14.7225849620      -38.8009764570  TIP3      17739           0.0000000000
     75468     17931  TIP3      H1              9.8302072499      -15.3008540890      -38.0639451174  TIP3      17739           0.0000000000
     75469     17931  TIP3      H2              9.6524522658      -13.8547886271      -38.3460560075  TIP3      17739           0.0000000000
     75470     17932  TIP3      OH2            11.5090320716        0.3493517857      -40.3542775961  TIP3      17740           0.0000000000
     75471     17932  TIP3      H1             12.4277307937        0.5703151020      -40.5646082958  TIP3      17740           0.0000000000
     75472     17932  TIP3      H2             11.2933866673       -0.1674796276      -41.1578501608  TIP3      17740           0.0000000000
     75473     17933  TIP3      OH2            18.2084300475       -0.1455986004      -37.6380857540  TIP3      17741           0.0000000000
     75474     17933  TIP3      H1             18.0181686465       -0.9294862373      -38.2083854710  TIP3      17741           0.0000000000
     75475     17933  TIP3      H2             18.1415815053        0.5872933862      -38.2822264760  TIP3      17741           0.0000000000
     75476     17934  TIP3      OH2             3.8478010727      -16.1447504884      -26.0386203126  TIP3      17742           0.0000000000
     75477     17934  TIP3      H1              3.4804346149      -16.8603912521      -25.5263741264  TIP3      17742           0.0000000000
     75478     17934  TIP3      H2              4.7477741077      -16.1166005272      -25.6222569144  TIP3      17742           0.0000000000
     75479     17935  TIP3      OH2             5.8120470739      -16.8104061112      -24.4858226579  TIP3      17743           0.0000000000
     75480     17935  TIP3      H1              6.7596488351      -17.0085035118      -24.5759699042  TIP3      17743           0.0000000000
     75481     17935  TIP3      H2              5.5628650240      -17.5108824912      -23.8872295771  TIP3      17743           0.0000000000
     75482     17936  TIP3      OH2             4.4342879138        0.0274697637      -41.7492779784  TIP3      17744           0.0000000000
     75483     17936  TIP3      H1              4.1761324055        0.2863692550      -40.8530615695  TIP3      17744           0.0000000000
     75484     17936  TIP3      H2              5.2180360097       -0.5354983096      -41.5941540064  TIP3      17744           0.0000000000
     75485     17937  TIP3      OH2            17.4267389181       -1.4667151551      -25.9220771298  TIP3      17745           0.0000000000
     75486     17937  TIP3      H1             16.4811588225       -1.5337172042      -26.1493305151  TIP3      17745           0.0000000000
     75487     17937  TIP3      H2             17.4273705688       -0.6468441093      -25.3723321198  TIP3      17745           0.0000000000
     75488     17938  TIP3      OH2            31.9008191918       -7.5355156917      -35.5831195607  TIP3      17746           0.0000000000
     75489     17938  TIP3      H1             31.9037916340       -6.5514710181      -35.6097440859  TIP3      17746           0.0000000000
     75490     17938  TIP3      H2             31.1731652131       -7.7594745412      -36.1863087585  TIP3      17746           0.0000000000
     75491     17939  TIP3      OH2            30.7720224913       -8.2731098975      -32.0693222937  TIP3      17747           0.0000000000
     75492     17939  TIP3      H1             30.7283978283       -8.9338420152      -31.3702310607  TIP3      17747           0.0000000000
     75493     17939  TIP3      H2             30.4344301071       -8.7646914067      -32.8377751576  TIP3      17747           0.0000000000
     75494     17940  TIP3      OH2            23.1111899937       -8.5914203452      -30.5337056121  TIP3      17748           0.0000000000
     75495     17940  TIP3      H1             23.1910093266       -9.2766326903      -29.8366501588  TIP3      17748           0.0000000000
     75496     17940  TIP3      H2             23.8580721724       -8.0188202187      -30.3058936208  TIP3      17748           0.0000000000
     75497     17941  TIP3      OH2            34.4667883904       -5.3428681491      -33.7904231493  TIP3      17749           0.0000000000
     75498     17941  TIP3      H1             34.0383958471       -6.0469673572      -33.2966856994  TIP3      17749           0.0000000000
     75499     17941  TIP3      H2             34.4693240376       -4.6152417332      -33.1483282703  TIP3      17749           0.0000000000
     75500     17942  TIP3      OH2            24.0365535435       -4.1368568109      -32.0403702421  TIP3      17750           0.0000000000
     75501     17942  TIP3      H1             23.7255488204       -5.0105714123      -32.3477580294  TIP3      17750           0.0000000000
     75502     17942  TIP3      H2             24.9908856158       -4.3248058611      -31.9845784603  TIP3      17750           0.0000000000
     75503     17943  TIP3      OH2            20.6854915543      -10.6022094694      -36.5603067230  TIP3      17751           0.0000000000
     75504     17943  TIP3      H1             20.2577429319       -9.7231636352      -36.6020570768  TIP3      17751           0.0000000000
     75505     17943  TIP3      H2             20.0917934034      -11.1210516930      -37.1074149311  TIP3      17751           0.0000000000
     75506     17944  TIP3      OH2            21.3943465982       -8.3581500610      -34.3911139564  TIP3      17752           0.0000000000
     75507     17944  TIP3      H1             21.6630525881       -9.1817361454      -33.9418564041  TIP3      17752           0.0000000000
     75508     17944  TIP3      H2             22.0834738585       -8.2531164475      -35.0610069173  TIP3      17752           0.0000000000
     75509     17945  TIP3      OH2            31.5069780555       -0.1852075481      -33.6136499857  TIP3      17753           0.0000000000
     75510     17945  TIP3      H1             32.2221504057       -0.8494384710      -33.8213290327  TIP3      17753           0.0000000000
     75511     17945  TIP3      H2             31.3531087477       -0.4684936355      -32.6941789131  TIP3      17753           0.0000000000
     75512     17946  TIP3      OH2            29.1327278278       -5.8710213463      -31.6132841372  TIP3      17754           0.0000000000
     75513     17946  TIP3      H1             29.4694217692       -6.4959645527      -32.2716098787  TIP3      17754           0.0000000000
     75514     17946  TIP3      H2             29.9449462488       -5.6943762497      -31.1110388878  TIP3      17754           0.0000000000
     75515     17947  TIP3      OH2            32.3078626473      -11.3768542858      -31.2793264092  TIP3      17755           0.0000000000
     75516     17947  TIP3      H1             32.4718578683      -12.3396543394      -31.2970056743  TIP3      17755           0.0000000000
     75517     17947  TIP3      H2             32.2108077483      -11.2394039421      -32.2427436624  TIP3      17755           0.0000000000
     75518     17948  TIP3      OH2            25.4193735652      -13.3057808028      -34.0790653999  TIP3      17756           0.0000000000
     75519     17948  TIP3      H1             25.5219148232      -12.4729216253      -34.5764032140  TIP3      17756           0.0000000000
     75520     17948  TIP3      H2             25.0214353812      -13.8822960282      -34.7569411357  TIP3      17756           0.0000000000
     75521     17949  TIP3      OH2            33.1802378336      -13.1889944103      -35.6989449071  TIP3      17757           0.0000000000
     75522     17949  TIP3      H1             33.8185802670      -13.5489397197      -35.0352689609  TIP3      17757           0.0000000000
     75523     17949  TIP3      H2             33.7733047193      -12.6639490762      -36.2397190163  TIP3      17757           0.0000000000
     75524     17950  TIP3      OH2            22.0382777035      -10.8988073450      -33.3491242760  TIP3      17758           0.0000000000
     75525     17950  TIP3      H1             22.7071484499      -11.4423185357      -32.8931429752  TIP3      17758           0.0000000000
     75526     17950  TIP3      H2             22.1445306017      -11.2127850193      -34.2601718203  TIP3      17758           0.0000000000
     75527     17951  TIP3      OH2            27.1939982888       -9.3419919069      -34.0259736648  TIP3      17759           0.0000000000
     75528     17951  TIP3      H1             27.8678876571       -9.9238655368      -33.6337462810  TIP3      17759           0.0000000000
     75529     17951  TIP3      H2             26.6781779000      -10.0000875662      -34.5331952439  TIP3      17759           0.0000000000
     75530     17952  TIP3      OH2            24.3233729826      -14.4100436779      -30.0431419409  TIP3      17760           0.0000000000
     75531     17952  TIP3      H1             24.0402706643      -13.8362605035      -30.7866952577  TIP3      17760           0.0000000000
     75532     17952  TIP3      H2             23.6470063631      -14.1803835125      -29.3600584636  TIP3      17760           0.0000000000
     75533     17953  TIP3      OH2            31.5890973042       -4.9359731156      -36.4939465482  TIP3      17761           0.0000000000
     75534     17953  TIP3      H1             31.3514311639       -5.2226822996      -37.3863007261  TIP3      17761           0.0000000000
     75535     17953  TIP3      H2             31.2928646537       -4.0050808865      -36.4534621806  TIP3      17761           0.0000000000
     75536     17954  TIP3      OH2            26.8323598210       -6.7716548028      -29.8218580310  TIP3      17762           0.0000000000
     75537     17954  TIP3      H1             26.1352428165       -6.1293489319      -29.5734691872  TIP3      17762           0.0000000000
     75538     17954  TIP3      H2             27.5443227841       -6.1692501561      -30.0928599471  TIP3      17762           0.0000000000
     75539     17955  TIP3      OH2            34.6570613703      -13.9041259375      -33.6039879718  TIP3      17763           0.0000000000
     75540     17955  TIP3      H1             34.6876987253      -14.7364787107      -33.1278885467  TIP3      17763           0.0000000000
     75541     17955  TIP3      H2             35.4286056963      -13.4463899852      -33.2051686204  TIP3      17763           0.0000000000
     75542     17956  TIP3      OH2            23.8915571144      -12.5538178356      -32.0056176380  TIP3      17764           0.0000000000
     75543     17956  TIP3      H1             24.5179558054      -11.8639230207      -31.6918133459  TIP3      17764           0.0000000000
     75544     17956  TIP3      H2             24.4101775999      -12.9613608747      -32.7437310179  TIP3      17764           0.0000000000
     75545     17957  TIP3      OH2            25.2836330344       -4.7581073837      -28.9753820011  TIP3      17765           0.0000000000
     75546     17957  TIP3      H1             25.2392702547       -3.8443136690      -29.3137800742  TIP3      17765           0.0000000000
     75547     17957  TIP3      H2             24.3912904158       -4.8387642452      -28.5515005903  TIP3      17765           0.0000000000
     75548     17958  TIP3      OH2            21.3638072865       -5.1531387996      -38.1912765734  TIP3      17766           0.0000000000
     75549     17958  TIP3      H1             21.1133354626       -4.8135613152      -39.0682208058  TIP3      17766           0.0000000000
     75550     17958  TIP3      H2             21.4434533841       -4.3256618660      -37.6757255158  TIP3      17766           0.0000000000
     75551     17959  TIP3      OH2            34.7782639873       -3.5538757288      -31.3300779696  TIP3      17767           0.0000000000
     75552     17959  TIP3      H1             33.8193184077       -3.3441755043      -31.2926264640  TIP3      17767           0.0000000000
     75553     17959  TIP3      H2             35.1580792487       -2.7102290710      -31.6395025979  TIP3      17767           0.0000000000
     75554     17960  TIP3      OH2            35.1034372232      -15.0623101005      -30.2729459024  TIP3      17768           0.0000000000
     75555     17960  TIP3      H1             34.4013746134      -14.3894108878      -30.1863022275  TIP3      17768           0.0000000000
     75556     17960  TIP3      H2             35.8545282039      -14.5727042594      -30.6267898165  TIP3      17768           0.0000000000
     75557     17961  TIP3      OH2            28.2593600113      -17.0765642833      -32.5792537026  TIP3      17769           0.0000000000
     75558     17961  TIP3      H1             28.1244706513      -18.0413775920      -32.6481798817  TIP3      17769           0.0000000000
     75559     17961  TIP3      H2             27.3816423330      -16.7710118900      -32.2702237469  TIP3      17769           0.0000000000
     75560     17962  TIP3      OH2            33.1101965198       -1.7397703502      -34.8632449530  TIP3      17770           0.0000000000
     75561     17962  TIP3      H1             33.6328049687       -2.4473158893      -35.3102403806  TIP3      17770           0.0000000000
     75562     17962  TIP3      H2             33.6360474057       -0.9702463911      -35.1779316152  TIP3      17770           0.0000000000
     75563     17963  TIP3      OH2            34.3945281790       -3.7622074273      -36.3115689975  TIP3      17771           0.0000000000
     75564     17963  TIP3      H1             34.1828021107       -4.4794380742      -36.9312452856  TIP3      17771           0.0000000000
     75565     17963  TIP3      H2             34.4921973339       -4.2864591077      -35.4898571981  TIP3      17771           0.0000000000
     75566     17964  TIP3      OH2            35.7679129352       -5.0406904064      -27.7206193850  TIP3      17772           0.0000000000
     75567     17964  TIP3      H1             36.0909432305       -5.7249151250      -28.3422994317  TIP3      17772           0.0000000000
     75568     17964  TIP3      H2             36.1993421246       -4.2795272466      -28.1567966276  TIP3      17772           0.0000000000
     75569     17965  TIP3      OH2            30.5510580329       -8.2881520703      -38.0657604320  TIP3      17773           0.0000000000
     75570     17965  TIP3      H1             29.8615355870       -7.7063451872      -38.4342659231  TIP3      17773           0.0000000000
     75571     17965  TIP3      H2             31.2652449155       -8.1951468064      -38.7255879337  TIP3      17773           0.0000000000
     75572     17966  TIP3      OH2            30.6365230942       -9.7154771517      -41.0582460230  TIP3      17774           0.0000000000
     75573     17966  TIP3      H1             31.3529417150       -9.7389170813      -40.4046986319  TIP3      17774           0.0000000000
     75574     17966  TIP3      H2             30.9404210090      -10.4336161280      -41.6296848480  TIP3      17774           0.0000000000
     75575     17967  TIP3      OH2            33.9766564982       -8.0679833599      -37.1788341677  TIP3      17775           0.0000000000
     75576     17967  TIP3      H1             33.2516593604       -7.8160597447      -36.5597259034  TIP3      17775           0.0000000000
     75577     17967  TIP3      H2             34.4571798462       -8.7102955651      -36.6121738751  TIP3      17775           0.0000000000
     75578     17968  TIP3      OH2            33.8418665204       -9.9002700540      -27.9712007668  TIP3      17776           0.0000000000
     75579     17968  TIP3      H1             34.0512487944       -9.0416888125      -27.5868456684  TIP3      17776           0.0000000000
     75580     17968  TIP3      H2             33.3505715806       -9.6448924634      -28.7829813376  TIP3      17776           0.0000000000
     75581     17969  TIP3      OH2            25.6122069584       -7.4195292033      -35.2291944211  TIP3      17777           0.0000000000
     75582     17969  TIP3      H1             25.2970354218       -7.8068765445      -36.0802387554  TIP3      17777           0.0000000000
     75583     17969  TIP3      H2             26.2319908148       -8.1066584062      -34.8958440672  TIP3      17777           0.0000000000
     75584     17970  TIP3      OH2            26.9339639310       -4.0344548924      -32.5491802652  TIP3      17778           0.0000000000
     75585     17970  TIP3      H1             26.9339123055       -4.5561034777      -33.3611807561  TIP3      17778           0.0000000000
     75586     17970  TIP3      H2             27.7214227735       -4.3827664578      -32.0912962903  TIP3      17778           0.0000000000
     75587     17971  TIP3      OH2            25.9622831497       -8.6784664236      -31.5600800661  TIP3      17779           0.0000000000
     75588     17971  TIP3      H1             26.4971188678       -8.5660643992      -32.3696842208  TIP3      17779           0.0000000000
     75589     17971  TIP3      H2             26.3356549126       -7.9995488229      -30.9565475544  TIP3      17779           0.0000000000
     75590     17972  TIP3      OH2            32.2897336739       -3.0800428792      -30.8776475207  TIP3      17780           0.0000000000
     75591     17972  TIP3      H1             32.0875811655       -2.4556965749      -30.1780864768  TIP3      17780           0.0000000000
     75592     17972  TIP3      H2             32.1098793996       -3.9492001027      -30.4436426895  TIP3      17780           0.0000000000
     75593     17973  TIP3      OH2            26.9071292790       -4.2390516156      -26.8596549543  TIP3      17781           0.0000000000
     75594     17973  TIP3      H1             26.4925897176       -3.4967783787      -26.3798634582  TIP3      17781           0.0000000000
     75595     17973  TIP3      H2             26.2373063515       -4.4407315993      -27.5539139426  TIP3      17781           0.0000000000
     75596     17974  TIP3      OH2            32.8727601904       -8.8936709918      -39.4709427386  TIP3      17782           0.0000000000
     75597     17974  TIP3      H1             33.4280788407       -8.6752511469      -38.6810554054  TIP3      17782           0.0000000000
     75598     17974  TIP3      H2             33.2742266351       -8.3655704490      -40.1908545337  TIP3      17782           0.0000000000
     75599     17975  TIP3      OH2            23.8396272846       -8.0608910537      -27.7431714808  TIP3      17783           0.0000000000
     75600     17975  TIP3      H1             23.8944682263       -7.4396354639      -26.9904764562  TIP3      17783           0.0000000000
     75601     17975  TIP3      H2             22.8915733917       -7.9888864540      -27.9339962525  TIP3      17783           0.0000000000
     75602     17976  TIP3      OH2            30.6434937663       -2.1194626367      -36.0550179328  TIP3      17784           0.0000000000
     75603     17976  TIP3      H1             31.0199244318       -1.9083681641      -35.1832076048  TIP3      17784           0.0000000000
     75604     17976  TIP3      H2             29.9505937839       -1.5183730369      -36.3164194644  TIP3      17784           0.0000000000
     75605     17977  TIP3      OH2            25.1535428983       -2.2048997961      -26.0911885591  TIP3      17785           0.0000000000
     75606     17977  TIP3      H1             25.1091947820       -2.2947963799      -27.0597887835  TIP3      17785           0.0000000000
     75607     17977  TIP3      H2             24.2141511228       -2.3346278159      -25.8715419614  TIP3      17785           0.0000000000
     75608     17978  TIP3      OH2            24.5766512404       -8.3972831839      -37.5990554088  TIP3      17786           0.0000000000
     75609     17978  TIP3      H1             24.2996818290       -7.6124613141      -38.1181484129  TIP3      17786           0.0000000000
     75610     17978  TIP3      H2             23.9319289222       -9.0624374960      -37.8471593410  TIP3      17786           0.0000000000
     75611     17979  TIP3      OH2            20.6751319016       -5.9666747091      -28.7223751341  TIP3      17787           0.0000000000
     75612     17979  TIP3      H1             20.2229951066       -6.0493623909      -29.5780089204  TIP3      17787           0.0000000000
     75613     17979  TIP3      H2             20.7559739402       -6.9147550616      -28.4995143482  TIP3      17787           0.0000000000
     75614     17980  TIP3      OH2            20.4367785878       -3.2279586037      -31.9394555525  TIP3      17788           0.0000000000
     75615     17980  TIP3      H1             21.3951801923       -3.3429406654      -31.9594916656  TIP3      17788           0.0000000000
     75616     17980  TIP3      H2             20.3545305492       -2.4094901210      -31.4353111588  TIP3      17788           0.0000000000
     75617     17981  TIP3      OH2            29.6352014437       -2.9786641691      -27.4059437151  TIP3      17789           0.0000000000
     75618     17981  TIP3      H1             29.6967438262       -2.1621678024      -26.8605473706  TIP3      17789           0.0000000000
     75619     17981  TIP3      H2             28.7694908169       -3.3465993419      -27.1433337366  TIP3      17789           0.0000000000
     75620     17982  TIP3      OH2            30.1088334433        0.7850964911      -37.6016957078  TIP3      17790           0.0000000000
     75621     17982  TIP3      H1             29.9780388079        0.6744875660      -38.5718961496  TIP3      17790           0.0000000000
     75622     17982  TIP3      H2             30.0911504913        1.7644721151      -37.5345758194  TIP3      17790           0.0000000000
     75623     17983  TIP3      OH2            23.7137043525       -0.3635608282      -35.7779108409  TIP3      17791           0.0000000000
     75624     17983  TIP3      H1             23.8602609204       -0.7765132891      -34.8978632066  TIP3      17791           0.0000000000
     75625     17983  TIP3      H2             22.8648770249       -0.7725734048      -36.0129857856  TIP3      17791           0.0000000000
     75626     17984  TIP3      OH2            33.1300117269       -0.0208407378      -40.6138415816  TIP3      17792           0.0000000000
     75627     17984  TIP3      H1             33.5664290564       -0.7854697420      -41.0543808760  TIP3      17792           0.0000000000
     75628     17984  TIP3      H2             33.1780496383       -0.2968563680      -39.6843211508  TIP3      17792           0.0000000000
     75629     17985  TIP3      OH2            32.8116161019       -0.0790865206      -37.7741863536  TIP3      17793           0.0000000000
     75630     17985  TIP3      H1             31.8435431123       -0.0591695592      -37.7196008538  TIP3      17793           0.0000000000
     75631     17985  TIP3      H2             33.0611258383       -0.8720853330      -37.2735002207  TIP3      17793           0.0000000000
     75632     17986  TIP3      OH2            35.3363657765      -10.8876626312      -25.7633403352  TIP3      17794           0.0000000000
     75633     17986  TIP3      H1             35.3055052731      -10.5353552467      -26.6573287081  TIP3      17794           0.0000000000
     75634     17986  TIP3      H2             35.8373952839      -11.7218157361      -25.9479706181  TIP3      17794           0.0000000000
     75635     17987  TIP3      OH2            22.9720340507       -4.6579554040      -27.7741149992  TIP3      17795           0.0000000000
     75636     17987  TIP3      H1             23.1810757455       -5.0214077450      -26.8846525648  TIP3      17795           0.0000000000
     75637     17987  TIP3      H2             22.0968415467       -5.0428797294      -27.9958291468  TIP3      17795           0.0000000000
     75638     17988  TIP3      OH2            25.6439826927      -16.1648998325      -31.8366791964  TIP3      17796           0.0000000000
     75639     17988  TIP3      H1             24.7386547643      -16.2986819463      -32.1923285658  TIP3      17796           0.0000000000
     75640     17988  TIP3      H2             25.5094990232      -15.3416750215      -31.3389362575  TIP3      17796           0.0000000000
     75641     17989  TIP3      OH2            30.2915991786      -16.5106072365      -28.4578791195  TIP3      17797           0.0000000000
     75642     17989  TIP3      H1             30.6791494769      -16.9239354262      -27.6655123658  TIP3      17797           0.0000000000
     75643     17989  TIP3      H2             29.3176111228      -16.6237242834      -28.3187865553  TIP3      17797           0.0000000000
     75644     17990  TIP3      OH2            33.5319204002      -12.6866902295      -27.6016384508  TIP3      17798           0.0000000000
     75645     17990  TIP3      H1             33.0065177339      -12.8841227743      -26.7887502251  TIP3      17798           0.0000000000
     75646     17990  TIP3      H2             33.3976237857      -11.7441355650      -27.7666471163  TIP3      17798           0.0000000000
     75647     17991  TIP3      OH2            34.3754827906       -7.9333517889      -41.6637268660  TIP3      17799           0.0000000000
     75648     17991  TIP3      H1             34.3039908962       -8.0858009872      -42.6335569248  TIP3      17799           0.0000000000
     75649     17991  TIP3      H2             35.1466044344       -7.3667979081      -41.6349560782  TIP3      17799           0.0000000000
     75650     17992  TIP3      OH2            29.9334707354      -13.9186057312      -41.1546449910  TIP3      17800           0.0000000000
     75651     17992  TIP3      H1             29.6125187475      -13.9832113667      -40.2364364867  TIP3      17800           0.0000000000
     75652     17992  TIP3      H2             29.6183184978      -14.7913648843      -41.4646691820  TIP3      17800           0.0000000000
     75653     17993  TIP3      OH2            25.7484794461      -11.1937910115      -30.5670494395  TIP3      17801           0.0000000000
     75654     17993  TIP3      H1             25.0055043829      -11.2104846459      -29.9330929268  TIP3      17801           0.0000000000
     75655     17993  TIP3      H2             25.6781634368      -10.2925384264      -30.9518791980  TIP3      17801           0.0000000000
     75656     17994  TIP3      OH2            25.7143271043      -11.0804047425      -35.7006234418  TIP3      17802           0.0000000000
     75657     17994  TIP3      H1             24.7742910792      -11.3190430739      -35.8344837460  TIP3      17802           0.0000000000
     75658     17994  TIP3      H2             26.0898234444      -11.3624055283      -36.5553935764  TIP3      17802           0.0000000000
     75659     17995  TIP3      OH2            31.2443720026      -10.5687846268      -36.9224506489  TIP3      17803           0.0000000000
     75660     17995  TIP3      H1             30.8334674193       -9.7589114216      -37.3033534107  TIP3      17803           0.0000000000
     75661     17995  TIP3      H2             31.9238002960      -10.7436382003      -37.5928511005  TIP3      17803           0.0000000000
     75662     17996  TIP3      OH2            30.3965674511      -10.3854483306      -25.5926830412  TIP3      17804           0.0000000000
     75663     17996  TIP3      H1             29.7738399315      -11.0689958333      -25.2150889153  TIP3      17804           0.0000000000
     75664     17996  TIP3      H2             31.0966763547      -10.5073852313      -24.9219785636  TIP3      17804           0.0000000000
     75665     17997  TIP3      OH2            32.2283672912      -11.0723294233      -34.0733726905  TIP3      17805           0.0000000000
     75666     17997  TIP3      H1             31.9957507197      -10.5258994014      -34.8433378741  TIP3      17805           0.0000000000
     75667     17997  TIP3      H2             32.3566033678      -11.9293132841      -34.5301652879  TIP3      17805           0.0000000000
     75668     17998  TIP3      OH2            23.3582694735      -10.9472853855      -28.8898483215  TIP3      17806           0.0000000000
     75669     17998  TIP3      H1             23.4496401322      -10.5444774707      -28.0076564870  TIP3      17806           0.0000000000
     75670     17998  TIP3      H2             22.9246201739      -11.7885807462      -28.6784075169  TIP3      17806           0.0000000000
     75671     17999  TIP3      OH2            26.7436608069      -13.5599020482      -42.0419620697  TIP3      17807           0.0000000000
     75672     17999  TIP3      H1             26.2957805487      -13.9706309576      -41.2823771470  TIP3      17807           0.0000000000
     75673     17999  TIP3      H2             26.0453895921      -13.1116573723      -42.5386733930  TIP3      17807           0.0000000000
     75674     18000  TIP3      OH2            20.0310711113      -13.8395352536      -34.9141027775  TIP3      17808           0.0000000000
     75675     18000  TIP3      H1             20.6933997303      -13.8732017384      -34.1903887143  TIP3      17808           0.0000000000
     75676     18000  TIP3      H2             20.4891190792      -14.2283538000      -35.6700821743  TIP3      17808           0.0000000000
     75677     18001  TIP3      OH2            21.3163950738      -13.1227765409      -39.5454344207  TIP3      17809           0.0000000000
     75678     18001  TIP3      H1             21.7819426692      -12.4828031074      -40.1347338434  TIP3      17809           0.0000000000
     75679     18001  TIP3      H2             20.6065595612      -12.4923029887      -39.2559479308  TIP3      17809           0.0000000000
     75680     18002  TIP3      OH2            31.5133596996       -9.5199468273      -29.4426875143  TIP3      17810           0.0000000000
     75681     18002  TIP3      H1             31.8293901539      -10.1703223178      -30.1203189241  TIP3      17810           0.0000000000
     75682     18002  TIP3      H2             30.9299493679      -10.0884050288      -28.9079257891  TIP3      17810           0.0000000000
     75683     18003  TIP3      OH2            28.2532192478      -13.5233124658      -34.6985792797  TIP3      17811           0.0000000000
     75684     18003  TIP3      H1             27.3169565093      -13.5227851221      -34.3978025686  TIP3      17811           0.0000000000
     75685     18003  TIP3      H2             28.7534903221      -13.6979041171      -33.8832300609  TIP3      17811           0.0000000000
     75686     18004  TIP3      OH2            23.0728601174      -11.9755426227      -35.8441772334  TIP3      17812           0.0000000000
     75687     18004  TIP3      H1             22.1815903311      -11.8149555771      -36.2192890110  TIP3      17812           0.0000000000
     75688     18004  TIP3      H2             23.3630544727      -12.8181782741      -36.2219214034  TIP3      17812           0.0000000000
     75689     18005  TIP3      OH2            26.6938755097      -11.9504680437      -38.2276390227  TIP3      17813           0.0000000000
     75690     18005  TIP3      H1             27.6474882828      -11.8339453775      -38.0424339249  TIP3      17813           0.0000000000
     75691     18005  TIP3      H2             26.4819814644      -11.2370103784      -38.8583347939  TIP3      17813           0.0000000000
     75692     18006  TIP3      OH2            32.5970151622      -14.3244742010      -31.4478438384  TIP3      17814           0.0000000000
     75693     18006  TIP3      H1             31.9262796523      -14.2504883158      -30.7447650929  TIP3      17814           0.0000000000
     75694     18006  TIP3      H2             32.1012369407      -14.5356016228      -32.2536727306  TIP3      17814           0.0000000000
     75695     18007  TIP3      OH2            25.4092115328      -10.7934489186      -40.6163440914  TIP3      17815           0.0000000000
     75696     18007  TIP3      H1             24.8839685751      -11.1277911311      -41.3601576683  TIP3      17815           0.0000000000
     75697     18007  TIP3      H2             26.2291877308      -10.5521676934      -41.0806333080  TIP3      17815           0.0000000000
     75698     18008  TIP3      OH2            35.7677313131        1.4069576857      -25.1036534939  TIP3      17816           0.0000000000
     75699     18008  TIP3      H1             36.1105512711        1.7251930992      -25.9527285944  TIP3      17816           0.0000000000
     75700     18008  TIP3      H2             36.5221406520        1.6515912896      -24.5414603377  TIP3      17816           0.0000000000
     75701     18009  TIP3      OH2            23.5473141558       -6.1617213734      -25.5978034966  TIP3      17817           0.0000000000
     75702     18009  TIP3      H1             24.2561999471       -5.9551895597      -24.9768858727  TIP3      17817           0.0000000000
     75703     18009  TIP3      H2             22.7620197753       -6.1094396679      -25.0083187887  TIP3      17817           0.0000000000
     75704     18010  TIP3      OH2            29.5416507848      -10.7726144641      -32.8072794774  TIP3      17818           0.0000000000
     75705     18010  TIP3      H1             30.1499836926      -11.3032979339      -33.3363450410  TIP3      17818           0.0000000000
     75706     18010  TIP3      H2             29.3972189612      -11.3224562186      -32.0262782122  TIP3      17818           0.0000000000
     75707     18011  TIP3      OH2            24.4950427811      -14.6291569667      -36.4764712611  TIP3      17819           0.0000000000
     75708     18011  TIP3      H1             24.2778335724      -15.5696314061      -36.3300893230  TIP3      17819           0.0000000000
     75709     18011  TIP3      H2             25.3668140420      -14.7023406074      -36.8940968334  TIP3      17819           0.0000000000
     75710     18012  TIP3      OH2            28.1745418015      -12.4507626133      -30.4020395157  TIP3      17820           0.0000000000
     75711     18012  TIP3      H1             27.3541149885      -11.9266238575      -30.3103987523  TIP3      17820           0.0000000000
     75712     18012  TIP3      H2             28.7319825043      -12.1017671924      -29.6841675105  TIP3      17820           0.0000000000
     75713     18013  TIP3      OH2            28.7697816140       -6.2198894489      -38.6989436227  TIP3      17821           0.0000000000
     75714     18013  TIP3      H1             27.9704946037       -6.6872547937      -39.0333169598  TIP3      17821           0.0000000000
     75715     18013  TIP3      H2             28.5452740548       -6.0979673007      -37.7538201878  TIP3      17821           0.0000000000
     75716     18014  TIP3      OH2            35.6329781659       -7.0046329137      -29.8858545780  TIP3      17822           0.0000000000
     75717     18014  TIP3      H1             36.3650974964       -6.8769189053      -30.5305751776  TIP3      17822           0.0000000000
     75718     18014  TIP3      H2             34.8912665022       -6.9912793518      -30.5204627176  TIP3      17822           0.0000000000
     75719     18015  TIP3      OH2            32.6312154402      -13.3961356603      -40.5302729349  TIP3      17823           0.0000000000
     75720     18015  TIP3      H1             31.6724599116      -13.2761872384      -40.6707604221  TIP3      17823           0.0000000000
     75721     18015  TIP3      H2             32.9123317126      -12.5347917828      -40.1590864558  TIP3      17823           0.0000000000
     75722     18016  TIP3      OH2            30.3287089343       -5.9815603515      -27.4410846765  TIP3      17824           0.0000000000
     75723     18016  TIP3      H1             29.8490141818       -6.3517630579      -26.6910364180  TIP3      17824           0.0000000000
     75724     18016  TIP3      H2             30.0391104180       -5.0550962003      -27.3920988880  TIP3      17824           0.0000000000
     75725     18017  TIP3      OH2            33.3321585437      -11.4700431700      -38.9297844750  TIP3      17825           0.0000000000
     75726     18017  TIP3      H1             34.2004106611      -11.6114723048      -38.4954754086  TIP3      17825           0.0000000000
     75727     18017  TIP3      H2             33.4355322857      -10.6307713754      -39.4076048298  TIP3      17825           0.0000000000
     75728     18018  TIP3      OH2            23.8839046394       -6.8233508214      -32.8976591516  TIP3      17826           0.0000000000
     75729     18018  TIP3      H1             24.5595468263       -6.9093262741      -33.5990828428  TIP3      17826           0.0000000000
     75730     18018  TIP3      H2             23.9389643017       -7.6829486578      -32.4425585082  TIP3      17826           0.0000000000
     75731     18019  TIP3      OH2            30.8481527822       -4.7619008055      -39.6742188288  TIP3      17827           0.0000000000
     75732     18019  TIP3      H1             30.5268665802       -3.9116031747      -39.3155751804  TIP3      17827           0.0000000000
     75733     18019  TIP3      H2             30.1209367025       -5.3751131425      -39.4392622980  TIP3      17827           0.0000000000
     75734     18020  TIP3      OH2            20.8678754106       -8.4241678812      -27.6386066538  TIP3      17828           0.0000000000
     75735     18020  TIP3      H1             21.0223281788       -8.8652464563      -26.7758330655  TIP3      17828           0.0000000000
     75736     18020  TIP3      H2             20.2410331499       -9.0397061496      -28.0590537634  TIP3      17828           0.0000000000
     75737     18021  TIP3      OH2            27.8984062917       -8.7758912824      -25.5349469527  TIP3      17829           0.0000000000
     75738     18021  TIP3      H1             27.5446733400       -9.2021262628      -26.3297154219  TIP3      17829           0.0000000000
     75739     18021  TIP3      H2             28.7511237307       -9.2133094405      -25.3928754001  TIP3      17829           0.0000000000
     75740     18022  TIP3      OH2            32.5467699594       -3.5940257292      -27.4784984814  TIP3      17830           0.0000000000
     75741     18022  TIP3      H1             31.6522692340       -3.3383960136      -27.7508498352  TIP3      17830           0.0000000000
     75742     18022  TIP3      H2             32.5395831288       -3.2147855069      -26.5731879168  TIP3      17830           0.0000000000
     75743     18023  TIP3      OH2            33.6539653268       -7.7533404547      -31.5691347933  TIP3      17831           0.0000000000
     75744     18023  TIP3      H1             32.7271277253       -7.9458195333      -31.7899405285  TIP3      17831           0.0000000000
     75745     18023  TIP3      H2             34.1547942824       -8.4450527293      -32.0422685310  TIP3      17831           0.0000000000
     75746     18024  TIP3      OH2            26.2694262150       -3.3594300722      -35.5100494962  TIP3      17832           0.0000000000
     75747     18024  TIP3      H1             26.7447162584       -2.5516037091      -35.7304684762  TIP3      17832           0.0000000000
     75748     18024  TIP3      H2             25.3835877919       -3.1468148867      -35.8384823787  TIP3      17832           0.0000000000
     75749     18025  TIP3      OH2            22.0202713386       -8.5336153692      -40.9449490892  TIP3      17833           0.0000000000
     75750     18025  TIP3      H1             22.5990006139       -7.8694261256      -40.5321377863  TIP3      17833           0.0000000000
     75751     18025  TIP3      H2             21.1300224957       -8.2215183440      -40.6943913631  TIP3      17833           0.0000000000
     75752     18026  TIP3      OH2            27.6628879899       -5.7118208331      -36.0059201468  TIP3      17834           0.0000000000
     75753     18026  TIP3      H1             27.3387334602       -4.7992044246      -35.9064518914  TIP3      17834           0.0000000000
     75754     18026  TIP3      H2             26.9528031705       -6.2076434982      -35.5522819092  TIP3      17834           0.0000000000
     75755     18027  TIP3      OH2            28.1169364029       -1.5254259193      -29.5784460457  TIP3      17835           0.0000000000
     75756     18027  TIP3      H1             28.5711227632       -0.7152064431      -29.8529477387  TIP3      17835           0.0000000000
     75757     18027  TIP3      H2             28.7402610293       -1.8759555542      -28.9189624956  TIP3      17835           0.0000000000
     75758     18028  TIP3      OH2            26.3607983940       -0.7106901616      -36.4577296677  TIP3      17836           0.0000000000
     75759     18028  TIP3      H1             25.3857148140       -0.6045805691      -36.3394278714  TIP3      17836           0.0000000000
     75760     18028  TIP3      H2             26.6729493642        0.1480467337      -36.1215065912  TIP3      17836           0.0000000000
     75761     18029  TIP3      OH2            31.6687227452       -5.5259741197      -29.9704265119  TIP3      17837           0.0000000000
     75762     18029  TIP3      H1             31.3100719512       -5.7053301775      -29.0794078965  TIP3      17837           0.0000000000
     75763     18029  TIP3      H2             32.2914873812       -6.2456901866      -30.1497492858  TIP3      17837           0.0000000000
     75764     18030  TIP3      OH2            33.9586593003       -4.4718380421      -40.8858694033  TIP3      17838           0.0000000000
     75765     18030  TIP3      H1             34.2818933739       -4.9032677359      -40.0700277555  TIP3      17838           0.0000000000
     75766     18030  TIP3      H2             33.0086780595       -4.6428554978      -40.7951906172  TIP3      17838           0.0000000000
     75767     18031  TIP3      OH2            34.4531164650       -0.9636963084      -27.4871328534  TIP3      17839           0.0000000000
     75768     18031  TIP3      H1             33.7421956293       -1.4327050068      -27.9712930219  TIP3      17839           0.0000000000
     75769     18031  TIP3      H2             34.6704510029       -0.2502195754      -28.1273672838  TIP3      17839           0.0000000000
     75770     18032  TIP3      OH2            22.5245820000      -13.6859568075      -28.0992594963  TIP3      17840           0.0000000000
     75771     18032  TIP3      H1             21.6143844898      -13.3363955788      -28.1185123723  TIP3      17840           0.0000000000
     75772     18032  TIP3      H2             22.4119162322      -14.5315435583      -27.6336843707  TIP3      17840           0.0000000000
     75773     18033  TIP3      OH2            34.7578956625       -5.8627766470      -38.6581433769  TIP3      17841           0.0000000000
     75774     18033  TIP3      H1             34.5340198527       -6.6319891826      -38.0874096415  TIP3      17841           0.0000000000
     75775     18033  TIP3      H2             35.6961175264       -5.7425816229      -38.4317218811  TIP3      17841           0.0000000000
     75776     18034  TIP3      OH2            22.1364224477       -1.9114784131      -29.6583129443  TIP3      17842           0.0000000000
     75777     18034  TIP3      H1             22.4399227765       -2.8305578048      -29.6520918166  TIP3      17842           0.0000000000
     75778     18034  TIP3      H2             22.3931589208       -1.6153025199      -28.7782411920  TIP3      17842           0.0000000000
     75779     18035  TIP3      OH2            28.1091580173       -3.3769607395      -42.3808976924  TIP3      17843           0.0000000000
     75780     18035  TIP3      H1             28.2074219927       -4.1404643214      -42.9734500809  TIP3      17843           0.0000000000
     75781     18035  TIP3      H2             27.6658748843       -3.8093541473      -41.6185046615  TIP3      17843           0.0000000000
     75782     18036  TIP3      OH2            26.8771261506       -3.8494218113      -39.9283525968  TIP3      17844           0.0000000000
     75783     18036  TIP3      H1             27.1503484134       -4.3661897581      -39.1601908495  TIP3      17844           0.0000000000
     75784     18036  TIP3      H2             26.9704154800       -2.9243751273      -39.6043018394  TIP3      17844           0.0000000000
     75785     18037  TIP3      OH2            23.4236935837       -6.6047528723      -39.4426639394  TIP3      17845           0.0000000000
     75786     18037  TIP3      H1             22.7075259185       -6.2076153538      -38.9061801238  TIP3      17845           0.0000000000
     75787     18037  TIP3      H2             23.9279426240       -5.8249318145      -39.7380200747  TIP3      17845           0.0000000000
     75788     18038  TIP3      OH2            31.2203880482      -13.9243368460      -29.1129959148  TIP3      17846           0.0000000000
     75789     18038  TIP3      H1             31.9755846191      -13.8784126155      -28.5166955909  TIP3      17846           0.0000000000
     75790     18038  TIP3      H2             30.8526479771      -14.8064224514      -28.9126580089  TIP3      17846           0.0000000000
     75791     18039  TIP3      OH2            32.0559723442      -14.3656045958      -38.0359863365  TIP3      17847           0.0000000000
     75792     18039  TIP3      H1             32.2333229892      -13.8807748592      -38.8634174948  TIP3      17847           0.0000000000
     75793     18039  TIP3      H2             32.6050745417      -13.8941667348      -37.3963879772  TIP3      17847           0.0000000000
     75794     18040  TIP3      OH2            29.7093062971       -2.1597213499      -39.1914528056  TIP3      17848           0.0000000000
     75795     18040  TIP3      H1             28.8565638237       -1.6744132163      -39.1969093102  TIP3      17848           0.0000000000
     75796     18040  TIP3      H2             30.2187688572       -1.6592992528      -39.8477344217  TIP3      17848           0.0000000000
     75797     18041  TIP3      OH2            29.2275174572      -12.5936807348      -37.2194800899  TIP3      17849           0.0000000000
     75798     18041  TIP3      H1             30.0099513216      -12.0094338658      -37.1718018601  TIP3      17849           0.0000000000
     75799     18041  TIP3      H2             28.9621410971      -12.7143849481      -36.2885087028  TIP3      17849           0.0000000000
     75800     18042  TIP3      OH2            29.8588327410      -11.5160613387      -28.0762641488  TIP3      17850           0.0000000000
     75801     18042  TIP3      H1             29.8726151546      -11.0349378814      -27.2273369294  TIP3      17850           0.0000000000
     75802     18042  TIP3      H2             30.4180351009      -12.2986482271      -27.9412342982  TIP3      17850           0.0000000000
     75803     18043  TIP3      OH2            30.0357453998      -15.5309355027      -36.3565981491  TIP3      17851           0.0000000000
     75804     18043  TIP3      H1             29.7590458781      -14.8859228936      -35.6872827673  TIP3      17851           0.0000000000
     75805     18043  TIP3      H2             30.7523522386      -15.0003178964      -36.7843249842  TIP3      17851           0.0000000000
     75806     18044  TIP3      OH2            27.1207325951       -1.1519985011      -39.1898890594  TIP3      17852           0.0000000000
     75807     18044  TIP3      H1             27.1685889658       -0.3473093149      -39.7665320465  TIP3      17852           0.0000000000
     75808     18044  TIP3      H2             26.7903828934       -0.7830293365      -38.3438709208  TIP3      17852           0.0000000000
     75809     18045  TIP3      OH2            25.6835642024      -14.4347461785      -39.5949491759  TIP3      17853           0.0000000000
     75810     18045  TIP3      H1             25.7105571446      -13.5204442121      -39.2401831348  TIP3      17853           0.0000000000
     75811     18045  TIP3      H2             26.6109219130      -14.6860148073      -39.3804653320  TIP3      17853           0.0000000000
     75812     18046  TIP3      OH2            35.8959653149      -13.8386641625      -27.2961306620  TIP3      17854           0.0000000000
     75813     18046  TIP3      H1             34.9951061634      -13.4310665566      -27.3544630162  TIP3      17854           0.0000000000
     75814     18046  TIP3      H2             36.2315470104      -13.6575245027      -28.1771692523  TIP3      17854           0.0000000000
     75815     18047  TIP3      OH2            34.5653598461       -9.9105280098      -33.1310528165  TIP3      17855           0.0000000000
     75816     18047  TIP3      H1             33.7466254766      -10.3475717916      -33.4427429423  TIP3      17855           0.0000000000
     75817     18047  TIP3      H2             34.9944489291      -10.6249690532      -32.6514069482  TIP3      17855           0.0000000000
     75818     18048  TIP3      OH2            23.9665116043       -3.9902509696      -40.5844777590  TIP3      17856           0.0000000000
     75819     18048  TIP3      H1             24.6407680735       -3.3718046871      -40.2663333953  TIP3      17856           0.0000000000
     75820     18048  TIP3      H2             24.4835207988       -4.4563818994      -41.2716456496  TIP3      17856           0.0000000000
     75821     18049  TIP3      OH2            22.2845514432      -11.3451615134      -41.4144035107  TIP3      17857           0.0000000000
     75822     18049  TIP3      H1             22.3404279221      -10.3774064359      -41.2428018894  TIP3      17857           0.0000000000
     75823     18049  TIP3      H2             21.4034968393      -11.4682867880      -41.7737235341  TIP3      17857           0.0000000000
     75824     18050  TIP3      OH2            35.6986615142       -0.6261547478      -31.5175337262  TIP3      17858           0.0000000000
     75825     18050  TIP3      H1             35.5428598253        0.0432673584      -32.2091415181  TIP3      17858           0.0000000000
     75826     18050  TIP3      H2             36.6430974280       -0.5382074856      -31.3544820886  TIP3      17858           0.0000000000
     75827     18051  TIP3      OH2            23.1270182675      -16.5342780093      -32.6890398489  TIP3      17859           0.0000000000
     75828     18051  TIP3      H1             22.9362587290      -16.5197888649      -33.6484867135  TIP3      17859           0.0000000000
     75829     18051  TIP3      H2             22.7125785997      -17.3871596851      -32.4398093038  TIP3      17859           0.0000000000
     75830     18052  TIP3      OH2            22.0808302498       -2.6109542381      -36.5504418578  TIP3      17860           0.0000000000
     75831     18052  TIP3      H1             21.2251510054       -2.1656186495      -36.5941702930  TIP3      17860           0.0000000000
     75832     18052  TIP3      H2             22.5564141065       -2.1448522073      -37.2512352044  TIP3      17860           0.0000000000
     75833     18053  TIP3      OH2            21.3856923712       -0.0055398889      -25.3247654690  TIP3      17861           0.0000000000
     75834     18053  TIP3      H1             21.8879480766       -0.1966469536      -24.5178467681  TIP3      17861           0.0000000000
     75835     18053  TIP3      H2             20.8132332142       -0.7865520200      -25.4238312150  TIP3      17861           0.0000000000
     75836     18054  TIP3      OH2            25.9360050592       -1.0577332916      -23.6464846785  TIP3      17862           0.0000000000
     75837     18054  TIP3      H1             26.7395848785       -1.5144766662      -23.3374156897  TIP3      17862           0.0000000000
     75838     18054  TIP3      H2             25.9255675268       -1.3354309681      -24.5880087746  TIP3      17862           0.0000000000
     75839     18055  TIP3      OH2            30.1133419643       -1.5291186871      -42.2497485575  TIP3      17863           0.0000000000
     75840     18055  TIP3      H1             29.4123305256       -2.1845624194      -42.0338589895  TIP3      17863           0.0000000000
     75841     18055  TIP3      H2             30.8279543461       -2.1294817522      -42.5014492216  TIP3      17863           0.0000000000
     75842     18056  TIP3      OH2            32.5543105948       -2.6668408513      -24.9657550398  TIP3      17864           0.0000000000
     75843     18056  TIP3      H1             32.1423562466       -3.4864371931      -24.6143478083  TIP3      17864           0.0000000000
     75844     18056  TIP3      H2             33.2889530494       -2.5405517672      -24.3449415780  TIP3      17864           0.0000000000
     75845     18057  TIP3      OH2            34.6336142242       -1.7629442125      -42.0191217044  TIP3      17865           0.0000000000
     75846     18057  TIP3      H1             34.9410451159       -2.5658694506      -41.5704190793  TIP3      17865           0.0000000000
     75847     18057  TIP3      H2             35.3799715537       -1.5841075792      -42.6220163438  TIP3      17865           0.0000000000
     75848     18058  TIP3      OH2            21.2413868455       -6.1298632904      -24.2937203459  TIP3      17866           0.0000000000
     75849     18058  TIP3      H1             21.3630800678       -7.0755692571      -24.5365767724  TIP3      17866           0.0000000000
     75850     18058  TIP3      H2             20.4525137091       -5.9315238707      -24.8315803260  TIP3      17866           0.0000000000
     75851     18059  TIP3      OH2            25.5415170215       -5.8443865586      -42.2591606050  TIP3      17867           0.0000000000
     75852     18059  TIP3      H1             25.6846739014       -6.6023948377      -41.6727157208  TIP3      17867           0.0000000000
     75853     18059  TIP3      H2             26.2940790539       -5.9592856514      -42.8715135428  TIP3      17867           0.0000000000
     75854     18060  TIP3      OH2            28.0648506343       -6.1691213353      -24.9638010881  TIP3      17868           0.0000000000
     75855     18060  TIP3      H1             27.5360367192       -5.8964366358      -25.7361978882  TIP3      17868           0.0000000000
     75856     18060  TIP3      H2             27.9430046832       -7.1536595194      -24.9363815789  TIP3      17868           0.0000000000
     75857     18061  TIP3      OH2            30.9695578459       -4.7332238167      -42.4774987866  TIP3      17869           0.0000000000
     75858     18061  TIP3      H1             30.7001178548       -4.6533276210      -41.5484143806  TIP3      17869           0.0000000000
     75859     18061  TIP3      H2             30.7796376293       -5.6915456243      -42.6207617685  TIP3      17869           0.0000000000
     75860     18062  TIP3      OH2            33.5239483678       -6.3859890188      -27.4521905414  TIP3      17870           0.0000000000
     75861     18062  TIP3      H1             34.3422819261       -5.8181597118      -27.5592758806  TIP3      17870           0.0000000000
     75862     18062  TIP3      H2             32.9110457701       -5.6307750416      -27.4632106791  TIP3      17870           0.0000000000
     75863     18063  TIP3      OH2            22.1004296132       -8.9670549595      -24.9125307835  TIP3      17871           0.0000000000
     75864     18063  TIP3      H1             22.5020268161       -9.8373246436      -24.9901612257  TIP3      17871           0.0000000000
     75865     18063  TIP3      H2             21.8808001475       -8.9558287702      -23.9552488242  TIP3      17871           0.0000000000
     75866     18064  TIP3      OH2            26.7606231353       -7.8291863543      -39.8165880287  TIP3      17872           0.0000000000
     75867     18064  TIP3      H1             26.2459719064       -8.3649952354      -39.1957956438  TIP3      17872           0.0000000000
     75868     18064  TIP3      H2             27.0506375284       -8.4987875954      -40.4785261938  TIP3      17872           0.0000000000
     75869     18065  TIP3      OH2            26.0111734163      -10.0194045909      -27.5491733532  TIP3      17873           0.0000000000
     75870     18065  TIP3      H1             25.4357316365       -9.2897012688      -27.2722509238  TIP3      17873           0.0000000000
     75871     18065  TIP3      H2             26.4104750635       -9.6410847226      -28.3502003983  TIP3      17873           0.0000000000
     75872     18066  TIP3      OH2            27.8185275812       -9.6004139492      -41.6263300587  TIP3      17874           0.0000000000
     75873     18066  TIP3      H1             27.6731846278       -9.6922980872      -42.5902219548  TIP3      17874           0.0000000000
     75874     18066  TIP3      H2             28.7963930294       -9.5495430068      -41.5593934813  TIP3      17874           0.0000000000
     75875     18067  TIP3      OH2            26.4083990471      -12.6464747641      -26.4595958958  TIP3      17875           0.0000000000
     75876     18067  TIP3      H1             26.5222094427      -13.3509679984      -27.1258659087  TIP3      17875           0.0000000000
     75877     18067  TIP3      H2             26.3735149442      -11.8359013995      -27.0110213402  TIP3      17875           0.0000000000
     75878     18068  TIP3      OH2            26.8266834021      -14.2547388538      -28.9260046967  TIP3      17876           0.0000000000
     75879     18068  TIP3      H1             27.3349445613      -13.7934916715      -29.6353489645  TIP3      17876           0.0000000000
     75880     18068  TIP3      H2             25.9333661849      -14.3351329358      -29.3321366235  TIP3      17876           0.0000000000
     75881     18069  TIP3      OH2            28.4118342546       -8.7397781704      -28.6543882911  TIP3      17877           0.0000000000
     75882     18069  TIP3      H1             29.0977577899       -8.9380809077      -29.2952628639  TIP3      17877           0.0000000000
     75883     18069  TIP3      H2             27.9796076903       -7.9473496335      -29.0258325401  TIP3      17877           0.0000000000
     75884     18070  TIP3      OH2            32.8156450435      -11.0066133035      -23.7554202188  TIP3      17878           0.0000000000
     75885     18070  TIP3      H1             33.0193209419      -11.9521795256      -23.7873352374  TIP3      17878           0.0000000000
     75886     18070  TIP3      H2             33.6787021777      -10.5742880267      -23.7323156965  TIP3      17878           0.0000000000
     75887     18071  TIP3      OH2            34.2015232389       -8.1662284835      -25.6148036522  TIP3      17879           0.0000000000
     75888     18071  TIP3      H1             33.9788039656       -7.3657368209      -26.1400324484  TIP3      17879           0.0000000000
     75889     18071  TIP3      H2             35.1563513571       -8.2540403742      -25.7464790837  TIP3      17879           0.0000000000
     75890     18072  TIP3      OH2            24.8283494714      -11.3742625454      -24.5590188911  TIP3      17880           0.0000000000
     75891     18072  TIP3      H1             24.1009241310      -11.9891754036      -24.7281652751  TIP3      17880           0.0000000000
     75892     18072  TIP3      H2             25.5330557602      -11.7124538000      -25.1337806985  TIP3      17880           0.0000000000
     75893     18073  TIP3      OH2            27.6189734459      -16.8167226157      -28.5532784855  TIP3      17881           0.0000000000
     75894     18073  TIP3      H1             27.4317518211      -15.8553976964      -28.6359077089  TIP3      17881           0.0000000000
     75895     18073  TIP3      H2             26.8650911452      -17.1861777139      -29.0432504208  TIP3      17881           0.0000000000
     75896     18074  TIP3      OH2            28.9261627177      -12.5161621327      -24.9184828880  TIP3      17882           0.0000000000
     75897     18074  TIP3      H1             28.5632957931      -12.6748606566      -24.0261560387  TIP3      17882           0.0000000000
     75898     18074  TIP3      H2             28.1074967276      -12.6519822200      -25.4353918921  TIP3      17882           0.0000000000
     75899     18075  TIP3      OH2            31.5834040136      -13.3257087678      -25.8204983820  TIP3      17883           0.0000000000
     75900     18075  TIP3      H1             30.6163890836      -13.3107412291      -25.7061451629  TIP3      17883           0.0000000000
     75901     18075  TIP3      H2             31.8856557030      -13.9969659458      -25.1744958760  TIP3      17883           0.0000000000
     75902     18076  TIP3      OH2            33.1647263484      -14.6814607401      -23.9477340623  TIP3      17884           0.0000000000
     75903     18076  TIP3      H1             33.1418987018      -15.6655653961      -23.9406602979  TIP3      17884           0.0000000000
     75904     18076  TIP3      H2             32.9711038418      -14.4654255036      -23.0130404172  TIP3      17884           0.0000000000
     75905     18077  TIP3      OH2            22.9989073272      -13.4497226629      -24.8186213597  TIP3      17885           0.0000000000
     75906     18077  TIP3      H1             23.2036439277      -14.1939399920      -25.4164353751  TIP3      17885           0.0000000000
     75907     18077  TIP3      H2             22.8544555733      -13.9102231954      -23.9668253723  TIP3      17885           0.0000000000
     75908     18078  TIP3      OH2            27.8310603768      -17.3999703042      -25.8692883541  TIP3      17886           0.0000000000
     75909     18078  TIP3      H1             28.4935883514      -18.1256713836      -25.8623829368  TIP3      17886           0.0000000000
     75910     18078  TIP3      H2             27.7104631865      -17.2824067221      -26.8272739971  TIP3      17886           0.0000000000
     75911     18079  TIP3      OH2            28.1980062145      -15.8104551818      -23.7471726840  TIP3      17887           0.0000000000
     75912     18079  TIP3      H1             28.0237220516      -16.3390085720      -24.5619933701  TIP3      17887           0.0000000000
     75913     18079  TIP3      H2             27.6062732532      -15.0411508972      -23.8377681104  TIP3      17887           0.0000000000
     75914     18080  TIP3      OH2            27.6730230881        1.1111705837      -40.5236091944  TIP3      17888           0.0000000000
     75915     18080  TIP3      H1             28.6378507576        1.1899277172      -40.4959726870  TIP3      17888           0.0000000000
     75916     18080  TIP3      H2             27.5034340514        1.6922804336      -41.2748427080  TIP3      17888           0.0000000000
     75917     18081  TIP3      OH2            21.2082091400       -4.3286035889      -41.0789217401  TIP3      17889           0.0000000000
     75918     18081  TIP3      H1             22.1753183151       -4.2344541452      -40.8992650791  TIP3      17889           0.0000000000
     75919     18081  TIP3      H2             21.2595222307       -4.9713983883      -41.8260526444  TIP3      17889           0.0000000000
     75920     18082  TIP3      OH2            19.9935528107        1.0567663123      -36.1155759214  TIP3      17890           0.0000000000
     75921     18082  TIP3      H1             19.2722481278        0.5713242111      -36.5727039293  TIP3      17890           0.0000000000
     75922     18082  TIP3      H2             20.2730899924        0.4043048877      -35.4481630356  TIP3      17890           0.0000000000
     75923     18083  TIP3      OH2            20.8143623938       -0.8071716684      -34.2357332665  TIP3      17891           0.0000000000
     75924     18083  TIP3      H1             20.4594843908       -1.6828817617      -34.0288764349  TIP3      17891           0.0000000000
     75925     18083  TIP3      H2             21.0387226435       -0.4732472083      -33.3514762790  TIP3      17891           0.0000000000
     75926     18084  TIP3      OH2            36.2834720147       -2.7710672760      -29.0418498013  TIP3      17892           0.0000000000
     75927     18084  TIP3      H1             35.6227990176       -2.3174441539      -28.5000725903  TIP3      17892           0.0000000000
     75928     18084  TIP3      H2             35.7591226006       -3.1156627679      -29.7896435786  TIP3      17892           0.0000000000
     75929     18085  TIP3      OH2            35.3632840920       -9.7466248856      -35.7122477925  TIP3      17893           0.0000000000
     75930     18085  TIP3      H1             35.6205350262      -10.6723408942      -35.6758646056  TIP3      17893           0.0000000000
     75931     18085  TIP3      H2             35.4747225566       -9.4963507960      -34.7726619897  TIP3      17893           0.0000000000
     75932     18086  TIP3      OH2            20.8752395646       -7.7276132757      -31.7424063727  TIP3      17894           0.0000000000
     75933     18086  TIP3      H1             21.0515439887       -7.8088053923      -32.7052019556  TIP3      17894           0.0000000000
     75934     18086  TIP3      H2             21.7686244051       -7.9062177330      -31.3897012238  TIP3      17894           0.0000000000
     75935     18087  TIP3      OH2            35.9487958127      -13.8026075587      -42.3378810929  TIP3      17895           0.0000000000
     75936     18087  TIP3      H1             36.5366843328      -14.2196751587      -41.7071221543  TIP3      17895           0.0000000000
     75937     18087  TIP3      H2             35.0871154487      -14.2102527410      -42.1461677913  TIP3      17895           0.0000000000
     75938     18088  TIP3      OH2            35.5022357232      -12.2945059631      -37.5090011463  TIP3      17896           0.0000000000
     75939     18088  TIP3      H1             35.7860448877      -13.1353952921      -37.1059612465  TIP3      17896           0.0000000000
     75940     18088  TIP3      H2             36.3529749069      -11.9461235926      -37.8014841196  TIP3      17896           0.0000000000
     75941     18089  TIP3      OH2           -37.0489376341      -12.5259691683      -31.9012711627  TIP3      17897           0.0000000000
     75942     18089  TIP3      H1            -36.1648524197      -12.1704507385      -32.0454758881  TIP3      17897           0.0000000000
     75943     18089  TIP3      H2            -37.2737691073      -11.8794975190      -31.2127363103  TIP3      17897           0.0000000000
     75944     18090  TIP3      OH2            36.2493026564      -10.8937691457      -28.8364700196  TIP3      17898           0.0000000000
     75945     18090  TIP3      H1             35.3096178095      -10.6533371635      -28.7984542349  TIP3      17898           0.0000000000
     75946     18090  TIP3      H2             36.6268409954      -10.2455020717      -29.4689244829  TIP3      17898           0.0000000000
     75947     18091  TIP3      OH2            20.4849617947      -12.4329811872      -25.6291064243  TIP3      17899           0.0000000000
     75948     18091  TIP3      H1             21.4017381009      -12.6471321436      -25.3772581625  TIP3      17899           0.0000000000
     75949     18091  TIP3      H2             20.0188821291      -13.2306579166      -25.2779596975  TIP3      17899           0.0000000000
     75950     18092  TIP3      OH2            35.3086569266      -15.2499196692      -36.6480149889  TIP3      17900           0.0000000000
     75951     18092  TIP3      H1             36.2404875881      -15.4267319977      -36.4276287255  TIP3      17900           0.0000000000
     75952     18092  TIP3      H2             35.3267597195      -15.6724809732      -37.5329902199  TIP3      17900           0.0000000000
     75953     18093  TIP3      OH2            21.6876200046      -14.1379313860      -32.7358713274  TIP3      17901           0.0000000000
     75954     18093  TIP3      H1             22.1508559638      -14.9638858615      -32.4831313604  TIP3      17901           0.0000000000
     75955     18093  TIP3      H2             22.2437945128      -13.4468820693      -32.3504278061  TIP3      17901           0.0000000000
     75956     18094  TIP3      OH2            19.9710839801      -11.1337351322      -31.7039170866  TIP3      17902           0.0000000000
     75957     18094  TIP3      H1             20.5381591786      -11.3840435422      -32.4620652329  TIP3      17902           0.0000000000
     75958     18094  TIP3      H2             20.4355904413      -10.3304306497      -31.4241978530  TIP3      17902           0.0000000000
     75959     18095  TIP3      OH2            20.3830488089      -14.9119766403      -37.7028127479  TIP3      17903           0.0000000000
     75960     18095  TIP3      H1             19.4189473698      -14.7431596931      -37.7309193934  TIP3      17903           0.0000000000
     75961     18095  TIP3      H2             20.6678437505      -14.2563687965      -38.3387674672  TIP3      17903           0.0000000000
     75962     18096  TIP3      OH2            34.8831819966       -0.1041470782      -35.5819672714  TIP3      17904           0.0000000000
     75963     18096  TIP3      H1             35.5645804152       -0.4340368792      -36.1920452709  TIP3      17904           0.0000000000
     75964     18096  TIP3      H2             35.4223469683        0.4722767639      -35.0110422156  TIP3      17904           0.0000000000
     75965     18097  TIP3      OH2            20.2884462710      -16.2288114775      -29.3417586151  TIP3      17905           0.0000000000
     75966     18097  TIP3      H1             19.6273469698      -16.4180083814      -28.6458979307  TIP3      17905           0.0000000000
     75967     18097  TIP3      H2             19.8264350529      -15.5480617477      -29.8604882826  TIP3      17905           0.0000000000
     75968     18098  TIP3      OH2            22.5168839884       -3.0071388549      -25.1657755827  TIP3      17906           0.0000000000
     75969     18098  TIP3      H1             21.6735380721       -2.8128127373      -25.6155381036  TIP3      17906           0.0000000000
     75970     18098  TIP3      H2             22.2216390390       -3.1178094793      -24.2634947940  TIP3      17906           0.0000000000
     75971     18099  TIP3      OH2            25.4264685205       -2.0172392065      -28.8936690603  TIP3      17907           0.0000000000
     75972     18099  TIP3      H1             25.0945457198       -1.1495734767      -29.1621846857  TIP3      17907           0.0000000000
     75973     18099  TIP3      H2             26.3534972862       -1.9312695462      -29.1981346244  TIP3      17907           0.0000000000
     75974     18100  TIP3      OH2            29.7516653403       -0.5817404258      -25.9587616148  TIP3      17908           0.0000000000
     75975     18100  TIP3      H1             29.9181769360       -0.9666993906      -25.0797640394  TIP3      17908           0.0000000000
     75976     18100  TIP3      H2             30.6529352054       -0.3001369930      -26.2264868145  TIP3      17908           0.0000000000
     75977     18101  TIP3      OH2            32.0545882662        0.6690013274      -26.6703689004  TIP3      17909           0.0000000000
     75978     18101  TIP3      H1             32.7982847609        0.0950130367      -26.9128471528  TIP3      17909           0.0000000000
     75979     18101  TIP3      H2             32.4353532200        1.1156593549      -25.8824747763  TIP3      17909           0.0000000000
     75980     18102  TIP3      OH2            22.8497974722        1.2188977161      -28.8988404565  TIP3      17910           0.0000000000
     75981     18102  TIP3      H1             22.1186140570        1.7156587558      -29.2958900231  TIP3      17910           0.0000000000
     75982     18102  TIP3      H2             22.5387263836        1.0280505763      -28.0016780469  TIP3      17910           0.0000000000
     75983     18103  TIP3      OH2            25.3188295421        0.7939160553      -29.8265441175  TIP3      17911           0.0000000000
     75984     18103  TIP3      H1             24.4277315914        0.9505629102      -29.4335460845  TIP3      17911           0.0000000000
     75985     18103  TIP3      H2             25.2636472591        1.3856551598      -30.5986835892  TIP3      17911           0.0000000000
     75986     18104  TIP3      OH2            30.0122127871        0.7053965720      -30.6715506696  TIP3      17912           0.0000000000
     75987     18104  TIP3      H1             29.5421936223        1.2837247926      -31.2853157193  TIP3      17912           0.0000000000
     75988     18104  TIP3      H2             30.1572570258        1.3213759655      -29.9131660861  TIP3      17912           0.0000000000
     75989     18105  TIP3      OH2            32.3161255835       -0.4927572021      -29.6252121117  TIP3      17913           0.0000000000
     75990     18105  TIP3      H1             31.4537362651       -0.2163681463      -29.9692949199  TIP3      17913           0.0000000000
     75991     18105  TIP3      H2             32.7724258381        0.3666430974      -29.6970063520  TIP3      17913           0.0000000000
     75992     18106  TIP3      OH2            34.7576530065        1.0845275393      -29.4189287650  TIP3      17914           0.0000000000
     75993     18106  TIP3      H1             34.7557093481        2.0357725598      -29.6311520888  TIP3      17914           0.0000000000
     75994     18106  TIP3      H2             35.1043621443        0.7161797802      -30.2531074577  TIP3      17914           0.0000000000
     75995     18107  TIP3      OH2            22.3177171556       -0.1295062788      -31.9581056353  TIP3      17915           0.0000000000
     75996     18107  TIP3      H1             22.2223014239       -0.5901036322      -31.0967650997  TIP3      17915           0.0000000000
     75997     18107  TIP3      H2             23.1284204904       -0.5152432876      -32.3453026613  TIP3      17915           0.0000000000
     75998     18108  TIP3      OH2            24.3843965480       -1.4200589651      -33.3039710280  TIP3      17916           0.0000000000
     75999     18108  TIP3      H1             24.2237284327       -2.3535005829      -33.0769637768  TIP3      17916           0.0000000000
     76000     18108  TIP3      H2             25.2319854979       -1.2715295433      -32.8427219217  TIP3      17916           0.0000000000
     76001     18109  TIP3      OH2            27.0332400475       -0.9280466105      -32.4425143109  TIP3      17917           0.0000000000
     76002     18109  TIP3      H1             27.1231235525       -1.8704057522      -32.6802746402  TIP3      17917           0.0000000000
     76003     18109  TIP3      H2             27.0175501362       -0.9882322459      -31.4698985660  TIP3      17917           0.0000000000
     76004     18110  TIP3      OH2            30.4242167662      -15.2859243213      -33.2851653041  TIP3      17918           0.0000000000
     76005     18110  TIP3      H1             29.7620424245      -15.9366429050      -33.0034947823  TIP3      17918           0.0000000000
     76006     18110  TIP3      H2             30.9900861791      -15.8111606814      -33.8662420717  TIP3      17918           0.0000000000
     76007     18111  TIP3      OH2            35.5900940225      -17.2480143264      -33.2094394355  TIP3      17919           0.0000000000
     76008     18111  TIP3      H1             36.1679259892      -16.6247803668      -33.6587948410  TIP3      17919           0.0000000000
     76009     18111  TIP3      H2             34.6983302660      -16.8904303375      -33.4272526801  TIP3      17919           0.0000000000
     76010     18112  TIP3      OH2            22.8359085349      -16.6511081824      -35.4749937516  TIP3      17920           0.0000000000
     76011     18112  TIP3      H1             22.0069646481      -16.8852078773      -35.9344590874  TIP3      17920           0.0000000000
     76012     18112  TIP3      H2             23.2793242125      -17.5257063994      -35.4792808347  TIP3      17920           0.0000000000
     76013     18113  TIP3      OH2            21.5562706921      -17.0394161900      -39.7081388033  TIP3      17921           0.0000000000
     76014     18113  TIP3      H1             21.9365214970      -16.4968685956      -40.4208004486  TIP3      17921           0.0000000000
     76015     18113  TIP3      H2             20.8619676875      -16.5300976399      -39.2502323642  TIP3      17921           0.0000000000
     76016     18114  TIP3      OH2            27.2823713469      -16.7334608397      -35.6541401437  TIP3      17922           0.0000000000
     76017     18114  TIP3      H1             28.1844833189      -16.3779583257      -35.7290769671  TIP3      17922           0.0000000000
     76018     18114  TIP3      H2             27.2493460442      -16.9575370771      -34.7252968808  TIP3      17922           0.0000000000
     76019     18115  TIP3      OH2            33.0215632844      -16.7604040571      -34.0270509538  TIP3      17923           0.0000000000
     76020     18115  TIP3      H1             32.9631556174      -16.5775816634      -34.9731435757  TIP3      17923           0.0000000000
     76021     18115  TIP3      H2             32.5878430293      -17.6411982781      -33.9167512023  TIP3      17923           0.0000000000
     76022     18116  TIP3      OH2            34.2278408810      -16.7746256072      -38.4632397595  TIP3      17924           0.0000000000
     76023     18116  TIP3      H1             33.5296060409      -16.1068181499      -38.5084786841  TIP3      17924           0.0000000000
     76024     18116  TIP3      H2             33.7629882970      -17.5718939930      -38.1374343334  TIP3      17924           0.0000000000
     76025     18117  TIP3      OH2            21.4960845823       -0.9584202179      -38.6914531260  TIP3      17925           0.0000000000
     76026     18117  TIP3      H1             20.8393928771       -0.9754586458      -39.4104973858  TIP3      17925           0.0000000000
     76027     18117  TIP3      H2             21.4936518390       -0.0038863278      -38.5178869443  TIP3      17925           0.0000000000
     76028     18118  TIP3      OH2            23.4369104560      -14.9964138251      -41.1632030359  TIP3      17926           0.0000000000
     76029     18118  TIP3      H1             23.9420552181      -15.5632782894      -41.7903459744  TIP3      17926           0.0000000000
     76030     18118  TIP3      H2             24.1881596715      -14.6174826724      -40.6595048463  TIP3      17926           0.0000000000
     76031     18119  TIP3      OH2            28.4370609710      -14.7197813101      -38.8071338777  TIP3      17927           0.0000000000
     76032     18119  TIP3      H1             28.6852101444      -15.2969179886      -38.0651137264  TIP3      17927           0.0000000000
     76033     18119  TIP3      H2             28.5062712788      -13.8548638166      -38.3468280820  TIP3      17927           0.0000000000
     76034     18120  TIP3      OH2            30.3708519281        0.3401409540      -40.3391459185  TIP3      17928           0.0000000000
     76035     18120  TIP3      H1             31.2809250577        0.5829649213      -40.5921967422  TIP3      17928           0.0000000000
     76036     18120  TIP3      H2             30.1446466480       -0.1631450134      -41.1540393608  TIP3      17928           0.0000000000
     76037     18121  TIP3      OH2            22.7011544250      -16.1177088742      -25.9944875810  TIP3      17929           0.0000000000
     76038     18121  TIP3      H1             22.2800306742      -16.8918173141      -25.5678515263  TIP3      17929           0.0000000000
     76039     18121  TIP3      H2             23.5983440682      -16.1776286161      -25.5998652801  TIP3      17929           0.0000000000
     76040     18122  TIP3      OH2            24.7198387845      -16.7602848627      -24.3798247492  TIP3      17930           0.0000000000
     76041     18122  TIP3      H1             25.5897406302      -17.1229064995      -24.6187995788  TIP3      17930           0.0000000000
     76042     18122  TIP3      H2             24.3043425060      -17.5344618543      -23.9503338659  TIP3      17930           0.0000000000
     76043     18123  TIP3      OH2            23.2826057466        0.0288680281      -41.7490548275  TIP3      17931           0.0000000000
     76044     18123  TIP3      H1             23.0328881771        0.2861759996      -40.8521330295  TIP3      17931           0.0000000000
     76045     18123  TIP3      H2             24.0687561030       -0.5341378395      -41.5979560779  TIP3      17931           0.0000000000
     76046     18124  TIP3      OH2            33.1553077786      -17.3835841776      -24.2335621926  TIP3      17932           0.0000000000
     76047     18124  TIP3      H1             33.1582329932      -17.9427045394      -23.4337455110  TIP3      17932           0.0000000000
     76048     18124  TIP3      H2             34.0665067212      -17.4598168543      -24.5913033321  TIP3      17932           0.0000000000
     76049     18125  TIP3      OH2            36.1073450563       -1.5169989390      -25.4233996905  TIP3      17933           0.0000000000
     76050     18125  TIP3      H1             35.4451335702       -1.5777078468      -26.1433644296  TIP3      17933           0.0000000000
     76051     18125  TIP3      H2             36.1154055633       -0.5356194330      -25.3434360728  TIP3      17933           0.0000000000
     76052     18126  TIP3      OH2           -24.6857800382       11.3239637182      -35.6015674215  TIP3      17934           0.0000000000
     76053     18126  TIP3      H1            -24.6695235629       12.3063365252      -35.6014851229  TIP3      17934           0.0000000000
     76054     18126  TIP3      H2            -25.4123393895       11.1094260750      -36.2040662516  TIP3      17934           0.0000000000
     76055     18127  TIP3      OH2           -25.8602288897       10.5975472473      -32.0780997984  TIP3      17935           0.0000000000
     76056     18127  TIP3      H1            -25.8036828718        9.9421140604      -31.3649955242  TIP3      17935           0.0000000000
     76057     18127  TIP3      H2            -26.1461440043       10.0735608530      -32.8440710967  TIP3      17935           0.0000000000
     76058     18128  TIP3      OH2           -33.3931164223       10.2630127857      -30.5357006813  TIP3      17936           0.0000000000
     76059     18128  TIP3      H1            -33.3489037033        9.5837806898      -29.8323119226  TIP3      17936           0.0000000000
     76060     18128  TIP3      H2            -32.6910294608       10.8684573952      -30.2733945553  TIP3      17936           0.0000000000
     76061     18129  TIP3      OH2           -22.2554198465       13.6172523120      -33.8239538956  TIP3      17937           0.0000000000
     76062     18129  TIP3      H1            -22.4265640800       12.8079291442      -33.3181630160  TIP3      17937           0.0000000000
     76063     18129  TIP3      H2            -22.0815709437       14.2363640878      -33.0987459543  TIP3      17937           0.0000000000
     76064     18130  TIP3      OH2           -32.5377303932       14.7003187041      -32.0399084992  TIP3      17938           0.0000000000
     76065     18130  TIP3      H1            -32.8489318678       13.8325768336      -32.3586003138  TIP3      17938           0.0000000000
     76066     18130  TIP3      H2            -31.5791342865       14.5370651040      -31.9748501825  TIP3      17938           0.0000000000
     76067     18131  TIP3      OH2           -35.6288405621        8.2755698259      -36.9694272776  TIP3      17939           0.0000000000
     76068     18131  TIP3      H1            -36.0696764675        9.0605976650      -36.5725165907  TIP3      17939           0.0000000000
     76069     18131  TIP3      H2            -36.4025582896        7.7165574503      -36.9564370784  TIP3      17939           0.0000000000
     76070     18132  TIP3      OH2           -35.2361119799       10.4172828825      -34.4621600981  TIP3      17940           0.0000000000
     76071     18132  TIP3      H1            -34.9200652304        9.6760725193      -33.9136880257  TIP3      17940           0.0000000000
     76072     18132  TIP3      H2            -34.4720914726       10.5984428020      -35.0297272690  TIP3      17940           0.0000000000
     76073     18133  TIP3      OH2           -25.0068897075       18.6972282640      -33.5595981529  TIP3      17941           0.0000000000
     76074     18133  TIP3      H1            -24.3612626604       18.0093157276      -33.8508453970  TIP3      17941           0.0000000000
     76075     18133  TIP3      H2            -25.2218787133       18.3589079810      -32.6913578019  TIP3      17941           0.0000000000
     76076     18134  TIP3      OH2           -27.4358746358       12.9896139908      -31.6100049744  TIP3      17942           0.0000000000
     76077     18134  TIP3      H1            -27.0941711238       12.3593002603      -32.2635217560  TIP3      17942           0.0000000000
     76078     18134  TIP3      H2            -26.6304197918       13.1444941547      -31.0854136818  TIP3      17942           0.0000000000
     76079     18135  TIP3      OH2           -18.8389229996        4.6477668061      -30.8890688001  TIP3      17943           0.0000000000
     76080     18135  TIP3      H1            -18.6626373497        5.2368555670      -30.1230170182  TIP3      17943           0.0000000000
     76081     18135  TIP3      H2            -18.2730547348        5.0713210196      -31.5502306533  TIP3      17943           0.0000000000
     76082     18136  TIP3      OH2           -24.3082077327        7.4345061823      -31.2880813094  TIP3      17944           0.0000000000
     76083     18136  TIP3      H1            -24.1021568814        6.4847926020      -31.2964943942  TIP3      17944           0.0000000000
     76084     18136  TIP3      H2            -24.3537996913        7.6085185053      -32.2472460554  TIP3      17944           0.0000000000
     76085     18137  TIP3      OH2           -31.1510884693        5.5480705887      -34.0756078404  TIP3      17945           0.0000000000
     76086     18137  TIP3      H1            -31.0370543146        6.3766361813      -34.5759445232  TIP3      17945           0.0000000000
     76087     18137  TIP3      H2            -31.5344797970        4.9711230292      -34.7705535432  TIP3      17945           0.0000000000
     76088     18138  TIP3      OH2           -23.4131270840        5.6243905368      -35.7104312623  TIP3      17946           0.0000000000
     76089     18138  TIP3      H1            -22.7637868997        5.3153960757      -35.0369105263  TIP3      17946           0.0000000000
     76090     18138  TIP3      H2            -22.8504419405        6.2116962663      -36.2359156156  TIP3      17946           0.0000000000
     76091     18139  TIP3      OH2           -34.5617758879        7.8718555559      -33.4078375993  TIP3      17947           0.0000000000
     76092     18139  TIP3      H1            -33.8351647221        7.4057597131      -32.9432701419  TIP3      17947           0.0000000000
     76093     18139  TIP3      H2            -34.3813489009        7.5956722336      -34.3153869619  TIP3      17947           0.0000000000
     76094     18140  TIP3      OH2           -29.3746784173        9.5129766281      -34.0270267302  TIP3      17948           0.0000000000
     76095     18140  TIP3      H1            -28.7011184081        8.9320206262      -33.6304617872  TIP3      17948           0.0000000000
     76096     18140  TIP3      H2            -29.8861970501        8.8531128947      -34.5341656058  TIP3      17948           0.0000000000
     76097     18141  TIP3      OH2           -18.4025206064        6.0455164147      -28.6311168459  TIP3      17949           0.0000000000
     76098     18141  TIP3      H1            -18.9967957212        6.8281149130      -28.7265561281  TIP3      17949           0.0000000000
     76099     18141  TIP3      H2            -18.3588583486        5.9745037343      -27.6678258257  TIP3      17949           0.0000000000
     76100     18142  TIP3      OH2           -32.1988808615        4.4441403876      -30.0456642698  TIP3      17950           0.0000000000
     76101     18142  TIP3      H1            -32.5116549774        5.0116827775      -30.7818108686  TIP3      17950           0.0000000000
     76102     18142  TIP3      H2            -32.8884411085        4.6688448792      -29.3678045136  TIP3      17950           0.0000000000
     76103     18143  TIP3      OH2           -24.9553375752       13.9182191282      -36.4888541508  TIP3      17951           0.0000000000
     76104     18143  TIP3      H1            -25.2150962213       13.6514687277      -37.3792745491  TIP3      17951           0.0000000000
     76105     18143  TIP3      H2            -25.2588812716       14.8535499157      -36.4392097180  TIP3      17951           0.0000000000
     76106     18144  TIP3      OH2           -29.7355769562       12.0849770525      -29.8165812306  TIP3      17952           0.0000000000
     76107     18144  TIP3      H1            -30.4340243174       12.7332128862      -29.5778543977  TIP3      17952           0.0000000000
     76108     18144  TIP3      H2            -29.0233093886       12.6905565819      -30.0727234970  TIP3      17952           0.0000000000
     76109     18145  TIP3      OH2           -21.5985030161        4.9805968166      -33.7162563751  TIP3      17953           0.0000000000
     76110     18145  TIP3      H1            -21.8176051236        4.2113760820      -33.1815731984  TIP3      17953           0.0000000000
     76111     18145  TIP3      H2            -20.9445147064        5.4333743184      -33.1514856131  TIP3      17953           0.0000000000
     76112     18146  TIP3      OH2           -32.7028948172        6.2773236001      -32.0191536199  TIP3      17954           0.0000000000
     76113     18146  TIP3      H1            -32.0838918189        6.9730214772      -31.6896121936  TIP3      17954           0.0000000000
     76114     18146  TIP3      H2            -32.1517062746        5.8918748148      -32.7477958469  TIP3      17954           0.0000000000
     76115     18147  TIP3      OH2           -31.3526931336       14.0641960380      -29.0087152012  TIP3      17955           0.0000000000
     76116     18147  TIP3      H1            -31.3414952980       15.0128604492      -29.2625575355  TIP3      17955           0.0000000000
     76117     18147  TIP3      H2            -32.1710827289       13.9969576131      -28.4886402615  TIP3      17955           0.0000000000
     76118     18148  TIP3      OH2           -35.3255116512       13.7448327998      -38.2247930889  TIP3      17956           0.0000000000
     76119     18148  TIP3      H1            -35.4077842894       14.0800569217      -39.1349574056  TIP3      17956           0.0000000000
     76120     18148  TIP3      H2            -35.1153746745       14.5480248594      -37.7072867245  TIP3      17956           0.0000000000
     76121     18149  TIP3      OH2           -21.5935110450       15.3933602297      -31.4127917538  TIP3      17957           0.0000000000
     76122     18149  TIP3      H1            -22.5656096323       15.4777719067      -31.3185630589  TIP3      17957           0.0000000000
     76123     18149  TIP3      H2            -21.3301432524       16.3002216468      -31.6400882490  TIP3      17957           0.0000000000
     76124     18150  TIP3      OH2           -21.2767078501        3.6561904686      -30.0511175095  TIP3      17958           0.0000000000
     76125     18150  TIP3      H1            -21.9943055420        4.2926205765      -30.1415267022  TIP3      17958           0.0000000000
     76126     18150  TIP3      H2            -20.5547781457        4.0785467235      -30.5654971817  TIP3      17958           0.0000000000
     76127     18151  TIP3      OH2           -28.3047188544        1.7871667280      -32.5837800604  TIP3      17959           0.0000000000
     76128     18151  TIP3      H1            -28.4387041677        0.8229703600      -32.6543189969  TIP3      17959           0.0000000000
     76129     18151  TIP3      H2            -29.1841225442        2.0858941128      -32.2714900628  TIP3      17959           0.0000000000
     76130     18152  TIP3      OH2           -23.3342333218       17.1635429205      -34.8441677275  TIP3      17960           0.0000000000
     76131     18152  TIP3      H1            -22.9102524791       16.4400427976      -35.3512890395  TIP3      17960           0.0000000000
     76132     18152  TIP3      H2            -22.8996809095       17.9496700615      -35.2371129064  TIP3      17960           0.0000000000
     76133     18153  TIP3      OH2           -22.1294187207       15.0937176273      -36.3278602399  TIP3      17961           0.0000000000
     76134     18153  TIP3      H1            -22.4180084263       14.3800446272      -36.9167421511  TIP3      17961           0.0000000000
     76135     18153  TIP3      H2            -22.0856861796       14.5993702999      -35.4815675976  TIP3      17961           0.0000000000
     76136     18154  TIP3      OH2           -20.4795250710       13.7043188881      -27.8178873490  TIP3      17962           0.0000000000
     76137     18154  TIP3      H1            -20.3800607106       13.0284742618      -28.5385948383  TIP3      17962           0.0000000000
     76138     18154  TIP3      H2            -20.3025363766       14.5298688454      -28.2936791000  TIP3      17962           0.0000000000
     76139     18155  TIP3      OH2           -26.0120483988       10.5629845208      -38.0733645515  TIP3      17963           0.0000000000
     76140     18155  TIP3      H1            -26.7046445820       11.1468641364      -38.4320331336  TIP3      17963           0.0000000000
     76141     18155  TIP3      H2            -25.2999387040       10.6665396157      -38.7309565131  TIP3      17963           0.0000000000
     76142     18156  TIP3      OH2           -25.9287431610        9.1397912975      -41.0597709229  TIP3      17964           0.0000000000
     76143     18156  TIP3      H1            -25.2238928081        9.1214100963      -40.3945570215  TIP3      17964           0.0000000000
     76144     18156  TIP3      H2            -25.6225650541        8.4214730725      -41.6282428331  TIP3      17964           0.0000000000
     76145     18157  TIP3      OH2           -18.6042521564       10.0102057445      -29.7733329488  TIP3      17965           0.0000000000
     76146     18157  TIP3      H1            -19.2878864565       10.7088193025      -29.7670934444  TIP3      17965           0.0000000000
     76147     18157  TIP3      H2            -18.1773258242       10.2327141307      -30.6238446018  TIP3      17965           0.0000000000
     76148     18158  TIP3      OH2           -22.5754725378       10.7537907277      -37.1608022805  TIP3      17966           0.0000000000
     76149     18158  TIP3      H1            -23.2851833258       11.0258501581      -36.5305848466  TIP3      17966           0.0000000000
     76150     18158  TIP3      H2            -22.0739812508       10.1228752462      -36.6095827561  TIP3      17966           0.0000000000
     76151     18159  TIP3      OH2           -22.6474083239        8.9454893758      -28.0205663144  TIP3      17967           0.0000000000
     76152     18159  TIP3      H1            -22.6249687398        9.7630028321      -27.4779394873  TIP3      17967           0.0000000000
     76153     18159  TIP3      H2            -23.2546740508        9.2611745955      -28.7193553275  TIP3      17967           0.0000000000
     76154     18160  TIP3      OH2           -30.9289441952       11.4546807110      -35.2345662287  TIP3      17968           0.0000000000
     76155     18160  TIP3      H1            -31.2807795112       11.0489092219      -36.0628882533  TIP3      17968           0.0000000000
     76156     18160  TIP3      H2            -30.3312229381       10.7497827402      -34.8950356579  TIP3      17968           0.0000000000
     76157     18161  TIP3      OH2           -29.6323844226       14.8221913001      -32.5546731916  TIP3      17969           0.0000000000
     76158     18161  TIP3      H1            -29.6340816776       14.2971153857      -33.3632730882  TIP3      17969           0.0000000000
     76159     18161  TIP3      H2            -28.8498119330       14.4678778620      -32.0935271300  TIP3      17969           0.0000000000
     76160     18162  TIP3      OH2           -30.5976246376       10.1891067778      -31.5715734438  TIP3      17970           0.0000000000
     76161     18162  TIP3      H1            -30.0591997131       10.2917285679      -32.3801883650  TIP3      17970           0.0000000000
     76162     18162  TIP3      H2            -30.2323155501       10.8719819073      -30.9630128444  TIP3      17970           0.0000000000
     76163     18163  TIP3      OH2           -24.2064968137       15.7639961796      -30.8676129424  TIP3      17971           0.0000000000
     76164     18163  TIP3      H1            -24.4947157047       16.3943578386      -30.2033113456  TIP3      17971           0.0000000000
     76165     18163  TIP3      H2            -24.4508982522       14.9076223216      -30.4433177495  TIP3      17971           0.0000000000
     76166     18164  TIP3      OH2           -29.4942985587       14.7618132242      -27.1023435982  TIP3      17972           0.0000000000
     76167     18164  TIP3      H1            -29.9647448346       15.2931009136      -26.4383685558  TIP3      17972           0.0000000000
     76168     18164  TIP3      H2            -30.2589228553       14.4037956820      -27.6054259138  TIP3      17972           0.0000000000
     76169     18165  TIP3      OH2           -23.6840102958        9.9833056761      -39.4856650625  TIP3      17973           0.0000000000
     76170     18165  TIP3      H1            -23.1307518603       10.1573293950      -38.6820681375  TIP3      17973           0.0000000000
     76171     18165  TIP3      H2            -23.2318928462       10.4798127875      -40.2040819315  TIP3      17973           0.0000000000
     76172     18166  TIP3      OH2           -25.9734413680       16.7061933307      -36.0077494018  TIP3      17974           0.0000000000
     76173     18166  TIP3      H1            -25.5406098778       17.0145792565      -35.2037831106  TIP3      17974           0.0000000000
     76174     18166  TIP3      H2            -26.5293253449       17.4554767290      -36.2484870004  TIP3      17974           0.0000000000
     76175     18167  TIP3      OH2           -19.9620561386        1.7152955985      -39.5765255380  TIP3      17975           0.0000000000
     76176     18167  TIP3      H1            -20.9086502949        1.8348805029      -39.3371309361  TIP3      17975           0.0000000000
     76177     18167  TIP3      H2            -19.7578194666        2.5547045847      -40.0217894485  TIP3      17975           0.0000000000
     76178     18168  TIP3      OH2           -31.9681673881       10.4550478846      -37.6001644295  TIP3      17976           0.0000000000
     76179     18168  TIP3      H1            -32.2528215668       11.2356407822      -38.1174285742  TIP3      17976           0.0000000000
     76180     18168  TIP3      H2            -32.6221014104        9.7936539592      -37.8377798491  TIP3      17976           0.0000000000
     76181     18169  TIP3      OH2           -18.8364135190       16.0754761277      -41.2290967043  TIP3      17977           0.0000000000
     76182     18169  TIP3      H1            -18.6694877021       17.0175068111      -41.0454729492  TIP3      17977           0.0000000000
     76183     18169  TIP3      H2            -17.9109262297       15.7679772677      -41.2121433950  TIP3      17977           0.0000000000
     76184     18170  TIP3      OH2           -35.2932038829       12.7787014847      -28.9771284137  TIP3      17978           0.0000000000
     76185     18170  TIP3      H1            -36.0744842454       12.8848954436      -29.5572997469  TIP3      17978           0.0000000000
     76186     18170  TIP3      H2            -35.6300850375       11.9943851554      -28.4875685077  TIP3      17978           0.0000000000
     76187     18171  TIP3      OH2           -35.8246838845       15.8671925479      -32.2148143681  TIP3      17979           0.0000000000
     76188     18171  TIP3      H1            -35.0028140614       15.4574477937      -31.9380818299  TIP3      17979           0.0000000000
     76189     18171  TIP3      H2            -36.1140421987       16.3277494653      -31.4151541867  TIP3      17979           0.0000000000
     76190     18172  TIP3      OH2           -17.8653296738       16.3472382245      -26.2056684092  TIP3      17980           0.0000000000
     76191     18172  TIP3      H1            -18.0140419176       15.3879601698      -26.2717352879  TIP3      17980           0.0000000000
     76192     18172  TIP3      H2            -18.7702876637       16.6002534244      -25.8878350045  TIP3      17980           0.0000000000
     76193     18173  TIP3      OH2           -26.9205788757       15.8691350403      -27.3967260605  TIP3      17981           0.0000000000
     76194     18173  TIP3      H1            -26.8857647362       16.7045274269      -26.8815278780  TIP3      17981           0.0000000000
     76195     18173  TIP3      H2            -27.8079094525       15.5041293354      -27.1696205363  TIP3      17981           0.0000000000
     76196     18174  TIP3      OH2           -26.4702391143       19.6100742964      -37.5992264404  TIP3      17982           0.0000000000
     76197     18174  TIP3      H1            -26.6137215081       19.5445429195      -38.5621663252  TIP3      17982           0.0000000000
     76198     18174  TIP3      H2            -26.5022082430       20.5725779186      -37.4398799744  TIP3      17982           0.0000000000
     76199     18175  TIP3      OH2           -32.8643500119       18.4983221104      -35.7866166937  TIP3      17983           0.0000000000
     76200     18175  TIP3      H1            -32.7166770705       18.0948276004      -34.9020910125  TIP3      17983           0.0000000000
     76201     18175  TIP3      H2            -33.6948859560       18.0622164885      -36.0226682033  TIP3      17983           0.0000000000
     76202     18176  TIP3      OH2           -23.4367355786       18.8340373523      -40.6149625097  TIP3      17984           0.0000000000
     76203     18176  TIP3      H1            -22.9845416291       18.0736381329      -41.0495649900  TIP3      17984           0.0000000000
     76204     18176  TIP3      H2            -23.3970318169       18.5664878137      -39.6725856179  TIP3      17984           0.0000000000
     76205     18177  TIP3      OH2           -23.7430311919       18.7646641683      -37.8414429187  TIP3      17985           0.0000000000
     76206     18177  TIP3      H1            -24.7053666917       18.8438899044      -37.6728403284  TIP3      17985           0.0000000000
     76207     18177  TIP3      H2            -23.5119818055       18.0224606247      -37.2621414712  TIP3      17985           0.0000000000
     76208     18178  TIP3      OH2           -20.7458646930        7.7730946570      -25.8098044017  TIP3      17986           0.0000000000
     76209     18178  TIP3      H1            -21.1921675377        8.2798671032      -26.5028735208  TIP3      17986           0.0000000000
     76210     18178  TIP3      H2            -20.7454769394        6.8651452191      -26.1312603895  TIP3      17986           0.0000000000
     76211     18179  TIP3      OH2           -30.9162697365        2.6934138479      -31.8268596297  TIP3      17987           0.0000000000
     76212     18179  TIP3      H1            -31.8180748674        2.5694905252      -32.1971770986  TIP3      17987           0.0000000000
     76213     18179  TIP3      H2            -31.0570317362        3.5188301723      -31.3348109384  TIP3      17987           0.0000000000
     76214     18180  TIP3      OH2           -26.2807962355        2.3783311704      -28.4442235925  TIP3      17988           0.0000000000
     76215     18180  TIP3      H1            -25.8933264746        1.9427628502      -27.6670407550  TIP3      17988           0.0000000000
     76216     18180  TIP3      H2            -27.2505847668        2.2389899251      -28.3088097384  TIP3      17988           0.0000000000
     76217     18181  TIP3      OH2           -23.0498018642        6.1853702485      -27.6144192398  TIP3      17989           0.0000000000
     76218     18181  TIP3      H1            -23.5525946585        6.0121668322      -26.7907829717  TIP3      17989           0.0000000000
     76219     18181  TIP3      H2            -23.1440979808        7.1418412053      -27.7795181632  TIP3      17989           0.0000000000
     76220     18182  TIP3      OH2           -22.2365380182       11.0177546873      -41.6685956521  TIP3      17990           0.0000000000
     76221     18182  TIP3      H1            -22.2566320447       10.8230606655      -42.6343371604  TIP3      17990           0.0000000000
     76222     18182  TIP3      H2            -21.3761207873       11.4585212754      -41.6152213288  TIP3      17990           0.0000000000
     76223     18183  TIP3      OH2           -26.6407793877        4.9374920439      -41.1569293504  TIP3      17991           0.0000000000
     76224     18183  TIP3      H1            -26.9587751040        4.8755345726      -40.2380736226  TIP3      17991           0.0000000000
     76225     18183  TIP3      H2            -26.9481850318        4.0598164915      -41.4625567372  TIP3      17991           0.0000000000
     76226     18184  TIP3      OH2           -30.8612685388        7.6404453570      -30.6063180133  TIP3      17992           0.0000000000
     76227     18184  TIP3      H1            -31.5593742140        7.6384113356      -29.9281835898  TIP3      17992           0.0000000000
     76228     18184  TIP3      H2            -30.8546276925        8.5697508973      -30.9346113692  TIP3      17992           0.0000000000
     76229     18185  TIP3      OH2           -30.8420737522        7.7798360851      -35.7094654318  TIP3      17993           0.0000000000
     76230     18185  TIP3      H1            -31.7814691219        7.5331347284      -35.8493857294  TIP3      17993           0.0000000000
     76231     18185  TIP3      H2            -30.4683977150        7.4805958980      -36.5600628482  TIP3      17993           0.0000000000
     76232     18186  TIP3      OH2           -25.3384795086        8.2842625068      -36.9227101096  TIP3      17994           0.0000000000
     76233     18186  TIP3      H1            -25.7368960116        9.1025783790      -37.3008904928  TIP3      17994           0.0000000000
     76234     18186  TIP3      H2            -24.6576877004        8.1090566484      -37.5934708167  TIP3      17994           0.0000000000
     76235     18187  TIP3      OH2           -26.2305480804        8.3949657858      -25.5531177411  TIP3      17995           0.0000000000
     76236     18187  TIP3      H1            -26.8328717869        7.7627136687      -25.1559733688  TIP3      17995           0.0000000000
     76237     18187  TIP3      H2            -25.4127491270        8.3966373491      -25.0558422644  TIP3      17995           0.0000000000
     76238     18188  TIP3      OH2           -24.3784853399        7.7383166269      -34.0902223572  TIP3      17996           0.0000000000
     76239     18188  TIP3      H1            -24.5726786843        8.3397730124      -34.8290164927  TIP3      17996           0.0000000000
     76240     18188  TIP3      H2            -24.2114112346        6.9111830080      -34.5757366753  TIP3      17996           0.0000000000
     76241     18189  TIP3      OH2           -33.1854761574        7.9242529159      -28.8526154551  TIP3      17997           0.0000000000
     76242     18189  TIP3      H1            -33.1942610681        8.3010624454      -27.9623813605  TIP3      17997           0.0000000000
     76243     18189  TIP3      H2            -33.6629163797        7.0927082682      -28.7010642154  TIP3      17997           0.0000000000
     76244     18190  TIP3      OH2           -29.8281475447        5.3054206453      -42.0414616871  TIP3      17998           0.0000000000
     76245     18190  TIP3      H1            -30.2769643430        4.8828355593      -41.2818065171  TIP3      17998           0.0000000000
     76246     18190  TIP3      H2            -30.5416191832        5.7337084338      -42.5303232002  TIP3      17998           0.0000000000
     76247     18191  TIP3      OH2           -36.1662930058        5.3388166565      -35.0950713837  TIP3      17999           0.0000000000
     76248     18191  TIP3      H1            -35.8327337696        4.9913928745      -34.2401999230  TIP3      17999           0.0000000000
     76249     18191  TIP3      H2            -36.0313569748        4.5834556503      -35.6659385901  TIP3      17999           0.0000000000
     76250     18192  TIP3      OH2           -35.2891935324        5.8832012588      -39.5848377975  TIP3      18000           0.0000000000
     76251     18192  TIP3      H1            -34.7311230731        6.4396590282      -40.1667217686  TIP3      18000           0.0000000000
     76252     18192  TIP3      H2            -36.0155713359        6.4440165974      -39.3399483489  TIP3      18000           0.0000000000
     76253     18193  TIP3      OH2           -25.1274982615        9.3557068238      -29.5433692074  TIP3      18001           0.0000000000
     76254     18193  TIP3      H1            -24.7287244229        8.6748926739      -30.1193909894  TIP3      18001           0.0000000000
     76255     18193  TIP3      H2            -25.5861529966        8.8225342241      -28.8716627005  TIP3      18001           0.0000000000
     76256     18194  TIP3      OH2           -28.3138391818        5.3307626819      -34.7015272219  TIP3      18002           0.0000000000
     76257     18194  TIP3      H1            -29.2473597425        5.3320077759      -34.4073012107  TIP3      18002           0.0000000000
     76258     18194  TIP3      H2            -27.8320910021        5.1552949999      -33.8783572183  TIP3      18002           0.0000000000
     76259     18195  TIP3      OH2           -33.5029716621        6.8793498506      -35.8436837161  TIP3      18003           0.0000000000
     76260     18195  TIP3      H1            -34.3758403292        7.0536223465      -36.2423267589  TIP3      18003           0.0000000000
     76261     18195  TIP3      H2            -33.2547220704        6.0309297855      -36.2540201420  TIP3      18003           0.0000000000
     76262     18196  TIP3      OH2           -29.8575610606        6.9233931624      -38.2072848413  TIP3      18004           0.0000000000
     76263     18196  TIP3      H1            -28.9010796054        7.0390234698      -38.0505651994  TIP3      18004           0.0000000000
     76264     18196  TIP3      H2            -30.1090982862        7.6097499927      -38.8547736118  TIP3      18004           0.0000000000
     76265     18197  TIP3      OH2           -23.9025274276        4.5602353608      -31.4633734658  TIP3      18005           0.0000000000
     76266     18197  TIP3      H1            -24.5860026354        4.6116781662      -30.7579728291  TIP3      18005           0.0000000000
     76267     18197  TIP3      H2            -24.4124392601        4.3082668055      -32.2459356885  TIP3      18005           0.0000000000
     76268     18198  TIP3      OH2           -31.1361330473        8.0934686555      -40.6311760229  TIP3      18006           0.0000000000
     76269     18198  TIP3      H1            -31.6762494306        7.7315380341      -41.3519676736  TIP3      18006           0.0000000000
     76270     18198  TIP3      H2            -30.3149881288        8.3124103971      -41.0978811771  TIP3      18006           0.0000000000
     76271     18199  TIP3      OH2           -20.6971263116       20.2263732946      -25.1395908770  TIP3      18007           0.0000000000
     76272     18199  TIP3      H1            -20.4072290606       20.6109123486      -25.9821344321  TIP3      18007           0.0000000000
     76273     18199  TIP3      H2            -19.9825413922       20.4888211547      -24.5339605874  TIP3      18007           0.0000000000
     76274     18200  TIP3      OH2           -27.0393205632        8.0789270507      -32.8131462770  TIP3      18008           0.0000000000
     76275     18200  TIP3      H1            -26.4238731361        7.5538952430      -33.3427626067  TIP3      18008           0.0000000000
     76276     18200  TIP3      H2            -27.1698069117        7.5338596946      -32.0266414150  TIP3      18008           0.0000000000
     76277     18201  TIP3      OH2           -32.0252088089        4.2388639906      -36.3800923135  TIP3      18009           0.0000000000
     76278     18201  TIP3      H1            -32.3360137000        3.3173947069      -36.3795076580  TIP3      18009           0.0000000000
     76279     18201  TIP3      H2            -31.2280762095        4.1565123163      -36.9183023357  TIP3      18009           0.0000000000
     76280     18202  TIP3      OH2           -28.3843014516        6.3993228608      -30.4107751197  TIP3      18010           0.0000000000
     76281     18202  TIP3      H1            -29.2067922977        6.9173028792      -30.3285309653  TIP3      18010           0.0000000000
     76282     18202  TIP3      H2            -27.8345877335        6.7584227414      -29.6852132715  TIP3      18010           0.0000000000
     76283     18203  TIP3      OH2           -27.7989720917       12.6362175904      -38.6995080680  TIP3      18011           0.0000000000
     76284     18203  TIP3      H1            -28.5982920476       12.1689992767      -39.0339495996  TIP3      18011           0.0000000000
     76285     18203  TIP3      H2            -28.0241569915       12.7587187196      -37.7544302909  TIP3      18011           0.0000000000
     76286     18204  TIP3      OH2           -20.6538422980       11.9549469968      -29.7997738135  TIP3      18012           0.0000000000
     76287     18204  TIP3      H1            -20.0651949726       12.2389592648      -30.5344317943  TIP3      18012           0.0000000000
     76288     18204  TIP3      H2            -21.4434285995       11.8411273821      -30.3652414931  TIP3      18012           0.0000000000
     76289     18205  TIP3      OH2           -23.9710864104        5.4439156189      -40.5275310839  TIP3      18013           0.0000000000
     76290     18205  TIP3      H1            -24.9216788687        5.6017750587      -40.6590603731  TIP3      18013           0.0000000000
     76291     18205  TIP3      H2            -23.6291023979        6.2959393363      -40.1736464788  TIP3      18013           0.0000000000
     76292     18206  TIP3      OH2           -26.2805045150       12.9119489028      -27.5066699549  TIP3      18014           0.0000000000
     76293     18206  TIP3      H1            -26.6240932637       12.4745216118      -26.7140935763  TIP3      18014           0.0000000000
     76294     18206  TIP3      H2            -26.5590639264       13.8203123504      -27.3591744110  TIP3      18014           0.0000000000
     76295     18207  TIP3      OH2           -23.2297942977        7.3572303275      -38.9314530201  TIP3      18015           0.0000000000
     76296     18207  TIP3      H1            -22.3593878627        7.2386231770      -38.4930493972  TIP3      18015           0.0000000000
     76297     18207  TIP3      H2            -23.1281162929        8.1940219622      -39.4128307768  TIP3      18015           0.0000000000
     76298     18208  TIP3      OH2           -32.6877530748       12.0358688417      -32.8882001161  TIP3      18016           0.0000000000
     76299     18208  TIP3      H1            -32.0178229874       11.9518513940      -33.5852260181  TIP3      18016           0.0000000000
     76300     18208  TIP3      H2            -32.6022633760       11.1818196104      -32.4336461581  TIP3      18016           0.0000000000
     76301     18209  TIP3      OH2           -25.7064722231       14.1021787957      -39.6684117781  TIP3      18017           0.0000000000
     76302     18209  TIP3      H1            -26.0489666309       14.9482552979      -39.3113080921  TIP3      18017           0.0000000000
     76303     18209  TIP3      H2            -26.4393174872       13.4864609074      -39.4490346714  TIP3      18017           0.0000000000
     76304     18210  TIP3      OH2           -35.7491376908       10.4083111165      -27.6284425471  TIP3      18018           0.0000000000
     76305     18210  TIP3      H1            -35.4742157761        9.9968188873      -26.7903343978  TIP3      18018           0.0000000000
     76306     18210  TIP3      H2            -36.3150865927        9.7581435071      -28.0604254481  TIP3      18018           0.0000000000
     76307     18211  TIP3      OH2           -23.9888290184       15.3426684027      -27.5069842683  TIP3      18019           0.0000000000
     76308     18211  TIP3      H1            -24.9188736201       15.4943479641      -27.7323751654  TIP3      18019           0.0000000000
     76309     18211  TIP3      H2            -23.9998887095       15.5953770254      -26.5654401895  TIP3      18019           0.0000000000
     76310     18212  TIP3      OH2           -18.3285055011        7.4980523061      -39.1244328427  TIP3      18020           0.0000000000
     76311     18212  TIP3      H1            -18.9009545304        7.2172550841      -39.8623181467  TIP3      18020           0.0000000000
     76312     18212  TIP3      H2            -18.2528141291        8.4498821971      -39.3706136312  TIP3      18020           0.0000000000
     76313     18213  TIP3      OH2           -18.3430009478       13.3817423996      -26.2810240990  TIP3      18021           0.0000000000
     76314     18213  TIP3      H1            -19.2417075139       13.5631936275      -26.6602757815  TIP3      18021           0.0000000000
     76315     18213  TIP3      H2            -17.8033911226       13.3073090089      -27.0927235490  TIP3      18021           0.0000000000
     76316     18214  TIP3      OH2           -20.0840951755       16.3403453471      -38.7330120169  TIP3      18022           0.0000000000
     76317     18214  TIP3      H1            -20.4072021637       15.5032590224      -38.3774222409  TIP3      18022           0.0000000000
     76318     18214  TIP3      H2            -19.7194357817       16.1163086390      -39.6043894560  TIP3      18022           0.0000000000
     76319     18215  TIP3      OH2           -23.0238549043       11.1063139405      -31.4886581692  TIP3      18023           0.0000000000
     76320     18215  TIP3      H1            -23.9036405412       10.8736815376      -31.8035250235  TIP3      18023           0.0000000000
     76321     18215  TIP3      H2            -22.4172569546       10.5302657034      -32.0166235112  TIP3      18023           0.0000000000
     76322     18216  TIP3      OH2           -30.3268725918       15.4891815855      -35.5000714649  TIP3      18024           0.0000000000
     76323     18216  TIP3      H1            -29.8205436074       16.2885092080      -35.7183136436  TIP3      18024           0.0000000000
     76324     18216  TIP3      H2            -31.2055921166       15.7181829741      -35.8344524178  TIP3      18024           0.0000000000
     76325     18217  TIP3      OH2           -34.5973917947       10.3263653091      -40.9068987548  TIP3      18025           0.0000000000
     76326     18217  TIP3      H1            -33.9547798639       10.9850990927      -40.5508381846  TIP3      18025           0.0000000000
     76327     18217  TIP3      H2            -35.4502888774       10.6815531829      -40.6491698156  TIP3      18025           0.0000000000
     76328     18218  TIP3      OH2           -28.9070529431       13.1514614367      -36.0101431100  TIP3      18026           0.0000000000
     76329     18218  TIP3      H1            -29.2173875596       14.0699450338      -35.9002911842  TIP3      18026           0.0000000000
     76330     18218  TIP3      H2            -29.6159294898       12.6543505624      -35.5532574427  TIP3      18026           0.0000000000
     76331     18219  TIP3      OH2           -28.4310976407       17.3373058369      -29.6136440127  TIP3      18027           0.0000000000
     76332     18219  TIP3      H1            -27.9849373972       18.1536684785      -29.8763491781  TIP3      18027           0.0000000000
     76333     18219  TIP3      H2            -27.8280223969       16.9937076357      -28.9315865468  TIP3      18027           0.0000000000
     76334     18220  TIP3      OH2           -30.2227165622       18.1376395228      -36.4721855353  TIP3      18028           0.0000000000
     76335     18220  TIP3      H1            -31.1824472514       18.2975557079      -36.3432877951  TIP3      18028           0.0000000000
     76336     18220  TIP3      H2            -29.8561727105       18.9766695596      -36.1268618606  TIP3      18028           0.0000000000
     76337     18221  TIP3      OH2           -24.9395266728       13.3322725440      -29.9784081262  TIP3      18029           0.0000000000
     76338     18221  TIP3      H1            -25.2553680386       13.1304568823      -29.0728023757  TIP3      18029           0.0000000000
     76339     18221  TIP3      H2            -24.2793391259       12.6291277655      -30.1518790840  TIP3      18029           0.0000000000
     76340     18222  TIP3      OH2           -22.5834440942       14.4028450602      -40.8808049288  TIP3      18030           0.0000000000
     76341     18222  TIP3      H1            -22.2918866921       13.9326190397      -40.0747840804  TIP3      18030           0.0000000000
     76342     18222  TIP3      H2            -23.5385117649       14.2235706620      -40.7983612673  TIP3      18030           0.0000000000
     76343     18223  TIP3      OH2           -22.1197314848       17.9101005686      -27.4734092741  TIP3      18031           0.0000000000
     76344     18223  TIP3      H1            -22.8064454420       17.4181892213      -27.9618600993  TIP3      18031           0.0000000000
     76345     18223  TIP3      H2            -21.9260943401       18.6138399844      -28.1290008625  TIP3      18031           0.0000000000
     76346     18224  TIP3      OH2           -18.1719979623       18.7752413719      -40.6870485816  TIP3      18032           0.0000000000
     76347     18224  TIP3      H1            -17.4336396251       19.4219555953      -40.7968168665  TIP3      18032           0.0000000000
     76348     18224  TIP3      H2            -18.8413740393       19.3895928649      -40.3226338891  TIP3      18032           0.0000000000
     76349     18225  TIP3      OH2           -34.0571211754        5.1668068247      -28.1678047422  TIP3      18033           0.0000000000
     76350     18225  TIP3      H1            -34.9413797423        5.5358380217      -28.0467040331  TIP3      18033           0.0000000000
     76351     18225  TIP3      H2            -34.1466194823        4.3482981745      -27.6451184145  TIP3      18033           0.0000000000
     76352     18226  TIP3      OH2           -21.8125975703       13.0348402689      -38.6264029718  TIP3      18034           0.0000000000
     76353     18226  TIP3      H1            -22.0440958909       12.2517583774      -38.0788527797  TIP3      18034           0.0000000000
     76354     18226  TIP3      H2            -20.8586701641       13.0828478155      -38.4609425317  TIP3      18034           0.0000000000
     76355     18227  TIP3      OH2           -34.2705360849       17.0093522644      -29.7038402931  TIP3      18035           0.0000000000
     76356     18227  TIP3      H1            -34.1587568214       16.0484958773      -29.6552077253  TIP3      18035           0.0000000000
     76357     18227  TIP3      H2            -34.1741493499       17.2481830612      -28.7773377191  TIP3      18035           0.0000000000
     76358     18228  TIP3      OH2           -28.4604936038       15.4837639403      -42.3824266101  TIP3      18036           0.0000000000
     76359     18228  TIP3      H1            -28.3608920454       14.7184033410      -42.9729783512  TIP3      18036           0.0000000000
     76360     18228  TIP3      H2            -28.9016521287       15.0498713354      -41.6195369786  TIP3      18036           0.0000000000
     76361     18229  TIP3      OH2           -29.7096877788       15.0007044544      -39.9271887271  TIP3      18037           0.0000000000
     76362     18229  TIP3      H1            -29.4140362518       14.4907846187      -39.1624622570  TIP3      18037           0.0000000000
     76363     18229  TIP3      H2            -29.5946259163       15.9278767851      -39.6125812304  TIP3      18037           0.0000000000
     76364     18230  TIP3      OH2           -33.1936912387       12.2508702672      -39.4647003173  TIP3      18038           0.0000000000
     76365     18230  TIP3      H1            -33.8936781978       12.6395985032      -38.9021625481  TIP3      18038           0.0000000000
     76366     18230  TIP3      H2            -32.6656574336       13.0293294198      -39.7290740716  TIP3      18038           0.0000000000
     76367     18231  TIP3      OH2           -25.3231242478        4.9343303391      -29.1152713035  TIP3      18039           0.0000000000
     76368     18231  TIP3      H1            -24.5890932805        4.9856012564      -28.4963107298  TIP3      18039           0.0000000000
     76369     18231  TIP3      H2            -25.7055516104        4.0541718772      -28.9312797147  TIP3      18039           0.0000000000
     76370     18232  TIP3      OH2           -24.5694568543        4.5082335545      -38.0391345723  TIP3      18040           0.0000000000
     76371     18232  TIP3      H1            -24.3413667643        4.9711181506      -38.8689378048  TIP3      18040           0.0000000000
     76372     18232  TIP3      H2            -23.9947085840        4.9639930521      -37.4045299212  TIP3      18040           0.0000000000
     76373     18233  TIP3      OH2           -26.8811665431       16.6699958624      -39.2391268342  TIP3      18041           0.0000000000
     76374     18233  TIP3      H1            -27.7015613298       17.1960963706      -39.1604580769  TIP3      18041           0.0000000000
     76375     18233  TIP3      H2            -26.3520024596       17.2341051057      -39.8265762534  TIP3      18041           0.0000000000
     76376     18234  TIP3      OH2           -27.3400928281        6.2598314469      -37.2209497604  TIP3      18042           0.0000000000
     76377     18234  TIP3      H1            -26.5605423049        6.8455157562      -37.1705287963  TIP3      18042           0.0000000000
     76378     18234  TIP3      H2            -27.6119427235        6.1394236171      -36.2916658499  TIP3      18042           0.0000000000
     76379     18235  TIP3      OH2           -26.8069035036        7.2559807549      -28.0657420035  TIP3      18043           0.0000000000
     76380     18235  TIP3      H1            -26.7111569932        7.8785518262      -27.3156190319  TIP3      18043           0.0000000000
     76381     18235  TIP3      H2            -26.1145591608        6.5963265901      -27.9610254901  TIP3      18043           0.0000000000
     76382     18236  TIP3      OH2           -26.4950935870        3.3160872447      -36.3404627949  TIP3      18044           0.0000000000
     76383     18236  TIP3      H1            -26.8162381308        3.9636223264      -35.6887696579  TIP3      18044           0.0000000000
     76384     18236  TIP3      H2            -25.7994998156        3.8629347732      -36.7798059309  TIP3      18044           0.0000000000
     76385     18237  TIP3      OH2           -29.4869523099       17.6983543644      -39.2068441724  TIP3      18045           0.0000000000
     76386     18237  TIP3      H1            -29.3755151847       18.5185586107      -39.7593466106  TIP3      18045           0.0000000000
     76387     18237  TIP3      H2            -29.7465331639       18.0773908462      -38.3393542255  TIP3      18045           0.0000000000
     76388     18238  TIP3      OH2           -30.8237228419        4.4230326016      -39.6300339683  TIP3      18046           0.0000000000
     76389     18238  TIP3      H1            -30.8837630461        5.3191060891      -39.2412109897  TIP3      18046           0.0000000000
     76390     18238  TIP3      H2            -29.9184599264        4.1802274933      -39.3629532240  TIP3      18046           0.0000000000
     76391     18239  TIP3      OH2           -20.6294112298        5.1178249929      -27.1854081199  TIP3      18047           0.0000000000
     76392     18239  TIP3      H1            -21.5394846486        5.4662164132      -27.3201630861  TIP3      18047           0.0000000000
     76393     18239  TIP3      H2            -20.3011293181        5.1528328065      -28.0974702787  TIP3      18047           0.0000000000
     76394     18240  TIP3      OH2           -22.0751051427        8.8017525606      -33.2465728031  TIP3      18048           0.0000000000
     76395     18240  TIP3      H1            -22.9104931174        8.3804014122      -33.4410310973  TIP3      18048           0.0000000000
     76396     18240  TIP3      H2            -21.5580028166        8.2314242618      -32.6450620925  TIP3      18048           0.0000000000
     76397     18241  TIP3      OH2           -32.6210030807       14.8766729310      -40.5876555284  TIP3      18049           0.0000000000
     76398     18241  TIP3      H1            -31.9500117624       15.5055706622      -40.2766422118  TIP3      18049           0.0000000000
     76399     18241  TIP3      H2            -32.0882552795       14.3971669865      -41.2561845830  TIP3      18049           0.0000000000
     76400     18242  TIP3      OH2           -34.3032099426        7.5264860314      -41.4531517644  TIP3      18050           0.0000000000
     76401     18242  TIP3      H1            -34.2325150976        8.4809862147      -41.2517893524  TIP3      18050           0.0000000000
     76402     18242  TIP3      H2            -35.1869640713        7.3565896406      -41.7952241756  TIP3      18050           0.0000000000
     76403     18243  TIP3      OH2           -20.9354835192       18.2059416691      -31.5160311707  TIP3      18051           0.0000000000
     76404     18243  TIP3      H1            -21.0210530619       18.8905347810      -32.2059068423  TIP3      18051           0.0000000000
     76405     18243  TIP3      H2            -19.9724275968       18.2548273690      -31.3305999749  TIP3      18051           0.0000000000
     76406     18244  TIP3      OH2           -33.4154283888        2.3081344292      -32.7185957688  TIP3      18052           0.0000000000
     76407     18244  TIP3      H1            -33.6335499883        2.3425295295      -33.6757193852  TIP3      18052           0.0000000000
     76408     18244  TIP3      H2            -33.8617230353        1.4786480331      -32.4512683269  TIP3      18052           0.0000000000
     76409     18245  TIP3      OH2           -34.4673517124       16.2541318738      -36.5319983061  TIP3      18053           0.0000000000
     76410     18245  TIP3      H1            -35.3172221177       16.6968763140      -36.5886566897  TIP3      18053           0.0000000000
     76411     18245  TIP3      H2            -33.9928367324       16.7083613410      -37.2429285260  TIP3      18053           0.0000000000
     76412     18246  TIP3      OH2           -34.9513277102       18.9383159017      -25.2156955875  TIP3      18054           0.0000000000
     76413     18246  TIP3      H1            -34.5408768354       18.5654172357      -24.4334417003  TIP3      18054           0.0000000000
     76414     18246  TIP3      H2            -35.4917429614       18.1473914943      -25.4613246552  TIP3      18054           0.0000000000
     76415     18247  TIP3      OH2           -26.4655477069       17.3294754082      -42.2623939704  TIP3      18055           0.0000000000
     76416     18247  TIP3      H1            -27.1581713090       16.6702348418      -42.0318385128  TIP3      18055           0.0000000000
     76417     18247  TIP3      H2            -25.7467399149       16.7288008757      -42.5064124066  TIP3      18055           0.0000000000
     76418     18248  TIP3      OH2           -24.1257088913       16.1767831529      -24.9226277380  TIP3      18056           0.0000000000
     76419     18248  TIP3      H1            -24.3520250777       15.2782977707      -24.6314172141  TIP3      18056           0.0000000000
     76420     18248  TIP3      H2            -23.3177315720       16.3075022254      -24.3762184639  TIP3      18056           0.0000000000
     76421     18249  TIP3      OH2           -21.9027901839       17.0721471371      -42.0692326404  TIP3      18057           0.0000000000
     76422     18249  TIP3      H1            -21.5985421905       16.3034989937      -41.5598553378  TIP3      18057           0.0000000000
     76423     18249  TIP3      H2            -21.1350102220       17.3015530310      -42.6130843440  TIP3      18057           0.0000000000
     76424     18250  TIP3      OH2           -31.0206906743       13.0159207516      -42.2559583754  TIP3      18058           0.0000000000
     76425     18250  TIP3      H1            -30.8844603143       12.2527559857      -41.6749197183  TIP3      18058           0.0000000000
     76426     18250  TIP3      H2            -30.2709083374       12.8962548472      -42.8716288706  TIP3      18058           0.0000000000
     76427     18251  TIP3      OH2           -25.5902864574       14.1225766223      -42.4763868473  TIP3      18059           0.0000000000
     76428     18251  TIP3      H1            -25.8604058810       14.2039643993      -41.5480802100  TIP3      18059           0.0000000000
     76429     18251  TIP3      H2            -25.7791815645       13.1648155078      -42.6206167589  TIP3      18059           0.0000000000
     76430     18252  TIP3      OH2           -22.9623941760       12.5268423869      -27.5382267866  TIP3      18060           0.0000000000
     76431     18252  TIP3      H1            -22.1597269452       13.0899429907      -27.5689767402  TIP3      18060           0.0000000000
     76432     18252  TIP3      H2            -23.6529545467       13.1930036860      -27.4151975014  TIP3      18060           0.0000000000
     76433     18253  TIP3      OH2           -34.4921193267        9.8980493450      -24.9253382929  TIP3      18061           0.0000000000
     76434     18253  TIP3      H1            -34.0503893307        9.0308446851      -24.9929694911  TIP3      18061           0.0000000000
     76435     18253  TIP3      H2            -34.7134698204        9.8713931922      -23.9934334081  TIP3      18061           0.0000000000
     76436     18254  TIP3      OH2           -29.8144934295       11.0290203545      -39.8244248447  TIP3      18062           0.0000000000
     76437     18254  TIP3      H1            -30.3077842087       10.4811166187      -39.1980017154  TIP3      18062           0.0000000000
     76438     18254  TIP3      H2            -29.5185513482       10.3590492238      -40.4833306684  TIP3      18062           0.0000000000
     76439     18255  TIP3      OH2           -30.6084137885        8.8241067653      -27.5655132586  TIP3      18063           0.0000000000
     76440     18255  TIP3      H1            -31.0782925580        9.5723676692      -27.1923358342  TIP3      18063           0.0000000000
     76441     18255  TIP3      H2            -30.1321719095        9.2102942104      -28.3244855470  TIP3      18063           0.0000000000
     76442     18256  TIP3      OH2           -28.7417522122        9.2545480541      -41.6252583684  TIP3      18064           0.0000000000
     76443     18256  TIP3      H1            -28.8948539397        9.1654339878      -42.5866919053  TIP3      18064           0.0000000000
     76444     18256  TIP3      H2            -27.7653916401        9.3063909502      -41.5601503252  TIP3      18064           0.0000000000
     76445     18257  TIP3      OH2           -25.4975543334       11.3364079835      -24.2558645649  TIP3      18065           0.0000000000
     76446     18257  TIP3      H1            -24.5336534500       11.4880126667      -24.2912598286  TIP3      18065           0.0000000000
     76447     18257  TIP3      H2            -25.6205414049       10.7155262423      -23.5570784185  TIP3      18065           0.0000000000
     76448     18258  TIP3      OH2           -19.4129808652       11.5733733833      -42.2158830351  TIP3      18066           0.0000000000
     76449     18258  TIP3      H1            -19.6033372286       11.1932399800      -43.0866416039  TIP3      18066           0.0000000000
     76450     18258  TIP3      H2            -19.3235853067       12.5360836465      -42.4017130491  TIP3      18066           0.0000000000
     76451     18259  TIP3      OH2           -30.1482575897        6.2093152533      -26.4746677369  TIP3      18067           0.0000000000
     76452     18259  TIP3      H1            -30.0303215861        5.4989121730      -27.1302906678  TIP3      18067           0.0000000000
     76453     18259  TIP3      H2            -30.2083520679        7.0250237808      -27.0107813609  TIP3      18067           0.0000000000
     76454     18260  TIP3      OH2           -29.7345374865        4.5865481141      -28.9235814657  TIP3      18068           0.0000000000
     76455     18260  TIP3      H1            -29.2317538412        5.0661884003      -29.6254205401  TIP3      18068           0.0000000000
     76456     18260  TIP3      H2            -30.6350128048        4.5178373651      -29.3253418254  TIP3      18068           0.0000000000
     76457     18261  TIP3      OH2           -28.2175639170       10.0593469105      -28.7029913133  TIP3      18069           0.0000000000
     76458     18261  TIP3      H1            -27.4386105221        9.9247996266      -29.2553898070  TIP3      18069           0.0000000000
     76459     18261  TIP3      H2            -28.5565731985       10.9182351421      -28.9968486018  TIP3      18069           0.0000000000
     76460     18262  TIP3      OH2           -22.4802117109       10.6013362736      -25.6079816412  TIP3      18070           0.0000000000
     76461     18262  TIP3      H1            -22.7196820190       11.3810717930      -26.1475926896  TIP3      18070           0.0000000000
     76462     18262  TIP3      H2            -21.5102848978       10.6430753795      -25.7131716235  TIP3      18070           0.0000000000
     76463     18263  TIP3      OH2           -31.7303964300        7.5240681243      -24.6438344951  TIP3      18071           0.0000000000
     76464     18263  TIP3      H1            -32.4677899104        6.8761465482      -24.6892898597  TIP3      18071           0.0000000000
     76465     18263  TIP3      H2            -31.0519776162        7.0667517356      -25.1765713289  TIP3      18071           0.0000000000
     76466     18264  TIP3      OH2           -28.9561831251        2.0326259870      -28.5045179107  TIP3      18072           0.0000000000
     76467     18264  TIP3      H1            -29.1289959365        2.9938092808      -28.6349369544  TIP3      18072           0.0000000000
     76468     18264  TIP3      H2            -29.6949425362        1.6701645837      -29.0285605116  TIP3      18072           0.0000000000
     76469     18265  TIP3      OH2           -24.9668543093        5.5612375768      -25.7156827347  TIP3      18073           0.0000000000
     76470     18265  TIP3      H1            -25.9257160026        5.4850584234      -25.7991549002  TIP3      18073           0.0000000000
     76471     18265  TIP3      H2            -24.7175813472        4.7937472591      -25.1988546312  TIP3      18073           0.0000000000
     76472     18266  TIP3      OH2           -33.4610180742        5.3757993838      -24.8057544602  TIP3      18074           0.0000000000
     76473     18266  TIP3      H1            -33.3478041280        4.6330092197      -25.4198190734  TIP3      18074           0.0000000000
     76474     18266  TIP3      H2            -33.6356633246        4.9255212046      -23.9558985098  TIP3      18074           0.0000000000
     76475     18267  TIP3      OH2           -28.7402605716        1.4188305142      -25.8426326476  TIP3      18075           0.0000000000
     76476     18267  TIP3      H1            -28.0543327068        0.7244152974      -25.8589023056  TIP3      18075           0.0000000000
     76477     18267  TIP3      H2            -28.8535304308        1.5749362675      -26.7976676171  TIP3      18075           0.0000000000
     76478     18268  TIP3      OH2           -28.3318624193        3.1290203666      -23.7916137536  TIP3      18076           0.0000000000
     76479     18268  TIP3      H1            -28.5468774444        2.4963211124      -24.5195492924  TIP3      18076           0.0000000000
     76480     18268  TIP3      H2            -29.0543276189        3.7507365778      -23.8566063887  TIP3      18076           0.0000000000
     76481     18269  TIP3      OH2           -28.9109151902       19.8987261585      -40.5901107644  TIP3      18077           0.0000000000
     76482     18269  TIP3      H1            -27.9612651125       20.0768708592      -40.4709713599  TIP3      18077           0.0000000000
     76483     18269  TIP3      H2            -29.0625908033       20.5905150833      -41.2478451531  TIP3      18077           0.0000000000
     76484     18270  TIP3      OH2           -35.3113561607       14.5268824740      -41.0614207148  TIP3      18078           0.0000000000
     76485     18270  TIP3      H1            -34.3490704741       14.6452612640      -40.8985416723  TIP3      18078           0.0000000000
     76486     18270  TIP3      H2            -35.2723826531       13.8884637225      -41.7980479765  TIP3      18078           0.0000000000
     76487     18271  TIP3      OH2            36.8601476973       20.0710000378      -36.2806310094  TIP3      18079           0.0000000000
     76488     18271  TIP3      H1             35.9504186526       19.8655743884      -36.5860162947  TIP3      18079           0.0000000000
     76489     18271  TIP3      H2             36.9501492800       19.4403913752      -35.5270568703  TIP3      18079           0.0000000000
     76490     18272  TIP3      OH2           -35.7243872451       18.0898353350      -34.2818109239  TIP3      18080           0.0000000000
     76491     18272  TIP3      H1            -36.0813395470       17.2015984466      -34.0534950843  TIP3      18080           0.0000000000
     76492     18272  TIP3      H2            -35.4826704699       18.3697441866      -33.3794791930  TIP3      18080           0.0000000000
     76493     18273  TIP3      OH2           -18.2155754302       18.8484258210      -31.3120446629  TIP3      18081           0.0000000000
     76494     18273  TIP3      H1            -18.1842322901       18.9985711972      -30.3529589135  TIP3      18081           0.0000000000
     76495     18273  TIP3      H2            -17.5079697598       19.4275323075      -31.6120173363  TIP3      18081           0.0000000000
     76496     18274  TIP3      OH2           -18.6180364463       18.4431326484      -28.3744102604  TIP3      18082           0.0000000000
     76497     18274  TIP3      H1            -19.1147459633       17.6789001816      -28.7365562439  TIP3      18082           0.0000000000
     76498     18274  TIP3      H2            -18.1535022196       17.9963366309      -27.6507887494  TIP3      18082           0.0000000000
     76499     18275  TIP3      OH2           -18.8803385051       12.4615136817      -38.2812170842  TIP3      18083           0.0000000000
     76500     18275  TIP3      H1            -18.0221284856       12.8744598963      -38.0859042374  TIP3      18083           0.0000000000
     76501     18275  TIP3      H2            -18.9051639456       11.7705982564      -37.5803533631  TIP3      18083           0.0000000000
     76502     18276  TIP3      OH2           -18.5036594866       10.5435335401      -36.3804646256  TIP3      18084           0.0000000000
     76503     18276  TIP3      H1            -19.2772905979       10.0993060478      -35.9574268748  TIP3      18084           0.0000000000
     76504     18276  TIP3      H2            -17.9425521532       10.7097772457      -35.5961845621  TIP3      18084           0.0000000000
     76505     18277  TIP3      OH2           -18.6716298393       13.3237150442      -31.2596562106  TIP3      18085           0.0000000000
     76506     18277  TIP3      H1            -17.9925239173       12.8611576958      -31.7851657833  TIP3      18085           0.0000000000
     76507     18277  TIP3      H2            -18.6087378922       14.2342224682      -31.5809593987  TIP3      18085           0.0000000000
     76508     18278  TIP3      OH2           -20.2057922661       16.1683886213      -29.1117970722  TIP3      18086           0.0000000000
     76509     18278  TIP3      H1            -20.9014842522       16.5172372660      -28.5290084455  TIP3      18086           0.0000000000
     76510     18278  TIP3      H2            -20.7438579900       15.7565369419      -29.8260473969  TIP3      18086           0.0000000000
     76511     18279  TIP3      OH2           -18.2148095399       10.3878987105      -39.9830218401  TIP3      18087           0.0000000000
     76512     18279  TIP3      H1            -18.7846728897       10.7310554021      -40.7037241990  TIP3      18087           0.0000000000
     76513     18279  TIP3      H2            -18.3187927748       11.1011744026      -39.3232059810  TIP3      18087           0.0000000000
     76514     18280  TIP3      OH2           -19.8417554505        7.6141259178      -41.4771840606  TIP3      18088           0.0000000000
     76515     18280  TIP3      H1            -19.7696049735        8.2835826972      -42.1682844469  TIP3      18088           0.0000000000
     76516     18280  TIP3      H2            -20.0324714670        6.7923956056      -41.9712363850  TIP3      18088           0.0000000000
     76517     18281  TIP3      OH2           -20.7094364255        9.0369142074      -35.8137890187  TIP3      18089           0.0000000000
     76518     18281  TIP3      H1            -20.8510839344        8.0843476734      -35.8141844390  TIP3      18089           0.0000000000
     76519     18281  TIP3      H2            -20.9850277580        9.2881849679      -34.9028411614  TIP3      18089           0.0000000000
     76520     18282  TIP3      OH2           -35.6760163481       11.1023522050      -31.8193441815  TIP3      18090           0.0000000000
     76521     18282  TIP3      H1            -35.4572324935       11.0727614816      -32.7704729726  TIP3      18090           0.0000000000
     76522     18282  TIP3      H2            -34.8012122866       11.0055685777      -31.3859744058  TIP3      18090           0.0000000000
     76523     18283  TIP3      OH2           -19.8385238857       10.9872928876      -26.2178875585  TIP3      18091           0.0000000000
     76524     18283  TIP3      H1            -19.2507294314       10.2574862350      -25.9277896862  TIP3      18091           0.0000000000
     76525     18283  TIP3      H2            -19.2748386282       11.7701602325      -26.0814712350  TIP3      18091           0.0000000000
     76526     18284  TIP3      OH2           -18.3294127661        8.8962417616      -25.5236553304  TIP3      18092           0.0000000000
     76527     18284  TIP3      H1            -19.2334822434        8.5155043875      -25.5702810698  TIP3      18092           0.0000000000
     76528     18284  TIP3      H2            -17.7877662480        8.0958951999      -25.5313225399  TIP3      18092           0.0000000000
     76529     18285  TIP3      OH2           -20.5955655591        5.0945549268      -42.3335124070  TIP3      18093           0.0000000000
     76530     18285  TIP3      H1            -20.0085102694        4.6551080686      -41.6894249268  TIP3      18093           0.0000000000
     76531     18285  TIP3      H2            -21.4612692182        4.6773722884      -42.1799896206  TIP3      18093           0.0000000000
     76532     18286  TIP3      OH2           -21.0550523799        6.6187640361      -37.3903880965  TIP3      18094           0.0000000000
     76533     18286  TIP3      H1            -20.7371914738        5.7002207911      -37.2272547973  TIP3      18094           0.0000000000
     76534     18286  TIP3      H2            -20.2322085466        7.0302068904      -37.6900336299  TIP3      18094           0.0000000000
     76535     18287  TIP3      OH2           -20.3825760058        7.1028756561      -31.8883361161  TIP3      18095           0.0000000000
     76536     18287  TIP3      H1            -19.4527300745        7.4327575617      -31.9368612820  TIP3      18095           0.0000000000
     76537     18287  TIP3      H2            -20.5856645389        7.3451994323      -30.9748776388  TIP3      18095           0.0000000000
     76538     18288  TIP3      OH2           -20.3200139062        7.8950403488      -29.1044952738  TIP3      18096           0.0000000000
     76539     18288  TIP3      H1            -21.1982401905        8.1937783394      -28.7813726423  TIP3      18096           0.0000000000
     76540     18288  TIP3      H2            -19.8978297314        8.7532320851      -29.3601921860  TIP3      18096           0.0000000000
     76541     18289  TIP3      OH2           -35.8125801194        6.2944421437      -25.6106774955  TIP3      18097           0.0000000000
     76542     18289  TIP3      H1            -34.9255219911        6.1170102518      -25.2598483756  TIP3      18097           0.0000000000
     76543     18289  TIP3      H2            -36.3757512200        5.6020525406      -25.1882087073  TIP3      18097           0.0000000000
     76544     18290  TIP3      OH2           -18.0147495778        1.9247239188      -23.7651645704  TIP3      18098           0.0000000000
     76545     18290  TIP3      H1            -17.7181230061        1.2667758364      -24.4109803821  TIP3      18098           0.0000000000
     76546     18290  TIP3      H2            -17.9628509384        2.7500329470      -24.2941228150  TIP3      18098           0.0000000000
     76547     18291  TIP3      OH2           -20.3569668622        3.9121103213      -37.2984257584  TIP3      18099           0.0000000000
     76548     18291  TIP3      H1            -20.1456475914        3.4755603531      -36.4450764896  TIP3      18099           0.0000000000
     76549     18291  TIP3      H2            -20.9583256624        3.2731883656      -37.7356107186  TIP3      18099           0.0000000000
     76550     18292  TIP3      OH2           -34.8345981907        4.6721070236      -32.7808652297  TIP3      18100           0.0000000000
     76551     18292  TIP3      H1            -34.3734630352        3.8833267242      -32.4524005991  TIP3      18100           0.0000000000
     76552     18292  TIP3      H2            -34.3392531142        5.3884304011      -32.3448372363  TIP3      18100           0.0000000000
     76553     18293  TIP3      OH2           -36.0007906172        8.4761772484      -31.3372722199  TIP3      18101           0.0000000000
     76554     18293  TIP3      H1            -35.9746276201        8.0465065783      -32.2168172143  TIP3      18101           0.0000000000
     76555     18293  TIP3      H2            -35.9511631035        9.3923583674      -31.6232543274  TIP3      18101           0.0000000000
     76556     18294  TIP3      OH2           -18.5296062070        4.0124170891      -25.4293160020  TIP3      18102           0.0000000000
     76557     18294  TIP3      H1            -19.4518256440        4.3277825142      -25.4946891315  TIP3      18102           0.0000000000
     76558     18294  TIP3      H2            -18.4887151052        3.5010358399      -26.2511344186  TIP3      18102           0.0000000000
     76559     18295  TIP3      OH2           -18.5433531036        3.9470116507      -40.7447373301  TIP3      18103           0.0000000000
     76560     18295  TIP3      H1            -18.1317295262        3.2338579468      -41.2825159524  TIP3      18103           0.0000000000
     76561     18295  TIP3      H2            -17.8369442249        4.6079333825      -40.6946858850  TIP3      18103           0.0000000000
     76562     18296  TIP3      OH2           -35.7587146917        3.9392218299      -38.0610044745  TIP3      18104           0.0000000000
     76563     18296  TIP3      H1            -36.7043683156        4.1182795333      -37.9374048090  TIP3      18104           0.0000000000
     76564     18296  TIP3      H2            -35.5357808905        4.6945973066      -38.6403572151  TIP3      18104           0.0000000000
     76565     18297  TIP3      OH2           -21.4847788497       18.9243221822      -35.6840173869  TIP3      18105           0.0000000000
     76566     18297  TIP3      H1            -20.7937039642       18.6272425830      -36.3049156490  TIP3      18105           0.0000000000
     76567     18297  TIP3      H2            -20.9718277606       19.4261455540      -35.0336415888  TIP3      18105           0.0000000000
     76568     18298  TIP3      OH2            37.0292994943        2.5980341067      -29.1211768616  TIP3      18106           0.0000000000
     76569     18298  TIP3      H1             36.2412318782        2.3896860447      -28.5954113406  TIP3      18106           0.0000000000
     76570     18298  TIP3      H2             36.5505607566        3.1172571022      -29.7897364069  TIP3      18106           0.0000000000
     76571     18299  TIP3      OH2           -31.1370077170       16.8477499696      -28.9285403676  TIP3      18107           0.0000000000
     76572     18299  TIP3      H1            -31.5165830336       17.7040483073      -29.1724309093  TIP3      18107           0.0000000000
     76573     18299  TIP3      H2            -30.2060266931       16.9391232556      -29.2129784967  TIP3      18107           0.0000000000
     76574     18300  TIP3      OH2           -26.8176508900       18.2403157340      -25.9793098094  TIP3      18108           0.0000000000
     76575     18300  TIP3      H1            -26.6380649845       17.9141338748      -25.0603705544  TIP3      18108           0.0000000000
     76576     18300  TIP3      H2            -25.9246033267       18.5414374246      -26.2475271015  TIP3      18108           0.0000000000
     76577     18301  TIP3      OH2           -24.5270421254       19.5184749996      -26.6758975110  TIP3      18109           0.0000000000
     76578     18301  TIP3      H1            -23.8007975722       18.9313973202      -26.9442046175  TIP3      18109           0.0000000000
     76579     18301  TIP3      H2            -24.1283674408       19.9402589986      -25.9054199077  TIP3      18109           0.0000000000
     76580     18302  TIP3      OH2           -19.5113311154        2.1469824639      -27.5742816667  TIP3      18110           0.0000000000
     76581     18302  TIP3      H1            -20.3397594048        2.4303954349      -27.9929579354  TIP3      18110           0.0000000000
     76582     18302  TIP3      H2            -19.3454569923        1.3162809544      -28.0770758273  TIP3      18110           0.0000000000
     76583     18303  TIP3      OH2           -33.6887451994       20.0522134523      -28.8745549157  TIP3      18111           0.0000000000
     76584     18303  TIP3      H1            -34.4292085668       20.5484854160      -29.2751362737  TIP3      18111           0.0000000000
     76585     18303  TIP3      H2            -34.0476084075       19.8851064567      -27.9976127747  TIP3      18111           0.0000000000
     76586     18304  TIP3      OH2           -31.2313775556       19.7026070581      -29.8669217886  TIP3      18112           0.0000000000
     76587     18304  TIP3      H1            -32.1232773064       19.8044514494      -29.4571490577  TIP3      18112           0.0000000000
     76588     18304  TIP3      H2            -31.3014759846       20.2867343182      -30.6373976288  TIP3      18112           0.0000000000
     76589     18305  TIP3      OH2           -26.5430576698       19.5636059437      -30.6462934940  TIP3      18113           0.0000000000
     76590     18305  TIP3      H1            -26.9992463784       20.1175450700      -31.3004169183  TIP3      18113           0.0000000000
     76591     18305  TIP3      H2            -26.4065448197       20.2009108155      -29.9144687460  TIP3      18113           0.0000000000
     76592     18306  TIP3      OH2           -24.2587677447       18.3782134225      -29.6036668000  TIP3      18114           0.0000000000
     76593     18306  TIP3      H1            -25.1059218493       18.6480758914      -29.9943633793  TIP3      18114           0.0000000000
     76594     18306  TIP3      H2            -23.7677806888       19.2076632918      -29.7258190373  TIP3      18114           0.0000000000
     76595     18307  TIP3      OH2           -21.6856578098       19.9468866549      -29.3959926787  TIP3      18115           0.0000000000
     76596     18307  TIP3      H1            -21.7198620417       20.9039067131      -29.6410319519  TIP3      18115           0.0000000000
     76597     18307  TIP3      H2            -21.4572036530       19.5664790609      -30.2673064506  TIP3      18115           0.0000000000
     76598     18308  TIP3      OH2           -34.3075033411       18.7236972771      -31.9637921290  TIP3      18116           0.0000000000
     76599     18308  TIP3      H1            -34.3083770460       18.2693089117      -31.0963103551  TIP3      18116           0.0000000000
     76600     18308  TIP3      H2            -33.4896099596       18.3466291838      -32.3472920911  TIP3      18116           0.0000000000
     76601     18309  TIP3      OH2           -32.2066829274       17.4515090576      -33.2969898787  TIP3      18117           0.0000000000
     76602     18309  TIP3      H1            -32.3555957533       16.5101477032      -33.0905413760  TIP3      18117           0.0000000000
     76603     18309  TIP3      H2            -31.3437154723       17.5916562682      -32.8484736573  TIP3      18117           0.0000000000
     76604     18310  TIP3      OH2           -29.5833446866       17.9145064623      -32.4324299698  TIP3      18118           0.0000000000
     76605     18310  TIP3      H1            -29.4250068264       16.9901660382      -32.6867996000  TIP3      18118           0.0000000000
     76606     18310  TIP3      H2            -29.5247424961       17.8678501721      -31.4685252700  TIP3      18118           0.0000000000
     76607     18311  TIP3      OH2           -26.1225702712        3.5672329983      -33.2867444871  TIP3      18119           0.0000000000
     76608     18311  TIP3      H1            -26.8006464113        2.9283954329      -33.0078822906  TIP3      18119           0.0000000000
     76609     18311  TIP3      H2            -25.5730460496        3.0337365882      -33.8731341989  TIP3      18119           0.0000000000
     76610     18312  TIP3      OH2           -20.9862941584        1.6136156309      -33.2231739946  TIP3      18120           0.0000000000
     76611     18312  TIP3      H1            -20.3756170580        2.2064385331      -33.7289946198  TIP3      18120           0.0000000000
     76612     18312  TIP3      H2            -21.8675003968        1.9758806193      -33.4524402337  TIP3      18120           0.0000000000
     76613     18313  TIP3      OH2           -19.3205178913        2.8671512543      -34.9492466964  TIP3      18121           0.0000000000
     76614     18313  TIP3      H1            -18.6316656089        2.2910689459      -35.3624696600  TIP3      18121           0.0000000000
     76615     18313  TIP3      H2            -18.8131379589        3.7037072112      -34.8405853998  TIP3      18121           0.0000000000
     76616     18314  TIP3      OH2           -33.7426495803        2.1849991584      -35.4111227893  TIP3      18122           0.0000000000
     76617     18314  TIP3      H1            -34.5220289560        1.9867594994      -35.9761796357  TIP3      18122           0.0000000000
     76618     18314  TIP3      H2            -33.2531795651        1.3463771812      -35.5132923484  TIP3      18122           0.0000000000
     76619     18315  TIP3      OH2           -34.9680509259        1.9265186603      -39.7653312128  TIP3      18123           0.0000000000
     76620     18315  TIP3      H1            -34.4532816756        2.5978790313      -40.2460772593  TIP3      18123           0.0000000000
     76621     18315  TIP3      H2            -35.5273105021        2.4957344013      -39.2016416547  TIP3      18123           0.0000000000
     76622     18316  TIP3      OH2           -29.2829524890        2.1208122453      -35.6540979505  TIP3      18124           0.0000000000
     76623     18316  TIP3      H1            -28.3817307064        2.4780349813      -35.7321091524  TIP3      18124           0.0000000000
     76624     18316  TIP3      H2            -29.3157549072        1.9032026389      -34.7229782300  TIP3      18124           0.0000000000
     76625     18317  TIP3      OH2           -23.5650560838        2.1372628683      -34.0315450618  TIP3      18125           0.0000000000
     76626     18317  TIP3      H1            -23.6190430579        2.2520151823      -34.9891782770  TIP3      18125           0.0000000000
     76627     18317  TIP3      H2            -23.9466872528        1.2342719096      -33.9028359601  TIP3      18125           0.0000000000
     76628     18318  TIP3      OH2           -22.3007002439        2.1684091846      -38.3457584325  TIP3      18126           0.0000000000
     76629     18318  TIP3      H1            -23.0495415694        2.7624499330      -38.5044881282  TIP3      18126           0.0000000000
     76630     18318  TIP3      H2            -22.7405329844        1.3162596006      -38.1123481724  TIP3      18126           0.0000000000
     76631     18319  TIP3      OH2           -35.0649914946       17.9336534094      -38.6648125525  TIP3      18127           0.0000000000
     76632     18319  TIP3      H1            -35.6729677333       17.9050280095      -39.4181894665  TIP3      18127           0.0000000000
     76633     18319  TIP3      H2            -35.0460689169       18.8893049711      -38.5242317361  TIP3      18127           0.0000000000
     76634     18320  TIP3      OH2           -33.1649441197        3.8948189886      -41.1768965906  TIP3      18128           0.0000000000
     76635     18320  TIP3      H1            -32.6391143262        3.2911258471      -41.7329166118  TIP3      18128           0.0000000000
     76636     18320  TIP3      H2            -32.4636441472        4.2050668003      -40.5748506376  TIP3      18128           0.0000000000
     76637     18321  TIP3      OH2           -28.1298240241        4.1340104911      -38.8048747169  TIP3      18129           0.0000000000
     76638     18321  TIP3      H1            -27.8771632258        3.5544888155      -38.0669757559  TIP3      18129           0.0000000000
     76639     18321  TIP3      H2            -28.0594971485        5.0004235582      -38.3463843010  TIP3      18129           0.0000000000
     76640     18322  TIP3      OH2           -26.1857395389       19.1720744296      -40.3402048498  TIP3      18130           0.0000000000
     76641     18322  TIP3      H1            -25.2938827995       19.4654488517      -40.5835510570  TIP3      18130           0.0000000000
     76642     18322  TIP3      H2            -26.4270122498       18.7043196090      -41.1684266569  TIP3      18130           0.0000000000
     76643     18323  TIP3      OH2           -19.5254322889       18.7109573217      -37.6201225551  TIP3      18131           0.0000000000
     76644     18323  TIP3      H1            -19.6694447341       17.9288068135      -38.2023533839  TIP3      18131           0.0000000000
     76645     18323  TIP3      H2            -19.5390892269       19.4406452831      -38.2722784305  TIP3      18131           0.0000000000
     76646     18324  TIP3      OH2           -33.9164023432        2.7579551512      -25.9596024946  TIP3      18132           0.0000000000
     76647     18324  TIP3      H1            -34.2446768374        1.9222089647      -25.5813872119  TIP3      18132           0.0000000000
     76648     18324  TIP3      H2            -32.9926145028        2.7102949666      -25.6173028033  TIP3      18132           0.0000000000
     76649     18325  TIP3      OH2           -31.8815895061        2.0755792576      -24.3800983558  TIP3      18133           0.0000000000
     76650     18325  TIP3      H1            -30.9874364651        1.7496679193      -24.5882868955  TIP3      18133           0.0000000000
     76651     18325  TIP3      H2            -32.2473186180        1.2906109664      -23.9242169452  TIP3      18133           0.0000000000
     76652     18326  TIP3      OH2           -33.2750972635       18.8542326394      -41.7626315865  TIP3      18134           0.0000000000
     76653     18326  TIP3      H1            -33.5235007262       19.1290709751      -40.8713214690  TIP3      18134           0.0000000000
     76654     18326  TIP3      H2            -32.4676606527       18.3319647065      -41.5965124688  TIP3      18134           0.0000000000
     76655     18327  TIP3      OH2           -23.4625277695        1.4388718661      -24.2011455465  TIP3      18135           0.0000000000
     76656     18327  TIP3      H1            -23.3584038175        0.9201332571      -23.3920211409  TIP3      18135           0.0000000000
     76657     18327  TIP3      H2            -22.5473364223        1.3994413920      -24.5425323182  TIP3      18135           0.0000000000
     76658     18328  TIP3      OH2           -20.2029324856       17.4708639955      -25.6069871310  TIP3      18136           0.0000000000
     76659     18328  TIP3      H1            -21.0553456802       17.3000979555      -26.0637340704  TIP3      18136           0.0000000000
     76660     18328  TIP3      H2            -20.3528969384       18.3978479949      -25.3435639638  TIP3      18136           0.0000000000
     76661     18329  TIP3      OH2            -5.8045755842       11.3355920600      -35.5954351812  TIP3      18137           0.0000000000
     76662     18329  TIP3      H1             -5.8265864185       12.3160515387      -35.6114304771  TIP3      18137           0.0000000000
     76663     18329  TIP3      H2             -6.5392847376       11.1013513298      -36.1865369297  TIP3      18137           0.0000000000
     76664     18330  TIP3      OH2            -6.9535500103       10.5885591494      -32.0823793789  TIP3      18138           0.0000000000
     76665     18330  TIP3      H1             -6.9656711662        9.9379199408      -31.3639881640  TIP3      18138           0.0000000000
     76666     18330  TIP3      H2             -7.3035919517       10.0800429331      -32.8342875232  TIP3      18138           0.0000000000
     76667     18331  TIP3      OH2           -14.5974668936       10.2625192270      -30.5336353245  TIP3      18139           0.0000000000
     76668     18331  TIP3      H1            -14.5185502010        9.5791228445      -29.8356443032  TIP3      18139           0.0000000000
     76669     18331  TIP3      H2            -13.8529078123       10.8373609681      -30.3053647951  TIP3      18139           0.0000000000
     76670     18332  TIP3      OH2            -3.2702983134       13.5383918827      -33.7989619082  TIP3      18140           0.0000000000
     76671     18332  TIP3      H1             -3.6798483860       12.8202019089      -33.3063530504  TIP3      18140           0.0000000000
     76672     18332  TIP3      H2             -3.2443615606       14.2461873241      -33.1284847223  TIP3      18140           0.0000000000
     76673     18333  TIP3      OH2           -13.6766599368       14.7098529091      -32.0319349325  TIP3      18141           0.0000000000
     76674     18333  TIP3      H1            -13.9869124891       13.8405226007      -32.3478334549  TIP3      18141           0.0000000000
     76675     18333  TIP3      H2            -12.7208020560       14.5303930756      -31.9842047752  TIP3      18141           0.0000000000
     76676     18334  TIP3      OH2           -17.0098170390        8.2682744178      -36.5782579459  TIP3      18142           0.0000000000
     76677     18334  TIP3      H1            -17.4795436852        9.1310720111      -36.5849789828  TIP3      18142           0.0000000000
     76678     18334  TIP3      H2            -17.5999596947        7.7256387838      -37.1166013848  TIP3      18142           0.0000000000
     76679     18335  TIP3      OH2           -16.3042543059       10.5023576983      -34.3967627279  TIP3      18143           0.0000000000
     76680     18335  TIP3      H1            -16.0667039606        9.6778052095      -33.9369184964  TIP3      18143           0.0000000000
     76681     18335  TIP3      H2            -15.6195715122       10.5936953238      -35.0675910365  TIP3      18143           0.0000000000
     76682     18336  TIP3      OH2            -6.1428952708       18.6995572014      -33.5566416929  TIP3      18144           0.0000000000
     76683     18336  TIP3      H1             -5.4997955049       18.0074287328      -33.8479620872  TIP3      18144           0.0000000000
     76684     18336  TIP3      H2             -6.3653166690       18.3592096740      -32.6906301794  TIP3      18144           0.0000000000
     76685     18337  TIP3      OH2            -8.5790007416       12.9864433183      -31.6099180591  TIP3      18145           0.0000000000
     76686     18337  TIP3      H1             -8.2416292354       12.3615422175      -32.2694004091  TIP3      18145           0.0000000000
     76687     18337  TIP3      H2             -7.7686866974       13.1465250351      -31.0952419447  TIP3      18145           0.0000000000
     76688     18338  TIP3      OH2             0.0147399659        4.6528984334      -30.8887771371  TIP3      18146           0.0000000000
     76689     18338  TIP3      H1              0.1935607131        5.2371805199      -30.1205376475  TIP3      18146           0.0000000000
     76690     18338  TIP3      H2              0.5847177466        5.0721891757      -31.5490579917  TIP3      18146           0.0000000000
     76691     18339  TIP3      OH2            -5.4120175750        7.4589076357      -31.2974519927  TIP3      18147           0.0000000000
     76692     18339  TIP3      H1             -5.2446521585        6.4997451476      -31.2902225454  TIP3      18147           0.0000000000
     76693     18339  TIP3      H2             -5.5151185483        7.5976893349      -32.2583892351  TIP3      18147           0.0000000000
     76694     18340  TIP3      OH2           -12.2974218121        5.5468080331      -34.0830665077  TIP3      18148           0.0000000000
     76695     18340  TIP3      H1            -12.1906676204        6.3813259168      -34.5756832597  TIP3      18148           0.0000000000
     76696     18340  TIP3      H2            -12.6965793519        4.9733606667      -34.7722584406  TIP3      18148           0.0000000000
     76697     18341  TIP3      OH2            -4.5619697152        5.6229692325      -35.7108855739  TIP3      18149           0.0000000000
     76698     18341  TIP3      H1             -3.9110035944        5.3100105156      -35.0406993390  TIP3      18149           0.0000000000
     76699     18341  TIP3      H2             -3.9976674071        6.2040020859      -36.2418172634  TIP3      18149           0.0000000000
     76700     18342  TIP3      OH2           -15.6528931653        7.9491959565      -33.3532599143  TIP3      18150           0.0000000000
     76701     18342  TIP3      H1            -14.9930048016        7.4010412658      -32.8927831043  TIP3      18150           0.0000000000
     76702     18342  TIP3      H2            -15.5567218711        7.6341789204      -34.2641890527  TIP3      18150           0.0000000000
     76703     18343  TIP3      OH2           -10.5178171559        9.5134379889      -34.0264392971  TIP3      18151           0.0000000000
     76704     18343  TIP3      H1             -9.8440490216        8.9323481620      -33.6338613293  TIP3      18151           0.0000000000
     76705     18343  TIP3      H2            -11.0330705984        8.8550213109      -34.5335014710  TIP3      18151           0.0000000000
     76706     18344  TIP3      OH2             0.4531634171        6.0389445830      -28.6001921656  TIP3      18152           0.0000000000
     76707     18344  TIP3      H1             -0.1348224737        6.8223467858      -28.7131644404  TIP3      18152           0.0000000000
     76708     18344  TIP3      H2              0.5034209834        5.9752836914      -27.6378808451  TIP3      18152           0.0000000000
     76709     18345  TIP3      OH2           -13.3865762152        4.4460112043      -30.0410008295  TIP3      18153           0.0000000000
     76710     18345  TIP3      H1            -13.6684769709        5.0169609194      -30.7881516149  TIP3      18153           0.0000000000
     76711     18345  TIP3      H2            -14.0670516630        4.6749337043      -29.3616130185  TIP3      18153           0.0000000000
     76712     18346  TIP3      OH2            -6.1015630490       13.9244054469      -36.4964827150  TIP3      18154           0.0000000000
     76713     18346  TIP3      H1             -6.3636032895       13.6537057508      -37.3857033689  TIP3      18154           0.0000000000
     76714     18346  TIP3      H2             -6.4080027280       14.8592597531      -36.4451051402  TIP3      18154           0.0000000000
     76715     18347  TIP3      OH2           -10.8776787301       12.0893430239      -29.8038754973  TIP3      18155           0.0000000000
     76716     18347  TIP3      H1            -11.5819303368       12.7339641686      -29.5821401401  TIP3      18155           0.0000000000
     76717     18347  TIP3      H2            -10.1689101192       12.6869192937      -30.0925403351  TIP3      18155           0.0000000000
     76718     18348  TIP3      OH2            -2.7497974811        4.9737690140      -33.7216430628  TIP3      18156           0.0000000000
     76719     18348  TIP3      H1             -2.9693355571        4.2058452144      -33.1861755832  TIP3      18156           0.0000000000
     76720     18348  TIP3      H2             -2.0833150796        5.4145926019      -33.1685293918  TIP3      18156           0.0000000000
     76721     18349  TIP3      OH2           -13.8141945292        6.2937652670      -32.0035431988  TIP3      18157           0.0000000000
     76722     18349  TIP3      H1            -13.1928714544        6.9909268050      -31.6966579992  TIP3      18157           0.0000000000
     76723     18349  TIP3      H2            -13.3029533909        5.8901949176      -32.7472238589  TIP3      18157           0.0000000000
     76724     18350  TIP3      OH2           -12.4247185730       14.0990161158      -28.9782476149  TIP3      18158           0.0000000000
     76725     18350  TIP3      H1            -12.4814685751       15.0097358326      -29.3194719623  TIP3      18158           0.0000000000
     76726     18350  TIP3      H2            -13.3084813721       14.0134445503      -28.5386710975  TIP3      18158           0.0000000000
     76727     18351  TIP3      OH2           -16.3555001237       13.7072451403      -38.1932366338  TIP3      18159           0.0000000000
     76728     18351  TIP3      H1            -16.5939923929       14.0622474339      -39.0674583202  TIP3      18159           0.0000000000
     76729     18351  TIP3      H2            -16.2601781047       14.5378904224      -37.6807434511  TIP3      18159           0.0000000000
     76730     18352  TIP3      OH2            -2.7401970177       15.3758684379      -31.4317546090  TIP3      18160           0.0000000000
     76731     18352  TIP3      H1             -3.7083587604       15.4877397545      -31.3108182595  TIP3      18160           0.0000000000
     76732     18352  TIP3      H2             -2.4705827356       16.2917560153      -31.6339631853  TIP3      18160           0.0000000000
     76733     18353  TIP3      OH2            -2.4171008694        3.6567413181      -30.0420592497  TIP3      18161           0.0000000000
     76734     18353  TIP3      H1             -3.1410393460        4.2911246197      -30.1337175921  TIP3      18161           0.0000000000
     76735     18353  TIP3      H2             -1.7036772521        4.0770922475      -30.5651568369  TIP3      18161           0.0000000000
     76736     18354  TIP3      OH2            -9.4520105042        1.7809957340      -32.5767895904  TIP3      18162           0.0000000000
     76737     18354  TIP3      H1             -9.5943766034        0.8173341884      -32.6525706338  TIP3      18162           0.0000000000
     76738     18354  TIP3      H2            -10.3303100788        2.0858472529      -32.2702605592  TIP3      18162           0.0000000000
     76739     18355  TIP3      OH2            -4.4789529413       17.1609998095      -34.8451300311  TIP3      18163           0.0000000000
     76740     18355  TIP3      H1             -4.0519947756       16.4404995460      -35.3525966784  TIP3      18163           0.0000000000
     76741     18355  TIP3      H2             -4.0446229393       17.9492616575      -35.2351210718  TIP3      18163           0.0000000000
     76742     18356  TIP3      OH2            -3.2649876227       15.0864042377      -36.3235899679  TIP3      18164           0.0000000000
     76743     18356  TIP3      H1             -3.5682941682       14.3899698065      -36.9275013820  TIP3      18164           0.0000000000
     76744     18356  TIP3      H2             -3.2329713994       14.5957324095      -35.4827555794  TIP3      18164           0.0000000000
     76745     18357  TIP3      OH2            -1.6601095821       13.6866894801      -27.8300346152  TIP3      18165           0.0000000000
     76746     18357  TIP3      H1             -1.5062245256       13.0232039522      -28.5382255871  TIP3      18165           0.0000000000
     76747     18357  TIP3      H2             -1.4434722720       14.5252456120      -28.2759606592  TIP3      18165           0.0000000000
     76748     18358  TIP3      OH2            -7.1536719952       10.5670364688      -38.0706703545  TIP3      18166           0.0000000000
     76749     18358  TIP3      H1             -7.8463404460       11.1482228886      -38.4317459979  TIP3      18166           0.0000000000
     76750     18358  TIP3      H2             -6.4433291647       10.6651853807      -38.7309546925  TIP3      18166           0.0000000000
     76751     18359  TIP3      OH2            -7.0724075350        9.1400496778      -41.0597753699  TIP3      18167           0.0000000000
     76752     18359  TIP3      H1             -6.3679917037        9.1215451004      -40.3943790284  TIP3      18167           0.0000000000
     76753     18359  TIP3      H2             -6.7666868301        8.4215803566      -41.6282515970  TIP3      18167           0.0000000000
     76754     18360  TIP3      OH2             0.2309768560        9.9895629556      -29.8033280563  TIP3      18168           0.0000000000
     76755     18360  TIP3      H1             -0.4223776149       10.7163363657      -29.7481240389  TIP3      18168           0.0000000000
     76756     18360  TIP3      H2              0.7326327267       10.2325891437      -30.6016364913  TIP3      18168           0.0000000000
     76757     18361  TIP3      OH2            -3.6960818474       10.7778196467      -37.1502325973  TIP3      18169           0.0000000000
     76758     18361  TIP3      H1             -4.4425124971       11.0230004507      -36.5505697517  TIP3      18169           0.0000000000
     76759     18361  TIP3      H2             -3.2296154969       10.1041060334      -36.6251691209  TIP3      18169           0.0000000000
     76760     18362  TIP3      OH2            -3.7885019947        8.9417496106      -28.0300397471  TIP3      18170           0.0000000000
     76761     18362  TIP3      H1             -3.7568504115        9.7497514755      -27.4865585126  TIP3      18170           0.0000000000
     76762     18362  TIP3      H2             -4.4127244163        9.2513092277      -28.7140269480  TIP3      18170           0.0000000000
     76763     18363  TIP3      OH2           -12.0935551179       11.4393697566      -35.2289824663  TIP3      18171           0.0000000000
     76764     18363  TIP3      H1            -12.4143145068       11.0504982623      -36.0783562771  TIP3      18171           0.0000000000
     76765     18363  TIP3      H2            -11.4788631923       10.7488324140      -34.8953012928  TIP3      18171           0.0000000000
     76766     18364  TIP3      OH2           -10.7790131624       14.8221892160      -32.5453164685  TIP3      18172           0.0000000000
     76767     18364  TIP3      H1            -10.7792256708       14.3020731658      -33.3604408623  TIP3      18172           0.0000000000
     76768     18364  TIP3      H2             -9.9913678074       14.4664963076      -32.0914498579  TIP3      18172           0.0000000000
     76769     18365  TIP3      OH2           -11.7659929025       10.1878019219      -31.5666395594  TIP3      18173           0.0000000000
     76770     18365  TIP3      H1            -11.2171184099       10.2857969449      -32.3692842354  TIP3      18173           0.0000000000
     76771     18365  TIP3      H2            -11.3737088194       10.8524409056      -30.9577666538  TIP3      18173           0.0000000000
     76772     18366  TIP3      OH2            -5.3424323983       15.7596366340      -30.8588384088  TIP3      18174           0.0000000000
     76773     18366  TIP3      H1             -5.6349335495       16.3968519884      -30.2003907000  TIP3      18174           0.0000000000
     76774     18366  TIP3      H2             -5.6032033307       14.9073549960      -30.4384350826  TIP3      18174           0.0000000000
     76775     18367  TIP3      OH2           -10.8294480407       14.6021917665      -26.8370697955  TIP3      18175           0.0000000000
     76776     18367  TIP3      H1            -11.2250540314       15.3816970176      -26.4071088663  TIP3      18175           0.0000000000
     76777     18367  TIP3      H2            -11.4760576251       14.4132762265      -27.5596093486  TIP3      18175           0.0000000000
     76778     18368  TIP3      OH2            -4.8274246237        9.9863247674      -39.4826027964  TIP3      18176           0.0000000000
     76779     18368  TIP3      H1             -4.2713688250       10.1584378134      -38.6822079178  TIP3      18176           0.0000000000
     76780     18368  TIP3      H2             -4.3759306585       10.4798196113      -40.2037334984  TIP3      18176           0.0000000000
     76781     18369  TIP3      OH2           -13.8754368259       10.7901831292      -27.7287471540  TIP3      18177           0.0000000000
     76782     18369  TIP3      H1            -13.8210214369       11.4426198809      -27.0030741933  TIP3      18177           0.0000000000
     76783     18369  TIP3      H2            -14.8199551363       10.8701059561      -27.9342368618  TIP3      18177           0.0000000000
     76784     18370  TIP3      OH2            -7.1158878000       16.7063377303      -36.0093419615  TIP3      18178           0.0000000000
     76785     18370  TIP3      H1             -6.6848754793       17.0132317027      -35.2030159672  TIP3      18178           0.0000000000
     76786     18370  TIP3      H2             -7.6737962567       17.4548235074      -36.2480398669  TIP3      18178           0.0000000000
     76787     18371  TIP3      OH2           -12.5924687606       16.6132003292      -26.1411892694  TIP3      18179           0.0000000000
     76788     18371  TIP3      H1            -12.6369745322       16.5354715745      -27.1115934483  TIP3      18179           0.0000000000
     76789     18371  TIP3      H2            -13.5275819088       16.5074691726      -25.8778129826  TIP3      18179           0.0000000000
     76790     18372  TIP3      OH2            -1.1043819585        1.7141255774      -39.5774553800  TIP3      18180           0.0000000000
     76791     18372  TIP3      H1             -2.0510408157        1.8297318952      -39.3374017292  TIP3      18180           0.0000000000
     76792     18372  TIP3      H2             -0.9021506442        2.5549173545      -40.0215061419  TIP3      18180           0.0000000000
     76793     18373  TIP3      OH2           -13.1349567493       10.4587371600      -37.5972796139  TIP3      18181           0.0000000000
     76794     18373  TIP3      H1            -13.4116442655       11.2428514358      -38.1186127222  TIP3      18181           0.0000000000
     76795     18373  TIP3      H2            -13.7805773299        9.7948416600      -37.8455427941  TIP3      18181           0.0000000000
     76796     18374  TIP3      OH2             0.0091530420       16.0674599780      -41.2290592041  TIP3      18182           0.0000000000
     76797     18374  TIP3      H1              0.1752133131       17.0104800096      -41.0595550887  TIP3      18182           0.0000000000
     76798     18374  TIP3      H2              0.9325763372       15.7544951521      -41.2322872583  TIP3      18182           0.0000000000
     76799     18375  TIP3      OH2           -16.9996170136       12.8914318392      -28.7402743206  TIP3      18183           0.0000000000
     76800     18375  TIP3      H1            -17.4785054282       12.8131721706      -29.5898644476  TIP3      18183           0.0000000000
     76801     18375  TIP3      H2            -16.9708279637       11.9442890683      -28.5111428826  TIP3      18183           0.0000000000
     76802     18376  TIP3      OH2           -17.2549126840       15.6667864073      -31.9633091168  TIP3      18184           0.0000000000
     76803     18376  TIP3      H1            -16.3034387256       15.5155814970      -31.9561916733  TIP3      18184           0.0000000000
     76804     18376  TIP3      H2            -17.3456082501       16.4595329161      -31.4241500066  TIP3      18184           0.0000000000
     76805     18377  TIP3      OH2             0.9701425304       16.3238965337      -26.3191131004  TIP3      18185           0.0000000000
     76806     18377  TIP3      H1              0.8373672849       15.3695832582      -26.2609044255  TIP3      18185           0.0000000000
     76807     18377  TIP3      H2              0.1284370380       16.6005044591      -25.8736033694  TIP3      18185           0.0000000000
     76808     18378  TIP3      OH2            -8.0836026318       15.8702668382      -27.4038359303  TIP3      18186           0.0000000000
     76809     18378  TIP3      H1             -8.0135947117       16.7091900593      -26.8837363016  TIP3      18186           0.0000000000
     76810     18378  TIP3      H2             -8.9482051297       15.5136548276      -27.1268917268  TIP3      18186           0.0000000000
     76811     18379  TIP3      OH2            -7.6325896381       19.6145526476      -37.5986374960  TIP3      18187           0.0000000000
     76812     18379  TIP3      H1             -7.7463502345       19.5364864723      -38.5632368131  TIP3      18187           0.0000000000
     76813     18379  TIP3      H2             -7.6324045452       20.5768348806      -37.4419668754  TIP3      18187           0.0000000000
     76814     18380  TIP3      OH2           -13.8247012191       18.3590864519      -35.4492347085  TIP3      18188           0.0000000000
     76815     18380  TIP3      H1            -13.9135478829       17.9199343598      -34.5926274087  TIP3      18188           0.0000000000
     76816     18380  TIP3      H2            -14.6592837007       18.1957383749      -35.9360112112  TIP3      18188           0.0000000000
     76817     18381  TIP3      OH2            -4.5809027617       18.8280929408      -40.6140356107  TIP3      18189           0.0000000000
     76818     18381  TIP3      H1             -4.1261942230       18.0695541192      -41.0483611843  TIP3      18189           0.0000000000
     76819     18381  TIP3      H2             -4.5408685254       18.5664733897      -39.6707776870  TIP3      18189           0.0000000000
     76820     18382  TIP3      OH2            -4.8777031417       18.7661383475      -37.8348153301  TIP3      18190           0.0000000000
     76821     18382  TIP3      H1             -5.8411114465       18.8390644443      -37.6706428794  TIP3      18190           0.0000000000
     76822     18382  TIP3      H2             -4.6495642486       18.0192551433      -37.2606491787  TIP3      18190           0.0000000000
     76823     18383  TIP3      OH2            -1.8534392308        7.7852049699      -25.8302228149  TIP3      18191           0.0000000000
     76824     18383  TIP3      H1             -2.3764737471        8.2584295080      -26.4935882858  TIP3      18191           0.0000000000
     76825     18383  TIP3      H2             -1.9084210096        6.8631472360      -26.1073748197  TIP3      18191           0.0000000000
     76826     18384  TIP3      OH2           -14.7481474566       14.2042891746      -27.7692110407  TIP3      18192           0.0000000000
     76827     18384  TIP3      H1            -14.5357169768       13.8396067509      -26.8840904691  TIP3      18192           0.0000000000
     76828     18384  TIP3      H2            -15.6178668870       13.8061634229      -27.9904260702  TIP3      18192           0.0000000000
     76829     18385  TIP3      OH2           -12.0674873483        2.6846967546      -31.8274745824  TIP3      18193           0.0000000000
     76830     18385  TIP3      H1            -12.9703295092        2.5567434359      -32.1933241348  TIP3      18193           0.0000000000
     76831     18385  TIP3      H2            -12.2021541983        3.5143659532      -31.3404245840  TIP3      18193           0.0000000000
     76832     18386  TIP3      OH2            -7.4183172586        2.3423696168      -28.4512720811  TIP3      18194           0.0000000000
     76833     18386  TIP3      H1             -7.0409711731        1.9237053328      -27.6551928902  TIP3      18194           0.0000000000
     76834     18386  TIP3      H2             -8.3936360658        2.2353828793      -28.3156025499  TIP3      18194           0.0000000000
     76835     18387  TIP3      OH2            -4.1730971128        6.1857778682      -27.6255058368  TIP3      18195           0.0000000000
     76836     18387  TIP3      H1             -4.6751168421        5.9858026836      -26.7952078857  TIP3      18195           0.0000000000
     76837     18387  TIP3      H2             -4.3015641482        7.1357129517      -27.7863021045  TIP3      18195           0.0000000000
     76838     18388  TIP3      OH2            -3.3807826322       11.0175928117      -41.6685312299  TIP3      18196           0.0000000000
     76839     18388  TIP3      H1             -3.4005404797       10.8231154748      -42.6343980391  TIP3      18196           0.0000000000
     76840     18388  TIP3      H2             -2.5207069343       11.4583270438      -41.6154248183  TIP3      18196           0.0000000000
     76841     18389  TIP3      OH2            -7.7845008663        4.9375385062      -41.1561923630  TIP3      18197           0.0000000000
     76842     18389  TIP3      H1             -8.0988649555        4.8741205366      -40.2358275087  TIP3      18197           0.0000000000
     76843     18389  TIP3      H2             -8.0923263891        4.0599444312      -41.4621149136  TIP3      18197           0.0000000000
     76844     18390  TIP3      OH2           -11.9619135148        7.6618001404      -30.5620910865  TIP3      18198           0.0000000000
     76845     18390  TIP3      H1            -12.7053641109        7.6479994204      -29.9342272544  TIP3      18198           0.0000000000
     76846     18390  TIP3      H2            -12.0140574097        8.5665846172      -30.9447824585  TIP3      18198           0.0000000000
     76847     18391  TIP3      OH2           -12.0059851247        7.7702179854      -35.7075456669  TIP3      18199           0.0000000000
     76848     18391  TIP3      H1            -12.9454054732        7.5240787446      -35.8385650975  TIP3      18199           0.0000000000
     76849     18391  TIP3      H2            -11.6309697913        7.4821795205      -36.5640544494  TIP3      18199           0.0000000000
     76850     18392  TIP3      OH2            -6.4864412145        8.2775717528      -36.9294344751  TIP3      18200           0.0000000000
     76851     18392  TIP3      H1             -6.8796251170        9.0997267203      -37.3028168067  TIP3      18200           0.0000000000
     76852     18392  TIP3      H2             -5.7998186275        8.1074432553      -37.5958389341  TIP3      18200           0.0000000000
     76853     18393  TIP3      OH2            -7.3938457847        8.4792553283      -25.5216392719  TIP3      18201           0.0000000000
     76854     18393  TIP3      H1             -7.9702968575        7.7463157443      -25.1910540308  TIP3      18201           0.0000000000
     76855     18393  TIP3      H2             -6.5830376842        8.3461812484      -25.0191426113  TIP3      18201           0.0000000000
     76856     18394  TIP3      OH2            -5.4501223694        7.7693926342      -34.0937539146  TIP3      18202           0.0000000000
     76857     18394  TIP3      H1             -5.7367003109        8.3308047939      -34.8336987148  TIP3      18202           0.0000000000
     76858     18394  TIP3      H2             -5.3569717068        6.9180171856      -34.5616461791  TIP3      18202           0.0000000000
     76859     18395  TIP3      OH2           -14.3383960506        7.9041624874      -28.8880031089  TIP3      18203           0.0000000000
     76860     18395  TIP3      H1            -14.2567394882        8.3085060754      -28.0065784739  TIP3      18203           0.0000000000
     76861     18395  TIP3      H2            -14.7872964660        7.0692023868      -28.6807225532  TIP3      18203           0.0000000000
     76862     18396  TIP3      OH2           -10.9732958332        5.3035546867      -42.0382655622  TIP3      18204           0.0000000000
     76863     18396  TIP3      H1            -11.4273238718        4.8823144843      -41.2802600540  TIP3      18204           0.0000000000
     76864     18396  TIP3      H2            -11.6830509341        5.7351040982      -42.5294879283  TIP3      18204           0.0000000000
     76865     18397  TIP3      OH2           -17.6860842463        5.0175332917      -34.9037379669  TIP3      18205           0.0000000000
     76866     18397  TIP3      H1            -17.0022604546        4.9757891277      -34.2023742171  TIP3      18205           0.0000000000
     76867     18397  TIP3      H2            -17.2386773933        4.6410023063      -35.6836307270  TIP3      18205           0.0000000000
     76868     18398  TIP3      OH2           -16.4232199606        5.7339095861      -39.5588885279  TIP3      18206           0.0000000000
     76869     18398  TIP3      H1            -15.9087248429        6.3466192296      -40.1154051838  TIP3      18206           0.0000000000
     76870     18398  TIP3      H2            -17.1088200919        6.3580368379      -39.2374544878  TIP3      18206           0.0000000000
     76871     18399  TIP3      OH2            -6.2563858691        9.3513780762      -29.5416013159  TIP3      18207           0.0000000000
     76872     18399  TIP3      H1             -5.8739435295        8.6641803358      -30.1245980616  TIP3      18207           0.0000000000
     76873     18399  TIP3      H2             -6.7218118838        8.8196351531      -28.8711503583  TIP3      18207           0.0000000000
     76874     18400  TIP3      OH2            -9.4536639345        5.3316660097      -34.6952374706  TIP3      18208           0.0000000000
     76875     18400  TIP3      H1            -10.3878803138        5.3319390233      -34.4073926259  TIP3      18208           0.0000000000
     76876     18400  TIP3      H2             -8.9698145441        5.1566154011      -33.8766963350  TIP3      18208           0.0000000000
     76877     18401  TIP3      OH2           -14.6432960710        6.8761975827      -35.8332808128  TIP3      18209           0.0000000000
     76878     18401  TIP3      H1            -15.5256469709        7.0356175983      -36.2278190461  TIP3      18209           0.0000000000
     76879     18401  TIP3      H2            -14.3586566183        6.0433046324      -36.2443542497  TIP3      18209           0.0000000000
     76880     18402  TIP3      OH2           -10.9990571517        6.9250758046      -38.2084921727  TIP3      18210           0.0000000000
     76881     18402  TIP3      H1            -10.0432040725        7.0365374284      -38.0474917694  TIP3      18210           0.0000000000
     76882     18402  TIP3      H2            -11.2361022728        7.6081478076      -38.8630361948  TIP3      18210           0.0000000000
     76883     18403  TIP3      OH2            -5.0453477789        4.5641737424      -31.4659478481  TIP3      18211           0.0000000000
     76884     18403  TIP3      H1             -5.7275138053        4.6129873575      -30.7582224587  TIP3      18211           0.0000000000
     76885     18403  TIP3      H2             -5.5566529244        4.3073761566      -32.2468257432  TIP3      18211           0.0000000000
     76886     18404  TIP3      OH2           -12.2918809843        8.1017378072      -40.6205127400  TIP3      18212           0.0000000000
     76887     18404  TIP3      H1            -12.8261085737        7.7225745517      -41.3392793235  TIP3      18212           0.0000000000
     76888     18404  TIP3      H2            -11.4701827601        8.3048397702      -41.0946675037  TIP3      18212           0.0000000000
     76889     18405  TIP3      OH2            -1.8520650415       20.2198950184      -25.1299010094  TIP3      18213           0.0000000000
     76890     18405  TIP3      H1             -1.5462610290       20.5690822394      -25.9840598360  TIP3      18213           0.0000000000
     76891     18405  TIP3      H2             -1.1256954834       20.4866899676      -24.5378462797  TIP3      18213           0.0000000000
     76892     18406  TIP3      OH2           -14.1744254666       12.6775159923      -25.5576439459  TIP3      18214           0.0000000000
     76893     18406  TIP3      H1            -13.4582892632       12.9379904149      -24.9641124317  TIP3      18214           0.0000000000
     76894     18406  TIP3      H2            -14.9480194655       12.7667319292      -24.9584202952  TIP3      18214           0.0000000000
     76895     18407  TIP3      OH2            -8.1710230061        8.0843258025      -32.8103223538  TIP3      18215           0.0000000000
     76896     18407  TIP3      H1             -7.5695147892        7.5515630720      -33.3440074009  TIP3      18215           0.0000000000
     76897     18407  TIP3      H2             -8.3153345060        7.5348359576      -32.0280481781  TIP3      18215           0.0000000000
     76898     18408  TIP3      OH2           -13.1593538223        4.2291905982      -36.3731597733  TIP3      18216           0.0000000000
     76899     18408  TIP3      H1            -13.4692838612        3.3053075239      -36.3806505580  TIP3      18216           0.0000000000
     76900     18408  TIP3      H2            -12.3689216331        4.1612510315      -36.9223270079  TIP3      18216           0.0000000000
     76901     18409  TIP3      OH2            -9.5324133182        6.4125424729      -30.3962699225  TIP3      18217           0.0000000000
     76902     18409  TIP3      H1            -10.3563186185        6.9310398508      -30.3070358788  TIP3      18217           0.0000000000
     76903     18409  TIP3      H2             -8.9751953130        6.7634626307      -29.6742607576  TIP3      18217           0.0000000000
     76904     18410  TIP3      OH2            -8.9422141926       12.6352914496      -38.6987941668  TIP3      18218           0.0000000000
     76905     18410  TIP3      H1             -9.7420008598       12.1693318113      -39.0338061365  TIP3      18218           0.0000000000
     76906     18410  TIP3      H2             -9.1697818803       12.7622315306      -37.7549543219  TIP3      18218           0.0000000000
     76907     18411  TIP3      OH2            -1.7564783383       11.8378844022      -29.9052904708  TIP3      18219           0.0000000000
     76908     18411  TIP3      H1             -1.1926150179       12.3220547985      -30.5347628926  TIP3      18219           0.0000000000
     76909     18411  TIP3      H2             -2.6177518680       11.8831632068      -30.3660979920  TIP3      18219           0.0000000000
     76910     18412  TIP3      OH2            -5.1144196251        5.4474146368      -40.5232181626  TIP3      18220           0.0000000000
     76911     18412  TIP3      H1             -6.0652137133        5.6018791448      -40.6584600906  TIP3      18220           0.0000000000
     76912     18412  TIP3      H2             -4.7730408107        6.2985268519      -40.1731287545  TIP3      18220           0.0000000000
     76913     18413  TIP3      OH2            -7.4687855029       12.9058141645      -27.4668906752  TIP3      18221           0.0000000000
     76914     18413  TIP3      H1             -7.7864515781       12.4811953468      -26.6564510925  TIP3      18221           0.0000000000
     76915     18413  TIP3      H2             -7.7064376289       13.8298475779      -27.3478519954  TIP3      18221           0.0000000000
     76916     18414  TIP3      OH2            -4.3765798173        7.3707070769      -38.9006932314  TIP3      18222           0.0000000000
     76917     18414  TIP3      H1             -3.4949609627        7.2361696386      -38.4904603007  TIP3      18222           0.0000000000
     76918     18414  TIP3      H2             -4.2709288144        8.1904862389      -39.4096020375  TIP3      18222           0.0000000000
     76919     18415  TIP3      OH2           -13.8265664946       12.0328651124      -32.8972174806  TIP3      18223           0.0000000000
     76920     18415  TIP3      H1            -13.1517725743       11.9457827656      -33.5988284712  TIP3      18223           0.0000000000
     76921     18415  TIP3      H2            -13.7735304456       11.1721300533      -32.4428738160  TIP3      18223           0.0000000000
     76922     18416  TIP3      OH2            -6.8487231205       14.1055586017      -39.6656150293  TIP3      18224           0.0000000000
     76923     18416  TIP3      H1             -7.1972456767       14.9491043512      -39.3082137689  TIP3      18224           0.0000000000
     76924     18416  TIP3      H2             -7.5766916192       13.4849327939      -39.4468319035  TIP3      18224           0.0000000000
     76925     18417  TIP3      OH2           -16.8461215237       10.4271922491      -27.6655557916  TIP3      18225           0.0000000000
     76926     18417  TIP3      H1            -16.6860420509        9.9998633879      -26.8013330223  TIP3      18225           0.0000000000
     76927     18417  TIP3      H2            -17.4909612491        9.8293848056      -28.0891856937  TIP3      18225           0.0000000000
     76928     18418  TIP3      OH2            -9.8230970173       10.0035298890      -25.4520020564  TIP3      18226           0.0000000000
     76929     18418  TIP3      H1            -10.1360705975        9.6834711712      -26.3085181408  TIP3      18226           0.0000000000
     76930     18418  TIP3      H2             -8.9030030511        9.6908558796      -25.4381025480  TIP3      18226           0.0000000000
     76931     18419  TIP3      OH2            -5.1570398337       15.3150508372      -27.4952450111  TIP3      18227           0.0000000000
     76932     18419  TIP3      H1             -6.0771897051       15.5056318333      -27.7411899724  TIP3      18227           0.0000000000
     76933     18419  TIP3      H2             -5.1766480668       15.6153404683      -26.5641772962  TIP3      18227           0.0000000000
     76934     18420  TIP3      OH2             0.5280689346        7.5001004323      -39.1228359894  TIP3      18228           0.0000000000
     76935     18420  TIP3      H1             -0.0441679269        7.2193534865      -39.8608040374  TIP3      18228           0.0000000000
     76936     18420  TIP3      H2              0.6014705246        8.4502361545      -39.3706580281  TIP3      18228           0.0000000000
     76937     18421  TIP3      OH2             0.5234855612       13.3512338824      -26.3150617627  TIP3      18229           0.0000000000
     76938     18421  TIP3      H1             -0.3647533581       13.5751048076      -26.6827121430  TIP3      18229           0.0000000000
     76939     18421  TIP3      H2              1.0611338785       13.3040419616      -27.1305245168  TIP3      18229           0.0000000000
     76940     18422  TIP3      OH2            -1.2224296885       16.3361849879      -38.7261437028  TIP3      18230           0.0000000000
     76941     18422  TIP3      H1             -1.5523785983       15.4987375983      -38.3762814223  TIP3      18230           0.0000000000
     76942     18422  TIP3      H2             -0.8664107104       16.1167756783      -39.6028666644  TIP3      18230           0.0000000000
     76943     18423  TIP3      OH2            -3.9802224428       11.1511109092      -31.6133703637  TIP3      18231           0.0000000000
     76944     18423  TIP3      H1             -4.9212435056       10.9396683874      -31.7230845323  TIP3      18231           0.0000000000
     76945     18423  TIP3      H2             -3.5476218759       10.3932005617      -32.0503065869  TIP3      18231           0.0000000000
     76946     18424  TIP3      OH2           -11.4531068946       15.4825668306      -35.5129065282  TIP3      18232           0.0000000000
     76947     18424  TIP3      H1            -10.9740153078       16.3013958532      -35.7238555322  TIP3      18232           0.0000000000
     76948     18424  TIP3      H2            -12.3345859611       15.7241664572      -35.8417877166  TIP3      18232           0.0000000000
     76949     18425  TIP3      OH2           -15.6922804951       10.3229059423      -40.9447583130  TIP3      18233           0.0000000000
     76950     18425  TIP3      H1            -15.1131032373       10.9863177408      -40.5324859832  TIP3      18233           0.0000000000
     76951     18425  TIP3      H2            -16.5829353829       10.6345865670      -40.6936405619  TIP3      18233           0.0000000000
     76952     18426  TIP3      OH2           -10.0483232139       13.1492126405      -36.0054940826  TIP3      18234           0.0000000000
     76953     18426  TIP3      H1            -10.3560856561       14.0686864943      -35.9018163653  TIP3      18234           0.0000000000
     76954     18426  TIP3      H2            -10.7602183609       12.6553124713      -35.5529644295  TIP3      18234           0.0000000000
     76955     18427  TIP3      OH2            -9.5912808576       17.3323394582      -29.5833281721  TIP3      18235           0.0000000000
     76956     18427  TIP3      H1             -9.1356238015       18.1374210142      -29.8710142262  TIP3      18235           0.0000000000
     76957     18427  TIP3      H2             -8.9761840485       16.9908915265      -28.9096735428  TIP3      18235           0.0000000000
     76958     18428  TIP3      OH2           -11.3467920441       18.1195720463      -36.4588653225  TIP3      18236           0.0000000000
     76959     18428  TIP3      H1            -12.3214380146       18.2585539618      -36.3392214734  TIP3      18236           0.0000000000
     76960     18428  TIP3      H2            -11.0135370565       18.9759218512      -36.1312082280  TIP3      18236           0.0000000000
     76961     18429  TIP3      OH2            -6.0753091689       13.3268574864      -29.9698104407  TIP3      18237           0.0000000000
     76962     18429  TIP3      H1             -6.3964879836       13.1383137319      -29.0633783943  TIP3      18237           0.0000000000
     76963     18429  TIP3      H2             -5.4318275902       12.6193526932      -30.1353965549  TIP3      18237           0.0000000000
     76964     18430  TIP3      OH2            -3.7298545303       14.4090447860      -40.8783218333  TIP3      18238           0.0000000000
     76965     18430  TIP3      H1             -3.4359629410       13.9339285198      -40.0747549366  TIP3      18238           0.0000000000
     76966     18430  TIP3      H2             -4.6835318546       14.2237067494      -40.7976849202  TIP3      18238           0.0000000000
     76967     18431  TIP3      OH2            -3.2544467230       17.9142188827      -27.4895632310  TIP3      18239           0.0000000000
     76968     18431  TIP3      H1             -3.9512157932       17.4188213661      -27.9535252376  TIP3      18239           0.0000000000
     76969     18431  TIP3      H2             -3.0759523461       18.6201684529      -28.1470583189  TIP3      18239           0.0000000000
     76970     18432  TIP3      OH2             0.7310570292       18.7587880662      -40.6228556591  TIP3      18240           0.0000000000
     76971     18432  TIP3      H1              1.4189332644       19.4236339859      -40.8285080775  TIP3      18240           0.0000000000
     76972     18432  TIP3      H2              0.0161862093       19.3701280729      -40.3373577332  TIP3      18240           0.0000000000
     76973     18433  TIP3      OH2           -15.1988638684        5.1609484020      -28.1046306557  TIP3      18241           0.0000000000
     76974     18433  TIP3      H1            -16.1021482987        5.5174945193      -28.1085886105  TIP3      18241           0.0000000000
     76975     18433  TIP3      H2            -15.2984040182        4.3269416236      -27.6177117652  TIP3      18241           0.0000000000
     76976     18434  TIP3      OH2            -2.9563579270       13.0410759610      -38.6360715236  TIP3      18242           0.0000000000
     76977     18434  TIP3      H1             -3.1946648946       12.2540590931      -38.0987942655  TIP3      18242           0.0000000000
     76978     18434  TIP3      H2             -2.0036483566       13.0840833620      -38.4581945167  TIP3      18242           0.0000000000
     76979     18435  TIP3      OH2           -15.5772919366       16.9456255824      -29.6583943121  TIP3      18243           0.0000000000
     76980     18435  TIP3      H1            -15.2809140875       16.0238576853      -29.6511772892  TIP3      18243           0.0000000000
     76981     18435  TIP3      H2            -15.3163122504       17.2402617314      -28.7798721642  TIP3      18243           0.0000000000
     76982     18436  TIP3      OH2            -9.6037251530       15.4779722164      -42.3822954229  TIP3      18244           0.0000000000
     76983     18436  TIP3      H1             -9.5040836434       14.7138216398      -42.9722492155  TIP3      18244           0.0000000000
     76984     18436  TIP3      H2            -10.0455230729       15.0478340145      -41.6176383300  TIP3      18244           0.0000000000
     76985     18437  TIP3      OH2           -10.8301669333       15.0101997488      -39.9292016860  TIP3      18245           0.0000000000
     76986     18437  TIP3      H1            -10.5610705338       14.4917983408      -39.1611392939  TIP3      18245           0.0000000000
     76987     18437  TIP3      H2            -10.7396243134       15.9360428331      -39.6019548817  TIP3      18245           0.0000000000
     76988     18438  TIP3      OH2           -14.2793849766       12.2340036079      -39.4386638092  TIP3      18246           0.0000000000
     76989     18438  TIP3      H1            -15.0016778380       12.6368846000      -38.9122090125  TIP3      18246           0.0000000000
     76990     18438  TIP3      H2            -13.7846165862       13.0188833670      -39.7412616892  TIP3      18246           0.0000000000
     76991     18439  TIP3      OH2            -6.4561423599        4.9375539332      -29.1493841881  TIP3      18247           0.0000000000
     76992     18439  TIP3      H1             -5.7490210875        5.0006811484      -28.4946396788  TIP3      18247           0.0000000000
     76993     18439  TIP3      H2             -6.8438276089        4.0666999983      -28.9349764810  TIP3      18247           0.0000000000
     76994     18440  TIP3      OH2            -5.7183643972        4.5067456094      -38.0393113457  TIP3      18248           0.0000000000
     76995     18440  TIP3      H1             -5.4857302029        4.9706322253      -38.8683253684  TIP3      18248           0.0000000000
     76996     18440  TIP3      H2             -5.1398902050        4.9502395329      -37.4059620381  TIP3      18248           0.0000000000
     76997     18441  TIP3      OH2            -8.0236863461       16.6668801456      -39.2343789507  TIP3      18249           0.0000000000
     76998     18441  TIP3      H1             -8.8442880295       17.1985639021      -39.1624609931  TIP3      18249           0.0000000000
     76999     18441  TIP3      H2             -7.4878178811       17.2189677457      -39.8215311302  TIP3      18249           0.0000000000
     77000     18442  TIP3      OH2            -8.4846724690        6.2593544191      -37.2194574246  TIP3      18250           0.0000000000
     77001     18442  TIP3      H1             -7.7041837107        6.8449071884      -37.1712910636  TIP3      18250           0.0000000000
     77002     18442  TIP3      H2             -8.7537289670        6.1338337560      -36.2896864036  TIP3      18250           0.0000000000
     77003     18443  TIP3      OH2            -7.9203856493        7.3019277473      -28.0668702985  TIP3      18251           0.0000000000
     77004     18443  TIP3      H1             -7.8624118942        7.8484376199      -27.2605520494  TIP3      18251           0.0000000000
     77005     18443  TIP3      H2             -7.2758270475        6.5929445268      -27.9450314402  TIP3      18251           0.0000000000
     77006     18444  TIP3      OH2            -7.6393346841        3.3161568905      -36.3405682915  TIP3      18252           0.0000000000
     77007     18444  TIP3      H1             -7.9603192947        3.9634400830      -35.6887363805  TIP3      18252           0.0000000000
     77008     18444  TIP3      H2             -6.9435095763        3.8628412714      -36.7799232391  TIP3      18252           0.0000000000
     77009     18445  TIP3      OH2           -10.5904854704       17.6957902326      -39.2051278207  TIP3      18253           0.0000000000
     77010     18445  TIP3      H1            -10.5372306140       18.5175949270      -39.7514280098  TIP3      18253           0.0000000000
     77011     18445  TIP3      H2            -10.9165071998       18.0581111122      -38.3486576301  TIP3      18253           0.0000000000
     77012     18446  TIP3      OH2           -11.9797314295        4.4233727241      -39.6265619061  TIP3      18254           0.0000000000
     77013     18446  TIP3      H1            -12.0295982454        5.3217970417      -39.2423200797  TIP3      18254           0.0000000000
     77014     18446  TIP3      H2            -11.0703622497        4.1791202793      -39.3637826579  TIP3      18254           0.0000000000
     77015     18447  TIP3      OH2            -1.7589417047        5.1490767245      -27.1652629261  TIP3      18255           0.0000000000
     77016     18447  TIP3      H1             -2.6870411256        5.4636715414      -27.3026642689  TIP3      18255           0.0000000000
     77017     18447  TIP3      H2             -1.4542858780        5.1539738100      -28.0864253251  TIP3      18255           0.0000000000
     77018     18448  TIP3      OH2            -3.1371459958        8.9423976090      -33.1806827971  TIP3      18256           0.0000000000
     77019     18448  TIP3      H1             -3.9637556073        8.4977174201      -33.4510554995  TIP3      18256           0.0000000000
     77020     18448  TIP3      H2             -2.6599036704        8.2562467748      -32.6605627002  TIP3      18256           0.0000000000
     77021     18449  TIP3      OH2           -13.7392458229       14.8444737539      -40.5917786194  TIP3      18257           0.0000000000
     77022     18449  TIP3      H1            -13.0914998327       15.4923894824      -40.2614405653  TIP3      18257           0.0000000000
     77023     18449  TIP3      H2            -13.2105916507       14.3924444883      -41.2789896934  TIP3      18257           0.0000000000
     77024     18450  TIP3      OH2           -15.4019968314        7.5383236182      -41.4403008112  TIP3      18258           0.0000000000
     77025     18450  TIP3      H1            -15.3845917709        8.4964745758      -41.2314353257  TIP3      18258           0.0000000000
     77026     18450  TIP3      H2            -16.2940552641        7.3640987529      -41.7476950845  TIP3      18258           0.0000000000
     77027     18451  TIP3      OH2            -2.0777901028       18.2024372867      -31.5107278770  TIP3      18259           0.0000000000
     77028     18451  TIP3      H1             -2.1649401245       18.8866177480      -32.2022846482  TIP3      18259           0.0000000000
     77029     18451  TIP3      H2             -1.1158833436       18.2566876537      -31.3237320898  TIP3      18259           0.0000000000
     77030     18452  TIP3      OH2           -14.5852975130        2.3224919195      -32.6946658168  TIP3      18260           0.0000000000
     77031     18452  TIP3      H1            -14.7784319631        2.3409522831      -33.6582957594  TIP3      18260           0.0000000000
     77032     18452  TIP3      H2            -14.9996415625        1.4701808400      -32.4444463252  TIP3      18260           0.0000000000
     77033     18453  TIP3      OH2           -15.6458689101       16.2180307969      -36.5765598681  TIP3      18261           0.0000000000
     77034     18453  TIP3      H1            -16.4722327640       16.7191127113      -36.6069609511  TIP3      18261           0.0000000000
     77035     18453  TIP3      H2            -15.1423902694       16.7434085494      -37.2186667655  TIP3      18261           0.0000000000
     77036     18454  TIP3      OH2           -16.4238353845       18.9121737249      -25.2886935682  TIP3      18262           0.0000000000
     77037     18454  TIP3      H1            -15.8453980047       18.6621411762      -24.5588812744  TIP3      18262           0.0000000000
     77038     18454  TIP3      H2            -16.8458055339       18.0576531815      -25.4875513229  TIP3      18262           0.0000000000
     77039     18455  TIP3      OH2           -11.7337935990       17.8164337963      -23.6537179264  TIP3      18263           0.0000000000
     77040     18455  TIP3      H1            -10.9905317538       17.2834377804      -23.3475042594  TIP3      18263           0.0000000000
     77041     18455  TIP3      H2            -11.7891310314       17.5396639031      -24.5860231553  TIP3      18263           0.0000000000
     77042     18456  TIP3      OH2            -7.6093008449       17.3287164097      -42.2590763666  TIP3      18264           0.0000000000
     77043     18456  TIP3      H1             -8.3021098231       16.6698179517      -42.0306050671  TIP3      18264           0.0000000000
     77044     18456  TIP3      H2             -6.8913156075       16.7298829815      -42.5063927380  TIP3      18264           0.0000000000
     77045     18457  TIP3      OH2            -5.1969325600       16.1900295961      -24.9151594875  TIP3      18265           0.0000000000
     77046     18457  TIP3      H1             -5.5505718887       15.3194820688      -24.6346594395  TIP3      18265           0.0000000000
     77047     18457  TIP3      H2             -4.4353278518       16.3051951718      -24.3239657866  TIP3      18265           0.0000000000
     77048     18458  TIP3      OH2            -3.0516743197       17.0726441974      -42.0722295152  TIP3      18266           0.0000000000
     77049     18458  TIP3      H1             -2.7556508072       16.2966859934      -41.5689627420  TIP3      18266           0.0000000000
     77050     18458  TIP3      H2             -2.2891236916       17.2979104317      -42.6244510381  TIP3      18266           0.0000000000
     77051     18459  TIP3      OH2           -16.4827167976       12.6684690186      -24.2787649604  TIP3      18267           0.0000000000
     77052     18459  TIP3      H1            -16.3491839451       11.7637113333      -24.6051202267  TIP3      18267           0.0000000000
     77053     18459  TIP3      H2            -17.2444357630       12.9361505120      -24.8246390737  TIP3      18267           0.0000000000
     77054     18460  TIP3      OH2           -12.1644096287       13.0142542943      -42.2541037663  TIP3      18268           0.0000000000
     77055     18460  TIP3      H1            -12.0252319680       12.2524872009      -41.6708660875  TIP3      18268           0.0000000000
     77056     18460  TIP3      H2            -11.4163450508       12.8975152458      -42.8713776848  TIP3      18268           0.0000000000
     77057     18461  TIP3      OH2            -9.7870313073       12.6608877058      -24.8873708803  TIP3      18269           0.0000000000
     77058     18461  TIP3      H1            -10.1274100108       12.9654789914      -25.7494509096  TIP3      18269           0.0000000000
     77059     18461  TIP3      H2             -9.7224102029       11.6751255289      -24.9871790041  TIP3      18269           0.0000000000
     77060     18462  TIP3      OH2            -6.7340357109       14.1229225788      -42.4759197727  TIP3      18270           0.0000000000
     77061     18462  TIP3      H1             -7.0070018996       14.2057653252      -41.5486470555  TIP3      18270           0.0000000000
     77062     18462  TIP3      H2             -6.9233520731       13.1652925552      -42.6202280956  TIP3      18270           0.0000000000
     77063     18463  TIP3      OH2            -4.0961553956       12.5270867116      -27.4716748517  TIP3      18271           0.0000000000
     77064     18463  TIP3      H1             -3.3075249659       13.1021901857      -27.5751204718  TIP3      18271           0.0000000000
     77065     18463  TIP3      H2             -4.7965704264       13.1916829093      -27.4596963739  TIP3      18271           0.0000000000
     77066     18464  TIP3      OH2           -15.6536628044        9.8944586829      -24.9122882938  TIP3      18272           0.0000000000
     77067     18464  TIP3      H1            -15.1891600909        9.0546098773      -25.0183404667  TIP3      18272           0.0000000000
     77068     18464  TIP3      H2            -15.8249482388        9.8866304617      -23.9589130683  TIP3      18272           0.0000000000
     77069     18465  TIP3      OH2           -10.9616299293       11.0316503515      -39.8237414852  TIP3      18273           0.0000000000
     77070     18465  TIP3      H1            -11.4661079393       10.4922915155      -39.1965342368  TIP3      18273           0.0000000000
     77071     18465  TIP3      H2            -10.6634868524       10.3585211054      -40.4788009901  TIP3      18273           0.0000000000
     77072     18466  TIP3      OH2           -11.6976308195        8.8274130265      -27.5317057616  TIP3      18274           0.0000000000
     77073     18466  TIP3      H1            -12.2824121348        9.5506988559      -27.2570106589  TIP3      18274           0.0000000000
     77074     18466  TIP3      H2            -11.3041758108        9.1998007670      -28.3406436010  TIP3      18274           0.0000000000
     77075     18467  TIP3      OH2            -9.8854096905        9.2538325875      -41.6260237756  TIP3      18275           0.0000000000
     77076     18467  TIP3      H1            -10.0372372494        9.1641302543      -42.5890656383  TIP3      18275           0.0000000000
     77077     18467  TIP3      H2             -8.9093463337        9.3064018935      -41.5601330871  TIP3      18275           0.0000000000
     77078     18468  TIP3      OH2            -6.6340366176       11.4698144039      -24.1480770737  TIP3      18276           0.0000000000
     77079     18468  TIP3      H1             -5.6930231899       11.3844361236      -24.3654103508  TIP3      18276           0.0000000000
     77080     18468  TIP3      H2             -6.8264675953       10.6536151302      -23.6664735754  TIP3      18276           0.0000000000
     77081     18469  TIP3      OH2            -0.5565636513       11.5730397358      -42.2158030409  TIP3      18277           0.0000000000
     77082     18469  TIP3      H1             -0.7474343353       11.1932217954      -43.0865844661  TIP3      18277           0.0000000000
     77083     18469  TIP3      H2             -0.4678271727       12.5359984266      -42.4017492901  TIP3      18277           0.0000000000
     77084     18470  TIP3      OH2           -11.2726056026        6.2269629241      -26.4884238233  TIP3      18278           0.0000000000
     77085     18470  TIP3      H1            -11.1841567794        5.5001212135      -27.1338459864  TIP3      18278           0.0000000000
     77086     18470  TIP3      H2            -11.3358490179        7.0324457065      -27.0400097725  TIP3      18278           0.0000000000
     77087     18471  TIP3      OH2           -10.8768391311        4.5988387798      -28.9124402123  TIP3      18279           0.0000000000
     77088     18471  TIP3      H1            -10.3720887322        5.0584344517      -29.6209912292  TIP3      18279           0.0000000000
     77089     18471  TIP3      H2            -11.7745660406        4.5184004449      -29.3038677364  TIP3      18279           0.0000000000
     77090     18472  TIP3      OH2            -9.3497142601       10.0864392965      -28.6840166312  TIP3      18280           0.0000000000
     77091     18472  TIP3      H1             -8.5909403773        9.9242177209      -29.2509406601  TIP3      18280           0.0000000000
     77092     18472  TIP3      H2             -9.7114850827       10.9232786486      -29.0141003259  TIP3      18280           0.0000000000
     77093     18473  TIP3      OH2            -3.6201966707       10.6339504565      -25.5850540379  TIP3      18281           0.0000000000
     77094     18473  TIP3      H1             -3.8488099994       11.3733756010      -26.1789696758  TIP3      18281           0.0000000000
     77095     18473  TIP3      H2             -2.6523914724       10.6292876333      -25.7307917362  TIP3      18281           0.0000000000
     77096     18474  TIP3      OH2           -12.8329084878        7.4872907367      -24.5493469655  TIP3      18282           0.0000000000
     77097     18474  TIP3      H1            -13.5794467144        6.8748235435      -24.6827879799  TIP3      18282           0.0000000000
     77098     18474  TIP3      H2            -12.1830571541        7.0894299559      -25.1566950251  TIP3      18282           0.0000000000
     77099     18475  TIP3      OH2           -10.0961428056        2.0362209275      -28.5428241630  TIP3      18283           0.0000000000
     77100     18475  TIP3      H1            -10.2796790464        2.9990920845      -28.6434666692  TIP3      18283           0.0000000000
     77101     18475  TIP3      H2            -10.8510235151        1.6631171136      -29.0295038723  TIP3      18283           0.0000000000
     77102     18476  TIP3      OH2            -8.8345489349        6.3566353375      -24.9185609977  TIP3      18284           0.0000000000
     77103     18476  TIP3      H1             -9.1325439484        6.1652343390      -24.0129110213  TIP3      18284           0.0000000000
     77104     18476  TIP3      H2             -9.6395308722        6.1596182411      -25.4341885837  TIP3      18284           0.0000000000
     77105     18477  TIP3      OH2            -6.1265444271        5.4400037744      -25.9038214192  TIP3      18285           0.0000000000
     77106     18477  TIP3      H1             -7.0715481822        5.5520873020      -25.6951425359  TIP3      18285           0.0000000000
     77107     18477  TIP3      H2             -5.8084674890        4.9022587400      -25.1469894536  TIP3      18285           0.0000000000
     77108     18478  TIP3      OH2            -4.6025785237        4.1384108432      -23.9026530433  TIP3      18286           0.0000000000
     77109     18478  TIP3      H1             -4.6388156368        3.1702636114      -23.8636409807  TIP3      18286           0.0000000000
     77110     18478  TIP3      H2             -4.7915832679        4.4343246721      -22.9930502232  TIP3      18286           0.0000000000
     77111     18479  TIP3      OH2           -14.7571641153        5.3850418263      -24.8424800219  TIP3      18287           0.0000000000
     77112     18479  TIP3      H1            -14.4607356978        4.6469316134      -25.3944776773  TIP3      18287           0.0000000000
     77113     18479  TIP3      H2            -14.7484134454        4.9733587341      -23.9502414750  TIP3      18287           0.0000000000
     77114     18480  TIP3      OH2            -9.8889377817        1.4338487443      -25.8159694904  TIP3      18288           0.0000000000
     77115     18480  TIP3      H1             -9.2321862185        0.7074979577      -25.7895452659  TIP3      18288           0.0000000000
     77116     18480  TIP3      H2             -9.9894989348        1.5785908558      -26.7676897623  TIP3      18288           0.0000000000
     77117     18481  TIP3      OH2           -10.0376743378       19.9460291465      -40.5589833509  TIP3      18289           0.0000000000
     77118     18481  TIP3      H1             -9.0722019445       20.0479591258      -40.4891812403  TIP3      18289           0.0000000000
     77119     18481  TIP3      H2            -10.2098888404       20.5611525171      -41.2794032557  TIP3      18289           0.0000000000
     77120     18482  TIP3      OH2           -16.5017266099       14.5297136122      -41.0775835893  TIP3      18290           0.0000000000
     77121     18482  TIP3      H1            -15.5382282005       14.6423203620      -40.8872041231  TIP3      18290           0.0000000000
     77122     18482  TIP3      H2            -16.4447729340       13.8851744515      -41.8232122607  TIP3      18290           0.0000000000
     77123     18483  TIP3      OH2           -17.7751982685       19.9302147877      -36.0758851711  TIP3      18291           0.0000000000
     77124     18483  TIP3      H1            -18.4092228719       19.4053588212      -36.6022516273  TIP3      18291           0.0000000000
     77125     18483  TIP3      H2            -17.3998441722       19.2602724672      -35.4809343499  TIP3      18291           0.0000000000
     77126     18484  TIP3      OH2           -16.9148770785       18.0508810279      -34.2281534151  TIP3      18292           0.0000000000
     77127     18484  TIP3      H1            -17.2404232971       17.1643232784      -34.0359590618  TIP3      18292           0.0000000000
     77128     18484  TIP3      H2            -16.6568094977       18.3806515809      -33.3516949180  TIP3      18292           0.0000000000
     77129     18485  TIP3      OH2             0.6425506502       18.8472972574      -31.3089430380  TIP3      18293           0.0000000000
     77130     18485  TIP3      H1              0.6734295315       19.0045499340      -30.3486683301  TIP3      18293           0.0000000000
     77131     18485  TIP3      H2              1.3469272924       19.4296744515      -31.6108713980  TIP3      18293           0.0000000000
     77132     18486  TIP3      OH2             0.2329383602       18.4448288436      -28.3827809314  TIP3      18294           0.0000000000
     77133     18486  TIP3      H1             -0.2596186170       17.6736337344      -28.7353262569  TIP3      18294           0.0000000000
     77134     18486  TIP3      H2              0.7176177016       17.9981191806      -27.6684114832  TIP3      18294           0.0000000000
     77135     18487  TIP3      OH2            -1.3005050457       14.1500147953      -23.6124558606  TIP3      18295           0.0000000000
     77136     18487  TIP3      H1             -2.2267495881       14.1618446110      -23.3456659439  TIP3      18295           0.0000000000
     77137     18487  TIP3      H2             -1.0134240259       15.0116572358      -23.2967133902  TIP3      18295           0.0000000000
     77138     18488  TIP3      OH2            -0.0248272426       12.4933127023      -38.2616791390  TIP3      18296           0.0000000000
     77139     18488  TIP3      H1              0.8424870205       12.8829323812      -38.0750657079  TIP3      18296           0.0000000000
     77140     18488  TIP3      H2             -0.0406773576       11.7742573030      -37.5924913360  TIP3      18296           0.0000000000
     77141     18489  TIP3      OH2             0.3367683286       10.5691782195      -36.3702465758  TIP3      18297           0.0000000000
     77142     18489  TIP3      H1             -0.4153415783       10.0701128448      -35.9791723949  TIP3      18297           0.0000000000
     77143     18489  TIP3      H2              0.9340401288       10.6995788321      -35.6076235790  TIP3      18297           0.0000000000
     77144     18490  TIP3      OH2             0.0886910860       13.2572800114      -31.3986203619  TIP3      18298           0.0000000000
     77145     18490  TIP3      H1              0.9076134498       12.8848201722      -31.7697651204  TIP3      18298           0.0000000000
     77146     18490  TIP3      H2              0.2382058367       14.2139705801      -31.5532589959  TIP3      18298           0.0000000000
     77147     18491  TIP3      OH2            -1.3479671500       16.1701918151      -29.1282572713  TIP3      18299           0.0000000000
     77148     18491  TIP3      H1             -2.0328819823       16.5103092551      -28.5324329280  TIP3      18299           0.0000000000
     77149     18491  TIP3      H2             -1.8991249853       15.7660406117      -29.8313326697  TIP3      18299           0.0000000000
     77150     18492  TIP3      OH2             0.6361735748       10.3919405963      -39.9810434565  TIP3      18300           0.0000000000
     77151     18492  TIP3      H1              0.0696421393       10.7332602562      -40.7049385687  TIP3      18300           0.0000000000
     77152     18492  TIP3      H2              0.5367208788       11.1050702041      -39.3229284382  TIP3      18300           0.0000000000
     77153     18493  TIP3      OH2            -0.9871855428        7.6180695139      -41.4700005379  TIP3      18301           0.0000000000
     77154     18493  TIP3      H1             -0.9125560458        8.2844847866      -42.1637337572  TIP3      18301           0.0000000000
     77155     18493  TIP3      H2             -1.1754006977        6.7957143696      -41.9647813495  TIP3      18301           0.0000000000
     77156     18494  TIP3      OH2            -1.8430596129        9.0407216906      -35.8011033660  TIP3      18302           0.0000000000
     77157     18494  TIP3      H1             -1.9897551059        8.0865195596      -35.8428857866  TIP3      18302           0.0000000000
     77158     18494  TIP3      H2             -2.1724505167        9.2540042997      -34.9076970124  TIP3      18302           0.0000000000
     77159     18495  TIP3      OH2           -16.8263746488       11.1253377187      -31.7388072089  TIP3      18303           0.0000000000
     77160     18495  TIP3      H1            -16.6879234326       11.0473875607      -32.7079064555  TIP3      18303           0.0000000000
     77161     18495  TIP3      H2            -15.9349543890       10.9430930313      -31.3992988852  TIP3      18303           0.0000000000
     77162     18496  TIP3      OH2            -0.9959613667       11.0163422117      -26.1536697459  TIP3      18304           0.0000000000
     77163     18496  TIP3      H1             -0.3982490735       10.2685686532      -25.9399995902  TIP3      18304           0.0000000000
     77164     18496  TIP3      H2             -0.3852116077       11.7751355807      -26.1056383394  TIP3      18304           0.0000000000
     77165     18497  TIP3      OH2             0.5521876370        8.9095456305      -25.5546870120  TIP3      18305           0.0000000000
     77166     18497  TIP3      H1             -0.3511794746        8.5234203239      -25.6213298145  TIP3      18305           0.0000000000
     77167     18497  TIP3      H2              1.0857707015        8.1029748937      -25.5172896716  TIP3      18305           0.0000000000
     77168     18498  TIP3      OH2            -1.7396340983        5.0954832385      -42.3327792991  TIP3      18306           0.0000000000
     77169     18498  TIP3      H1             -1.1524111928        4.6550588724      -41.6895426052  TIP3      18306           0.0000000000
     77170     18498  TIP3      H2             -2.6050380802        4.6773625109      -42.1802005204  TIP3      18306           0.0000000000
     77171     18499  TIP3      OH2            -2.1981541472        6.6207148994      -37.3897177826  TIP3      18307           0.0000000000
     77172     18499  TIP3      H1             -1.8810845954        5.7006746620      -37.2269904777  TIP3      18307           0.0000000000
     77173     18499  TIP3      H2             -1.3746461969        7.0296855034      -37.6905900546  TIP3      18307           0.0000000000
     77174     18500  TIP3      OH2            -1.5378332613        7.1708363364      -31.9037700532  TIP3      18308           0.0000000000
     77175     18500  TIP3      H1             -0.5766631015        7.3993246621      -31.9194511663  TIP3      18308           0.0000000000
     77176     18500  TIP3      H2             -1.7238853973        7.3097764750      -30.9619816484  TIP3      18308           0.0000000000
     77177     18501  TIP3      OH2            -1.4749190468        7.8931881891      -29.1446162440  TIP3      18309           0.0000000000
     77178     18501  TIP3      H1             -2.3354190889        8.1872448033      -28.7720860263  TIP3      18309           0.0000000000
     77179     18501  TIP3      H2             -1.0323248532        8.7544586201      -29.3370668188  TIP3      18309           0.0000000000
     77180     18502  TIP3      OH2           -17.2147686765        6.3994748539      -25.6004293052  TIP3      18310           0.0000000000
     77181     18502  TIP3      H1            -16.2746054520        6.2050619413      -25.4041608094  TIP3      18310           0.0000000000
     77182     18502  TIP3      H2            -17.6754554427        5.5900819055      -25.2952732261  TIP3      18310           0.0000000000
     77183     18503  TIP3      OH2             0.8013667601        1.8520822727      -23.8145998408  TIP3      18311           0.0000000000
     77184     18503  TIP3      H1              1.1318395676        1.2810320991      -24.4919241902  TIP3      18311           0.0000000000
     77185     18503  TIP3      H2              0.8752831811        2.7489596973      -24.2203341455  TIP3      18311           0.0000000000
     77186     18504  TIP3      OH2            -1.5013616040        3.9123555706      -37.2985659325  TIP3      18312           0.0000000000
     77187     18504  TIP3      H1             -1.2895715501        3.4757594522      -36.4453141024  TIP3      18312           0.0000000000
     77188     18504  TIP3      H2             -2.1023894929        3.2730924048      -37.7356849461  TIP3      18312           0.0000000000
     77189     18505  TIP3      OH2           -16.0174703149        4.7180135222      -32.7423584996  TIP3      18313           0.0000000000
     77190     18505  TIP3      H1            -15.5602932733        3.8910305581      -32.4836955641  TIP3      18313           0.0000000000
     77191     18505  TIP3      H2            -15.4693165049        5.4090896007      -32.3484695239  TIP3      18313           0.0000000000
     77192     18506  TIP3      OH2           -17.7010266715        7.6840805090      -31.6732851916  TIP3      18314           0.0000000000
     77193     18506  TIP3      H1            -17.1832161671        7.4870053547      -32.4761078053  TIP3      18314           0.0000000000
     77194     18506  TIP3      H2            -17.3067877261        8.5411647120      -31.4483446357  TIP3      18314           0.0000000000
     77195     18507  TIP3      OH2             0.3211827595        4.0143763048      -25.4163931316  TIP3      18315           0.0000000000
     77196     18507  TIP3      H1             -0.5974884716        4.3140101481      -25.5358407946  TIP3      18315           0.0000000000
     77197     18507  TIP3      H2              0.3830589007        3.5131081528      -26.2410283205  TIP3      18315           0.0000000000
     77198     18508  TIP3      OH2             0.3126944261        3.9476783539      -40.7442802169  TIP3      18316           0.0000000000
     77199     18508  TIP3      H1              0.7259005812        3.2363001173      -41.2807084384  TIP3      18316           0.0000000000
     77200     18508  TIP3      H2              1.0192075421        4.6080953651      -40.6945945690  TIP3      18316           0.0000000000
     77201     18509  TIP3      OH2           -17.3664457869        3.9942932281      -37.6193974911  TIP3      18317           0.0000000000
     77202     18509  TIP3      H1            -18.3099318893        4.1528942926      -37.7840531884  TIP3      18317           0.0000000000
     77203     18509  TIP3      H2            -16.9511632085        4.4710830024      -38.3565263796  TIP3      18317           0.0000000000
     77204     18510  TIP3      OH2            -2.6356851389       18.9311856407      -35.6772840571  TIP3      18318           0.0000000000
     77205     18510  TIP3      H1             -1.9515694574       18.6276099167      -36.3011796194  TIP3      18318           0.0000000000
     77206     18510  TIP3      H2             -2.1191659172       19.4283404513      -35.0263168727  TIP3      18318           0.0000000000
     77207     18511  TIP3      OH2           -17.4228183650        2.6252315720      -29.3358266409  TIP3      18319           0.0000000000
     77208     18511  TIP3      H1            -18.0910536170        2.4371581556      -28.6535073741  TIP3      18319           0.0000000000
     77209     18511  TIP3      H2            -17.8786741387        3.3056405419      -29.8729165428  TIP3      18319           0.0000000000
     77210     18512  TIP3      OH2           -15.1886560962       15.8700444207      -25.1636037165  TIP3      18320           0.0000000000
     77211     18512  TIP3      H1            -16.0410306633       16.0403464654      -25.5935530312  TIP3      18320           0.0000000000
     77212     18512  TIP3      H2            -15.4481703292       15.7607580435      -24.2460607787  TIP3      18320           0.0000000000
     77213     18513  TIP3      OH2           -12.2894115358       16.8376391377      -28.8995442631  TIP3      18321           0.0000000000
     77214     18513  TIP3      H1            -12.6160276713       17.7073645813      -29.1659609431  TIP3      18321           0.0000000000
     77215     18513  TIP3      H2            -11.3608580390       16.9227830437      -29.1999583544  TIP3      18321           0.0000000000
     77216     18514  TIP3      OH2            -7.9331931697       18.2127266784      -25.9960500738  TIP3      18322           0.0000000000
     77217     18514  TIP3      H1             -7.7769821041       17.9306841629      -25.0602585914  TIP3      18322           0.0000000000
     77218     18514  TIP3      H2             -7.0569668590       18.5737518369      -26.2354383131  TIP3      18322           0.0000000000
     77219     18515  TIP3      OH2            -5.6785392991       19.5397905533      -26.6877152862  TIP3      18323           0.0000000000
     77220     18515  TIP3      H1             -4.9565076273       18.9375480497      -26.9152372614  TIP3      18323           0.0000000000
     77221     18515  TIP3      H2             -5.3053745004       19.9434211997      -25.8763417160  TIP3      18323           0.0000000000
     77222     18516  TIP3      OH2            -0.6525480481        2.1399508079      -27.5847334874  TIP3      18324           0.0000000000
     77223     18516  TIP3      H1             -1.4855316689        2.4357319021      -27.9957260288  TIP3      18324           0.0000000000
     77224     18516  TIP3      H2             -0.4907352535        1.3121014596      -28.0955040259  TIP3      18324           0.0000000000
     77225     18517  TIP3      OH2           -14.8585752601       20.0778821578      -28.9086499166  TIP3      18325           0.0000000000
     77226     18517  TIP3      H1            -15.5914785782       20.5768086429      -29.2985952320  TIP3      18325           0.0000000000
     77227     18517  TIP3      H2            -15.1707647799       19.8779379747      -28.0174821359  TIP3      18325           0.0000000000
     77228     18518  TIP3      OH2           -12.3845225029       19.6632315188      -29.8101641443  TIP3      18326           0.0000000000
     77229     18518  TIP3      H1            -13.2845835612       19.8065518947      -29.4335699590  TIP3      18326           0.0000000000
     77230     18518  TIP3      H2            -12.4443446147       20.2349247624      -30.5996357689  TIP3      18326           0.0000000000
     77231     18519  TIP3      OH2            -7.6829606624       19.5677878313      -30.6514086313  TIP3      18327           0.0000000000
     77232     18519  TIP3      H1             -8.1461174336       20.1207205551      -31.3009951285  TIP3      18327           0.0000000000
     77233     18519  TIP3      H2             -7.5571087599       20.1988580139      -29.9103099009  TIP3      18327           0.0000000000
     77234     18520  TIP3      OH2            -5.3993252456       18.3711439940      -29.6253967345  TIP3      18328           0.0000000000
     77235     18520  TIP3      H1             -6.2513769089       18.6506347111      -29.9980262992  TIP3      18328           0.0000000000
     77236     18520  TIP3      H2             -4.9122192423       19.2082930896      -29.7182511902  TIP3      18328           0.0000000000
     77237     18521  TIP3      OH2            -2.8217285995       19.9386438059      -29.4094034289  TIP3      18329           0.0000000000
     77238     18521  TIP3      H1             -2.8707761633       20.8998484610      -29.6319970063  TIP3      18329           0.0000000000
     77239     18521  TIP3      H2             -2.5981429736       19.5690590351      -30.2857954130  TIP3      18329           0.0000000000
     77240     18522  TIP3      OH2           -15.4018090523       18.7282518744      -31.9513754356  TIP3      18330           0.0000000000
     77241     18522  TIP3      H1            -15.4678778379       18.2554724392      -31.0961738294  TIP3      18330           0.0000000000
     77242     18522  TIP3      H2            -14.5900184298       18.3477531688      -32.3564207414  TIP3      18330           0.0000000000
     77243     18523  TIP3      OH2           -13.3638230322       17.4123195981      -33.1102298312  TIP3      18331           0.0000000000
     77244     18523  TIP3      H1            -13.4688876946       16.4503154723      -33.0482456186  TIP3      18331           0.0000000000
     77245     18523  TIP3      H2            -12.4400291029       17.5668647112      -32.8337636164  TIP3      18331           0.0000000000
     77246     18524  TIP3      OH2           -10.7137463468       17.9207845334      -32.4305307775  TIP3      18332           0.0000000000
     77247     18524  TIP3      H1            -10.5652326245       16.9941096864      -32.6889826740  TIP3      18332           0.0000000000
     77248     18524  TIP3      H2            -10.6808827414       17.8657582146      -31.4635447220  TIP3      18332           0.0000000000
     77249     18525  TIP3      OH2            -7.2681646448        3.5680534063      -33.2872882645  TIP3      18333           0.0000000000
     77250     18525  TIP3      H1             -7.9443043900        2.9278738043      -33.0073287107  TIP3      18333           0.0000000000
     77251     18525  TIP3      H2             -6.7159560396        3.0343152213      -33.8709239517  TIP3      18333           0.0000000000
     77252     18526  TIP3      OH2            -2.1319860952        1.6209141529      -33.2313996912  TIP3      18334           0.0000000000
     77253     18526  TIP3      H1             -1.5189874554        2.2128572370      -33.7352924907  TIP3      18334           0.0000000000
     77254     18526  TIP3      H2             -3.0150404616        1.9804763242      -33.4570595551  TIP3      18334           0.0000000000
     77255     18527  TIP3      OH2            -0.4626361434        2.8660874538      -34.9500065313  TIP3      18335           0.0000000000
     77256     18527  TIP3      H1              0.2246304759        2.2911237907      -35.3634365989  TIP3      18335           0.0000000000
     77257     18527  TIP3      H2              0.0442417880        3.7029243376      -34.8411588812  TIP3      18335           0.0000000000
     77258     18528  TIP3      OH2           -14.8940341570        2.1940467162      -35.4405858670  TIP3      18336           0.0000000000
     77259     18528  TIP3      H1            -15.6918545953        2.0005873792      -35.9690316008  TIP3      18336           0.0000000000
     77260     18528  TIP3      H2            -14.4363838570        1.3329895173      -35.5010528218  TIP3      18336           0.0000000000
     77261     18529  TIP3      OH2           -16.1281047789        1.9472255905      -39.7200267041  TIP3      18337           0.0000000000
     77262     18529  TIP3      H1            -15.6359391067        2.5977601334      -40.2548296427  TIP3      18337           0.0000000000
     77263     18529  TIP3      H2            -16.6950364086        2.5207643499      -39.1825253705  TIP3      18337           0.0000000000
     77264     18530  TIP3      OH2           -10.4265902638        2.1204471021      -35.6538921914  TIP3      18338           0.0000000000
     77265     18530  TIP3      H1             -9.5256995997        2.4781373487      -35.7320364476  TIP3      18338           0.0000000000
     77266     18530  TIP3      H2            -10.4599957714        1.9034756644      -34.7226587530  TIP3      18338           0.0000000000
     77267     18531  TIP3      OH2            -4.7107316393        2.1386902857      -34.0308881177  TIP3      18339           0.0000000000
     77268     18531  TIP3      H1             -4.7628742979        2.2522643469      -34.9886375110  TIP3      18339           0.0000000000
     77269     18531  TIP3      H2             -5.0907655640        1.2351078578      -33.9021537213  TIP3      18339           0.0000000000
     77270     18532  TIP3      OH2            -3.4443362431        2.1684323667      -38.3459099940  TIP3      18340           0.0000000000
     77271     18532  TIP3      H1             -4.1934045301        2.7622567468      -38.5044716584  TIP3      18340           0.0000000000
     77272     18532  TIP3      H2             -3.8846044668        1.3163417772      -38.1124791075  TIP3      18340           0.0000000000
     77273     18533  TIP3      OH2           -16.5960946017       17.6551738546      -38.8774859115  TIP3      18341           0.0000000000
     77274     18533  TIP3      H1            -17.1240541332       17.9558905291      -39.6253148525  TIP3      18341           0.0000000000
     77275     18533  TIP3      H2            -16.2036336505       18.5229326434      -38.5779002503  TIP3      18341           0.0000000000
     77276     18534  TIP3      OH2           -14.3010923180        3.8915383410      -41.2075628740  TIP3      18342           0.0000000000
     77277     18534  TIP3      H1            -13.7691424299        3.2738402309      -41.7358509795  TIP3      18342           0.0000000000
     77278     18534  TIP3      H2            -13.6350728531        4.2135652673      -40.5726086320  TIP3      18342           0.0000000000
     77279     18535  TIP3      OH2            -9.2748214766        4.1345367288      -38.8047691082  TIP3      18343           0.0000000000
     77280     18535  TIP3      H1             -9.0240321642        3.5572057118      -38.0648989620  TIP3      18343           0.0000000000
     77281     18535  TIP3      H2             -9.2036659218        5.0008351488      -38.3466405467  TIP3      18343           0.0000000000
     77282     18536  TIP3      OH2            -7.3378702784       19.2082991475      -40.3560565531  TIP3      18344           0.0000000000
     77283     18536  TIP3      H1             -6.4217783467       19.4350673702      -40.5795256834  TIP3      18344           0.0000000000
     77284     18536  TIP3      H2             -7.5616087878       18.6884725806      -41.1566558848  TIP3      18344           0.0000000000
     77285     18537  TIP3      OH2            -0.6481769153       18.7084144459      -37.6360047480  TIP3      18345           0.0000000000
     77286     18537  TIP3      H1             -0.8366180414       17.9259647926      -38.2082413443  TIP3      18345           0.0000000000
     77287     18537  TIP3      H2             -0.7131210505       19.4432772218      -38.2799382580  TIP3      18345           0.0000000000
     77288     18538  TIP3      OH2           -15.0137253208        2.7358948366      -25.9839761026  TIP3      18346           0.0000000000
     77289     18538  TIP3      H1            -15.3907193727        1.9544738537      -25.5484063731  TIP3      18346           0.0000000000
     77290     18538  TIP3      H2            -14.0982288183        2.7092087544      -25.6199762521  TIP3      18346           0.0000000000
     77291     18539  TIP3      OH2           -13.0187785074        2.1063188654      -24.3723250366  TIP3      18347           0.0000000000
     77292     18539  TIP3      H1            -12.1110017338        1.8200141348      -24.6042844139  TIP3      18347           0.0000000000
     77293     18539  TIP3      H2            -13.3197488673        1.2934140256      -23.9586081099  TIP3      18347           0.0000000000
     77294     18540  TIP3      OH2           -14.4203670068       18.8864579788      -41.7471447718  TIP3      18348           0.0000000000
     77295     18540  TIP3      H1            -14.6769261451       19.1403817908      -40.8385912925  TIP3      18348           0.0000000000
     77296     18540  TIP3      H2            -13.6421175768       18.3220946675      -41.5824075632  TIP3      18348           0.0000000000
     77297     18541  TIP3      OH2            -4.6086218438        1.3424678254      -24.3072144856  TIP3      18349           0.0000000000
     77298     18541  TIP3      H1             -4.6725050409        1.0272653362      -23.3870576296  TIP3      18349           0.0000000000
     77299     18541  TIP3      H2             -3.6773158633        1.4219548023      -24.5854028834  TIP3      18349           0.0000000000
     77300     18542  TIP3      OH2            -1.3591662377       17.4584061346      -25.6026300311  TIP3      18350           0.0000000000
     77301     18542  TIP3      H1             -2.2026844131       17.3200373431      -26.0761214779  TIP3      18350           0.0000000000
     77302     18542  TIP3      H2             -1.4934612675       18.3826318385      -25.3258413413  TIP3      18350           0.0000000000
     77303     18543  TIP3      OH2            13.0522291263       11.3369763734      -35.5953665705  TIP3      18351           0.0000000000
     77304     18543  TIP3      H1             13.0313438209       12.3183741520      -35.6091336050  TIP3      18351           0.0000000000
     77305     18543  TIP3      H2             12.3166002785       11.1046769917      -36.1859182275  TIP3      18351           0.0000000000
     77306     18544  TIP3      OH2            11.8999923413       10.5870971103      -32.0787929494  TIP3      18352           0.0000000000
     77307     18544  TIP3      H1             11.8839269028        9.9386793334      -31.3600442800  TIP3      18352           0.0000000000
     77308     18544  TIP3      H2             11.5528039676       10.0796243515      -32.8328382803  TIP3      18352           0.0000000000
     77309     18545  TIP3      OH2             4.2586848510       10.2659080233      -30.5261408754  TIP3      18353           0.0000000000
     77310     18545  TIP3      H1              4.3452306803        9.5804753204      -29.8298744261  TIP3      18353           0.0000000000
     77311     18545  TIP3      H2              5.0093615247       10.8343983800      -30.2997237802  TIP3      18353           0.0000000000
     77312     18546  TIP3      OH2            15.5850867380       13.5384384084      -33.7996920779  TIP3      18354           0.0000000000
     77313     18546  TIP3      H1             15.1744454618       12.8223212898      -33.3059171959  TIP3      18354           0.0000000000
     77314     18546  TIP3      H2             15.6132907250       14.2469157952      -33.1279589544  TIP3      18354           0.0000000000
     77315     18547  TIP3      OH2             5.1801516943       14.7189429793      -32.0402920031  TIP3      18355           0.0000000000
     77316     18547  TIP3      H1              4.8691221429       13.8453533239      -32.3476688821  TIP3      18355           0.0000000000
     77317     18547  TIP3      H2              6.1345298024       14.5312688053      -31.9844406149  TIP3      18355           0.0000000000
     77318     18548  TIP3      OH2             1.8173758111        8.2689460987      -36.5379621697  TIP3      18356           0.0000000000
     77319     18548  TIP3      H1              1.3817999608        9.1399213519      -36.6041538512  TIP3      18356           0.0000000000
     77320     18548  TIP3      H2              1.2565977753        7.7285372423      -37.1096366093  TIP3      18356           0.0000000000
     77321     18549  TIP3      OH2             2.5312616953       10.4956068690      -34.3901285550  TIP3      18357           0.0000000000
     77322     18549  TIP3      H1              2.8057958298        9.6735555006      -33.9414022425  TIP3      18357           0.0000000000
     77323     18549  TIP3      H2              3.2245218011       10.6025491056      -35.0590754054  TIP3      18357           0.0000000000
     77324     18550  TIP3      OH2            12.7054947996       18.6941768971      -33.5592984900  TIP3      18358           0.0000000000
     77325     18550  TIP3      H1             13.3570439666       18.0081952999      -33.8471262657  TIP3      18358           0.0000000000
     77326     18550  TIP3      H2             12.4910405592       18.3579076585      -32.6902554846  TIP3      18358           0.0000000000
     77327     18551  TIP3      OH2            10.2747867444       12.9883753649      -31.6068444485  TIP3      18359           0.0000000000
     77328     18551  TIP3      H1             10.6124566292       12.3632207856      -32.2688201646  TIP3      18359           0.0000000000
     77329     18551  TIP3      H2             11.0870156064       13.1479898721      -31.0961458990  TIP3      18359           0.0000000000
     77330     18552  TIP3      OH2            18.8761137276        4.6495296184      -30.8957366260  TIP3      18360           0.0000000000
     77331     18552  TIP3      H1             19.0465650028        5.2338300592      -30.1248287005  TIP3      18360           0.0000000000
     77332     18552  TIP3      H2             19.4443600800        5.0741506279      -31.5533040220  TIP3      18360           0.0000000000
     77333     18553  TIP3      OH2            13.4313364776        7.4585142375      -31.3039943313  TIP3      18361           0.0000000000
     77334     18553  TIP3      H1             13.6157068959        6.5027263978      -31.2868157485  TIP3      18361           0.0000000000
     77335     18553  TIP3      H2             13.3394432312        7.5944052909      -32.2659848791  TIP3      18361           0.0000000000
     77336     18554  TIP3      OH2             6.5569510890        5.5473973499      -34.0831087813  TIP3      18362           0.0000000000
     77337     18554  TIP3      H1              6.6651024875        6.3816779255      -34.5759490222  TIP3      18362           0.0000000000
     77338     18554  TIP3      H2              6.1591030067        4.9734808637      -34.7727401526  TIP3      18362           0.0000000000
     77339     18555  TIP3      OH2            14.2938248780        5.6223057128      -35.7108110457  TIP3      18363           0.0000000000
     77340     18555  TIP3      H1             14.9449973174        5.3100909684      -35.0403479676  TIP3      18363           0.0000000000
     77341     18555  TIP3      H2             14.8577720486        6.2040972804      -36.2412487764  TIP3      18363           0.0000000000
     77342     18556  TIP3      OH2             3.1820677738        7.9576409897      -33.3485076871  TIP3      18364           0.0000000000
     77343     18556  TIP3      H1              3.8514477922        7.4138131733      -32.8932313624  TIP3      18364           0.0000000000
     77344     18556  TIP3      H2              3.2876972978        7.6430304172      -34.2594944580  TIP3      18364           0.0000000000
     77345     18557  TIP3      OH2             8.3390148182        9.5137255357      -34.0276529104  TIP3      18365           0.0000000000
     77346     18557  TIP3      H1              9.0117909934        8.9321225949      -33.6339489194  TIP3      18365           0.0000000000
     77347     18557  TIP3      H2              7.8228070764        8.8550496128      -34.5334506819  TIP3      18365           0.0000000000
     77348     18558  TIP3      OH2            19.3044279378        6.0467433783      -28.5957774939  TIP3      18366           0.0000000000
     77349     18558  TIP3      H1             18.7027354199        6.8167082366      -28.7196735699  TIP3      18366           0.0000000000
     77350     18558  TIP3      H2             19.3538844737        5.9663565401      -27.6339423166  TIP3      18366           0.0000000000
     77351     18559  TIP3      OH2             5.4661362937        4.4466269984      -30.0419309896  TIP3      18367           0.0000000000
     77352     18559  TIP3      H1              5.1865700884        5.0181568362      -30.7886948082  TIP3      18367           0.0000000000
     77353     18559  TIP3      H2              4.7891956811        4.6753129547      -29.3597586761  TIP3      18367           0.0000000000
     77354     18560  TIP3      OH2            12.7545382713       13.9235992703      -36.4952491998  TIP3      18368           0.0000000000
     77355     18560  TIP3      H1             12.4928095504       13.6536488383      -37.3847109478  TIP3      18368           0.0000000000
     77356     18560  TIP3      H2             12.4486741232       14.8585680448      -36.4443665726  TIP3      18368           0.0000000000
     77357     18561  TIP3      OH2             7.9801966966       12.0934959214      -29.8039850587  TIP3      18369           0.0000000000
     77358     18561  TIP3      H1              7.2733153216       12.7365083160      -29.5851135197  TIP3      18369           0.0000000000
     77359     18561  TIP3      H2              8.6866948858       12.6877016953      -30.0965661549  TIP3      18369           0.0000000000
     77360     18562  TIP3      OH2            16.1046129280        4.9726186767      -33.7235819963  TIP3      18370           0.0000000000
     77361     18562  TIP3      H1             15.8870655660        4.2057911536      -33.1856461037  TIP3      18370           0.0000000000
     77362     18562  TIP3      H2             16.7793240784        5.4094812613      -33.1769872150  TIP3      18370           0.0000000000
     77363     18563  TIP3      OH2             5.0333330480        6.3014452050      -32.0080636341  TIP3      18371           0.0000000000
     77364     18563  TIP3      H1              5.6622556125        6.9907791753      -31.6960590246  TIP3      18371           0.0000000000
     77365     18563  TIP3      H2              5.5507838990        5.8918660006      -32.7458682815  TIP3      18371           0.0000000000
     77366     18564  TIP3      OH2             6.4263579801       14.0947786661      -28.9931611517  TIP3      18372           0.0000000000
     77367     18564  TIP3      H1              6.3810918923       15.0154411115      -29.3122966142  TIP3      18372           0.0000000000
     77368     18564  TIP3      H2              5.5543938619       14.0131264281      -28.5298919008  TIP3      18372           0.0000000000
     77369     18565  TIP3      OH2             2.5079724647       13.7027881472      -38.1914143201  TIP3      18373           0.0000000000
     77370     18565  TIP3      H1              2.2572434783       14.0425576326      -39.0682167634  TIP3      18373           0.0000000000
     77371     18565  TIP3      H2              2.5874067849       14.5302834899      -37.6758099908  TIP3      18373           0.0000000000
     77372     18566  TIP3      OH2            16.1053830088       15.3465407549      -31.4542841631  TIP3      18374           0.0000000000
     77373     18566  TIP3      H1             15.1493768619       15.4970760165      -31.3032025421  TIP3      18374           0.0000000000
     77374     18566  TIP3      H2             16.3890826155       16.2771739294      -31.6360358097  TIP3      18374           0.0000000000
     77375     18567  TIP3      OH2            16.4333475911        3.6549423392      -30.0571201528  TIP3      18375           0.0000000000
     77376     18567  TIP3      H1             15.7133428735        4.2955430064      -30.1308801235  TIP3      18375           0.0000000000
     77377     18567  TIP3      H2             17.1552722929        4.0935971472      -30.5475820509  TIP3      18375           0.0000000000
     77378     18568  TIP3      OH2             9.4036358365        1.7805684963      -32.5766389860  TIP3      18376           0.0000000000
     77379     18568  TIP3      H1              9.2600231951        0.8171689395      -32.6527742249  TIP3      18376           0.0000000000
     77380     18568  TIP3      H2              8.5257919740        2.0864515426      -32.2698874732  TIP3      18376           0.0000000000
     77381     18569  TIP3      OH2            14.3727224762       17.1627076250      -34.8496648431  TIP3      18377           0.0000000000
     77382     18569  TIP3      H1             14.8058983828       16.4414780001      -35.3508166390  TIP3      18377           0.0000000000
     77383     18569  TIP3      H2             14.8158330721       17.9495027062      -35.2325522921  TIP3      18377           0.0000000000
     77384     18570  TIP3      OH2            15.5910208522       15.0856001451      -36.3248466827  TIP3      18378           0.0000000000
     77385     18570  TIP3      H1             15.2876159620       14.3887690370      -36.9280344553  TIP3      18378           0.0000000000
     77386     18570  TIP3      H2             15.6237400430       14.5961519097      -35.4830390341  TIP3      18378           0.0000000000
     77387     18571  TIP3      OH2            17.2183827663       13.6977727381      -27.8271265120  TIP3      18379           0.0000000000
     77388     18571  TIP3      H1             17.3421327810       13.0360117045      -28.5482554923  TIP3      18379           0.0000000000
     77389     18571  TIP3      H2             17.4057602603       14.5312154359      -28.2982093532  TIP3      18379           0.0000000000
     77390     18572  TIP3      OH2            11.7024285305       10.5672074053      -38.0706542568  TIP3      18380           0.0000000000
     77391     18572  TIP3      H1             11.0099160717       11.1482699595      -38.4321573653  TIP3      18380           0.0000000000
     77392     18572  TIP3      H2             12.4128457703       10.6653528914      -38.7308611211  TIP3      18380           0.0000000000
     77393     18573  TIP3      OH2            11.7829666499        9.1397995062      -41.0605894986  TIP3      18381           0.0000000000
     77394     18573  TIP3      H1             12.4851452004        9.1249302376      -40.3928237188  TIP3      18381           0.0000000000
     77395     18573  TIP3      H2             12.0900202596        8.4212458059      -41.6281873050  TIP3      18381           0.0000000000
     77396     18574  TIP3      OH2            19.0912220752        9.9896351467      -29.7946491648  TIP3      18382           0.0000000000
     77397     18574  TIP3      H1             18.4401188610       10.7187415414      -29.7428147434  TIP3      18382           0.0000000000
     77398     18574  TIP3      H2             19.5883336762       10.2324232434      -30.6013389037  TIP3      18382           0.0000000000
     77399     18575  TIP3      OH2            15.1594999457       10.7757953365      -37.1514927581  TIP3      18383           0.0000000000
     77400     18575  TIP3      H1             14.4152472794       11.0227347291      -36.5518833163  TIP3      18383           0.0000000000
     77401     18575  TIP3      H2             15.6274926674       10.1040871085      -36.6249378236  TIP3      18383           0.0000000000
     77402     18576  TIP3      OH2            15.0650704747        8.9496544051      -28.0232326932  TIP3      18384           0.0000000000
     77403     18576  TIP3      H1             15.0797482022        9.7622895808      -27.4935032570  TIP3      18384           0.0000000000
     77404     18576  TIP3      H2             14.4395674354        9.2392086879      -28.7173571092  TIP3      18384           0.0000000000
     77405     18577  TIP3      OH2             6.7622637099       11.4419309739      -35.2333763861  TIP3      18385           0.0000000000
     77406     18577  TIP3      H1              6.4408144789       11.0495205123      -36.0804077123  TIP3      18385           0.0000000000
     77407     18577  TIP3      H2              7.3750519727       10.7504817075      -34.8963638025  TIP3      18385           0.0000000000
     77408     18578  TIP3      OH2             8.0798948241       14.8222656230      -32.5491677161  TIP3      18386           0.0000000000
     77409     18578  TIP3      H1              8.0766768559       14.3005173990      -33.3609447344  TIP3      18386           0.0000000000
     77410     18578  TIP3      H2              8.8644642557       14.4692482974      -32.0909312054  TIP3      18386           0.0000000000
     77411     18579  TIP3      OH2             7.0808169657       10.1920901199      -31.5832824907  TIP3      18387           0.0000000000
     77412     18579  TIP3      H1              7.6410777718       10.2856575929      -32.3773498777  TIP3      18387           0.0000000000
     77413     18579  TIP3      H2              7.4744339577       10.8495814511      -30.9680655481  TIP3      18387           0.0000000000
     77414     18580  TIP3      OH2            13.5103387868       15.7540977865      -30.8599816055  TIP3      18388           0.0000000000
     77415     18580  TIP3      H1             13.2251925305       16.4029430360      -30.2086659046  TIP3      18388           0.0000000000
     77416     18580  TIP3      H2             13.2427961994       14.9045145914      -30.4366614170  TIP3      18388           0.0000000000
     77417     18581  TIP3      OH2             8.0269215754       14.6123114224      -26.8481828232  TIP3      18389           0.0000000000
     77418     18581  TIP3      H1              7.6208806166       15.3701267376      -26.3827563673  TIP3      18389           0.0000000000
     77419     18581  TIP3      H2              7.3695975288       14.4212693480      -27.5591182832  TIP3      18389           0.0000000000
     77420     18582  TIP3      OH2            14.0283955735        9.9858805098      -39.4826658491  TIP3      18390           0.0000000000
     77421     18582  TIP3      H1             14.5844025037       10.1579201432      -38.6822599599  TIP3      18390           0.0000000000
     77422     18582  TIP3      H2             14.4799983518       10.4796980564      -40.2035178716  TIP3      18390           0.0000000000
     77423     18583  TIP3      OH2             4.9805123194       10.7964798045      -27.7316553380  TIP3      18391           0.0000000000
     77424     18583  TIP3      H1              5.0396126764       11.4222573342      -26.9878668565  TIP3      18391           0.0000000000
     77425     18583  TIP3      H2              4.0357317368       10.8760121653      -27.9313908402  TIP3      18391           0.0000000000
     77426     18584  TIP3      OH2            11.7463503380       16.7083519116      -35.9975067563  TIP3      18392           0.0000000000
     77427     18584  TIP3      H1             12.1940168150       17.0208883972      -35.1987771573  TIP3      18392           0.0000000000
     77428     18584  TIP3      H2             11.1864685682       17.4548785423      -36.2430572290  TIP3      18392           0.0000000000
     77429     18585  TIP3      OH2             6.2726079454       16.6286045456      -26.1259083895  TIP3      18393           0.0000000000
     77430     18585  TIP3      H1              6.2334036946       16.5448256553      -27.0925569751  TIP3      18393           0.0000000000
     77431     18585  TIP3      H2              5.3390392283       16.5061415969      -25.8714240862  TIP3      18393           0.0000000000
     77432     18586  TIP3      OH2            17.7390065071        1.7085917498      -39.6078371570  TIP3      18394           0.0000000000
     77433     18586  TIP3      H1             16.8056610668        1.8280385221      -39.3172344996  TIP3      18394           0.0000000000
     77434     18586  TIP3      H2             17.9608467095        2.5686408288      -39.9946075191  TIP3      18394           0.0000000000
     77435     18587  TIP3      OH2             5.7204982796       10.4592347556      -37.5983991707  TIP3      18395           0.0000000000
     77436     18587  TIP3      H1              5.4444302451       11.2438459361      -38.1183397332  TIP3      18395           0.0000000000
     77437     18587  TIP3      H2              5.0761872941        9.7945592838      -37.8471257087  TIP3      18395           0.0000000000
     77438     18588  TIP3      OH2            18.8527805077       16.0815372484      -41.2411743275  TIP3      18396           0.0000000000
     77439     18588  TIP3      H1             19.0308781546       17.0182200010      -41.0595622955  TIP3      18396           0.0000000000
     77440     18588  TIP3      H2             19.7769266193       15.7567686680      -41.2350956460  TIP3      18396           0.0000000000
     77441     18589  TIP3      OH2             1.8323498540       12.8911537651      -28.7391964501  TIP3      18397           0.0000000000
     77442     18589  TIP3      H1              1.3728005391       12.8070523293      -29.5912979825  TIP3      18397           0.0000000000
     77443     18589  TIP3      H2              1.8994470487       11.9458240866      -28.5048560617  TIP3      18397           0.0000000000
     77444     18590  TIP3      OH2             1.5811488982       15.6277224759      -31.9385282054  TIP3      18398           0.0000000000
     77445     18590  TIP3      H1              2.5392211648       15.5108287438      -31.9608447052  TIP3      18398           0.0000000000
     77446     18590  TIP3      H2              1.4991373042       16.4464901982      -31.4340951638  TIP3      18398           0.0000000000
     77447     18591  TIP3      OH2            19.8326741418       16.3379289883      -26.2028388351  TIP3      18399           0.0000000000
     77448     18591  TIP3      H1             19.7133975904       15.3812158093      -26.3280526382  TIP3      18399           0.0000000000
     77449     18591  TIP3      H2             18.9506134669       16.5567648520      -25.8919808059  TIP3      18399           0.0000000000
     77450     18592  TIP3      OH2            10.7809741905       15.9037751546      -27.3987698970  TIP3      18400           0.0000000000
     77451     18592  TIP3      H1             10.8457464993       16.7122676918      -26.8713293963  TIP3      18400           0.0000000000
     77452     18592  TIP3      H2              9.9278667815       15.5130670434      -27.1295795751  TIP3      18400           0.0000000000
     77453     18593  TIP3      OH2            11.2227141256       19.6139214776      -37.5986949092  TIP3      18401           0.0000000000
     77454     18593  TIP3      H1             11.1103278915       19.5367310765      -38.5634404522  TIP3      18401           0.0000000000
     77455     18593  TIP3      H2             11.2225451384       20.5763270701      -37.4418609405  TIP3      18401           0.0000000000
     77456     18594  TIP3      OH2             4.8564894203       18.4939403090      -35.7738940683  TIP3      18402           0.0000000000
     77457     18594  TIP3      H1              5.0030228947       18.0792434668      -34.8969733652  TIP3      18402           0.0000000000
     77458     18594  TIP3      H2              4.0088011843       18.0836616813      -36.0133493421  TIP3      18402           0.0000000000
     77459     18595  TIP3      OH2            14.2751781584       18.8272211896      -40.6145468000  TIP3      18403           0.0000000000
     77460     18595  TIP3      H1             14.7295853502       18.0695382390      -41.0476556298  TIP3      18403           0.0000000000
     77461     18595  TIP3      H2             14.3146898597       18.5667792122      -39.6704982917  TIP3      18403           0.0000000000
     77462     18596  TIP3      OH2            13.9744869772       18.7623825711      -37.8399196683  TIP3      18404           0.0000000000
     77463     18596  TIP3      H1             13.0168919004       18.8463546470      -37.6548354399  TIP3      18404           0.0000000000
     77464     18596  TIP3      H2             14.2073837989       18.0208926050      -37.2609047469  TIP3      18404           0.0000000000
     77465     18597  TIP3      OH2             4.0893115152       14.1907036100      -27.7822110047  TIP3      18405           0.0000000000
     77466     18597  TIP3      H1              4.3093318796       13.8383058883      -26.8915392612  TIP3      18405           0.0000000000
     77467     18597  TIP3      H2              3.2166470613       13.7999519784      -27.9872774713  TIP3      18405           0.0000000000
     77468     18598  TIP3      OH2             6.7879698716        2.6832069791      -31.8265199133  TIP3      18406           0.0000000000
     77469     18598  TIP3      H1              5.8850891440        2.5574937963      -32.1925473420  TIP3      18406           0.0000000000
     77470     18598  TIP3      H2              6.6543451269        3.5135016787      -31.3403505397  TIP3      18406           0.0000000000
     77471     18599  TIP3      OH2            11.4366353052        2.3476970041      -28.4543026633  TIP3      18407           0.0000000000
     77472     18599  TIP3      H1             11.8177090421        1.9279740699      -27.6615703574  TIP3      18407           0.0000000000
     77473     18599  TIP3      H2             10.4646640172        2.2265414383      -28.3219893675  TIP3      18407           0.0000000000
     77474     18600  TIP3      OH2            14.6928725815        6.1881426093      -27.6120159982  TIP3      18408           0.0000000000
     77475     18600  TIP3      H1             14.1468056213        5.9803702613      -26.8178643679  TIP3      18408           0.0000000000
     77476     18600  TIP3      H2             14.5507802751        7.1332196378      -27.7883118790  TIP3      18408           0.0000000000
     77477     18601  TIP3      OH2            15.4750591042       11.0184007723      -41.6694097063  TIP3      18409           0.0000000000
     77478     18601  TIP3      H1             15.4542004976       10.8333693824      -42.6366526077  TIP3      18409           0.0000000000
     77479     18601  TIP3      H2             16.3358430821       11.4585607713      -41.6148075859  TIP3      18409           0.0000000000
     77480     18602  TIP3      OH2            11.1032563002        4.9190681457      -41.1628024485  TIP3      18410           0.0000000000
     77481     18602  TIP3      H1             10.7684374349        4.8787985286      -40.2467309516  TIP3      18410           0.0000000000
     77482     18602  TIP3      H2             10.7461345255        4.0583431875      -41.4601788889  TIP3      18410           0.0000000000
     77483     18603  TIP3      OH2             6.8865419120        7.6518621392      -30.5814178045  TIP3      18411           0.0000000000
     77484     18603  TIP3      H1              6.1519296063        7.6430033333      -29.9405228716  TIP3      18411           0.0000000000
     77485     18603  TIP3      H2              6.8482922870        8.5680428504      -30.9345085162  TIP3      18411           0.0000000000
     77486     18604  TIP3      OH2             6.8503463480        7.7704875128      -35.7077116368  TIP3      18412           0.0000000000
     77487     18604  TIP3      H1              5.9119244196        7.5220882610      -35.8395920658  TIP3      18412           0.0000000000
     77488     18604  TIP3      H2              7.2264568367        7.4820701909      -36.5618114698  TIP3      18412           0.0000000000
     77489     18605  TIP3      OH2            12.3693073841        8.2772518477      -36.9295585819  TIP3      18413           0.0000000000
     77490     18605  TIP3      H1             11.9756139869        9.1001130919      -37.3010493334  TIP3      18413           0.0000000000
     77491     18605  TIP3      H2             13.0563063479        8.1079767217      -37.5957391022  TIP3      18413           0.0000000000
     77492     18606  TIP3      OH2            11.4937312769        8.4461828771      -25.5699013145  TIP3      18414           0.0000000000
     77493     18606  TIP3      H1             10.8564846790        7.7844771027      -25.2059656389  TIP3      18414           0.0000000000
     77494     18606  TIP3      H2             12.2558522846        8.3425570775      -25.0221956270  TIP3      18414           0.0000000000
     77495     18607  TIP3      OH2            13.4065167106        7.7693425338      -34.0939487239  TIP3      18415           0.0000000000
     77496     18607  TIP3      H1             13.1207965715        8.3307696411      -34.8333153278  TIP3      18415           0.0000000000
     77497     18607  TIP3      H2             13.4988236546        6.9179113485      -34.5617695380  TIP3      18415           0.0000000000
     77498     18608  TIP3      OH2             4.4952473170        7.9070702293      -28.8997900234  TIP3      18416           0.0000000000
     77499     18608  TIP3      H1              4.5924234104        8.3260574531      -28.0247776413  TIP3      18416           0.0000000000
     77500     18608  TIP3      H2              4.0742961500        7.0650302012      -28.6716009296  TIP3      18416           0.0000000000
     77501     18609  TIP3      OH2             7.8834643946        5.3038742418      -42.0376920762  TIP3      18417           0.0000000000
     77502     18609  TIP3      H1              7.4284919982        4.8823099143      -41.2803436899  TIP3      18417           0.0000000000
     77503     18609  TIP3      H2              7.1735255945        5.7350569691      -42.5293971394  TIP3      18417           0.0000000000
     77504     18610  TIP3      OH2             1.1697006174        5.0156288356      -34.9037402703  TIP3      18418           0.0000000000
     77505     18610  TIP3      H1              1.8541845013        4.9761595690      -34.2033983119  TIP3      18418           0.0000000000
     77506     18610  TIP3      H2              1.6172367716        4.6419841481      -35.6849128381  TIP3      18418           0.0000000000
     77507     18611  TIP3      OH2             2.4330684718        5.7341861040      -39.5587605214  TIP3      18419           0.0000000000
     77508     18611  TIP3      H1              2.9472906779        6.3466044867      -40.1157305982  TIP3      18419           0.0000000000
     77509     18611  TIP3      H2              1.7467959234        6.3576507867      -39.2377413530  TIP3      18419           0.0000000000
     77510     18612  TIP3      OH2            12.6188304676        9.3489479664      -29.5229972257  TIP3      18420           0.0000000000
     77511     18612  TIP3      H1             12.9734700683        8.6619360462      -30.1194464255  TIP3      18420           0.0000000000
     77512     18612  TIP3      H2             12.1231818509        8.8192476386      -28.8745424827  TIP3      18420           0.0000000000
     77513     18613  TIP3      OH2             9.4052128031        5.3323923714      -34.7035695329  TIP3      18421           0.0000000000
     77514     18613  TIP3      H1              8.4710020801        5.3320198290      -34.4113304048  TIP3      18421           0.0000000000
     77515     18613  TIP3      H2              9.8862378290        5.1571640690      -33.8803437658  TIP3      18421           0.0000000000
     77516     18614  TIP3      OH2             4.2126790088        6.8775186101      -35.8340643450  TIP3      18422           0.0000000000
     77517     18614  TIP3      H1              3.3291128993        7.0343291036      -36.2256364008  TIP3      18422           0.0000000000
     77518     18614  TIP3      H2              4.4970968218        6.0436840372      -36.2437490444  TIP3      18422           0.0000000000
     77519     18615  TIP3      OH2             7.8570646987        6.9248338240      -38.2087808625  TIP3      18423           0.0000000000
     77520     18615  TIP3      H1              8.8127579736        7.0366677719      -38.0472647291  TIP3      18423           0.0000000000
     77521     18615  TIP3      H2              7.6196137014        7.6083833569      -38.8633732146  TIP3      18423           0.0000000000
     77522     18616  TIP3      OH2            13.8116848626        4.5620341212      -31.4647101809  TIP3      18424           0.0000000000
     77523     18616  TIP3      H1             13.1259266736        4.6112716545      -30.7592703103  TIP3      18424           0.0000000000
     77524     18616  TIP3      H2             13.3005763705        4.3073988772      -32.2464609737  TIP3      18424           0.0000000000
     77525     18617  TIP3      OH2             6.5628566962        8.1017407710      -40.6196305288  TIP3      18425           0.0000000000
     77526     18617  TIP3      H1              6.0289399080        7.7235311167      -41.3392290938  TIP3      18425           0.0000000000
     77527     18617  TIP3      H2              7.3831599944        8.3094832602      -41.0934646414  TIP3      18425           0.0000000000
     77528     18618  TIP3      OH2            16.9955731217       20.2267177448      -25.0760497909  TIP3      18426           0.0000000000
     77529     18618  TIP3      H1             17.2660557253       20.5606220805      -25.9632532510  TIP3      18426           0.0000000000
     77530     18618  TIP3      H2             17.7447065932       20.5231313247      -24.5394101712  TIP3      18426           0.0000000000
     77531     18619  TIP3      OH2             4.7100757350       12.6886693509      -25.5668862987  TIP3      18427           0.0000000000
     77532     18619  TIP3      H1              5.4041038513       12.9225640445      -24.9301581075  TIP3      18427           0.0000000000
     77533     18619  TIP3      H2              3.9160522832       12.7829311787      -24.9968505284  TIP3      18427           0.0000000000
     77534     18620  TIP3      OH2            10.6848511074        8.0846880338      -32.8099869395  TIP3      18428           0.0000000000
     77535     18620  TIP3      H1             11.2854367527        7.5515402550      -33.3438857860  TIP3      18428           0.0000000000
     77536     18620  TIP3      H2             10.5399206301        7.5339585829      -32.0285966176  TIP3      18428           0.0000000000
     77537     18621  TIP3      OH2             5.6966623006        4.2291800211      -36.3732760553  TIP3      18429           0.0000000000
     77538     18621  TIP3      H1              5.3866713630        3.3052870447      -36.3808868582  TIP3      18429           0.0000000000
     77539     18621  TIP3      H2              6.4870823152        4.1612673530      -36.9224673133  TIP3      18429           0.0000000000
     77540     18622  TIP3      OH2             9.3229172780        6.4061544048      -30.4141724528  TIP3      18430           0.0000000000
     77541     18622  TIP3      H1              8.5010533737        6.9271629005      -30.3138022933  TIP3      18430           0.0000000000
     77542     18622  TIP3      H2              9.8786300792        6.7545190364      -29.6865874141  TIP3      18430           0.0000000000
     77543     18623  TIP3      OH2             9.9154681442       12.6353977222      -38.6990252237  TIP3      18431           0.0000000000
     77544     18623  TIP3      H1              9.1138201883       12.1692040148      -39.0342978013  TIP3      18431           0.0000000000
     77545     18623  TIP3      H2              9.6869862877       12.7591696619      -37.7546845386  TIP3      18431           0.0000000000
     77546     18624  TIP3      OH2            17.1060977279       11.8299345907      -29.8838323586  TIP3      18432           0.0000000000
     77547     18624  TIP3      H1             17.6558402558       12.3256499164      -30.5193869569  TIP3      18432           0.0000000000
     77548     18624  TIP3      H2             16.2422874413       11.8693472129      -30.3448412487  TIP3      18432           0.0000000000
     77549     18625  TIP3      OH2            13.7477599205        5.4469339809      -40.5319606162  TIP3      18433           0.0000000000
     77550     18625  TIP3      H1             12.7899846948        5.6018733083      -40.6367691276  TIP3      18433           0.0000000000
     77551     18625  TIP3      H2             14.0765585135        6.2939254542      -40.1557685049  TIP3      18433           0.0000000000
     77552     18626  TIP3      OH2            11.4165656033       12.8954444376      -27.4674373941  TIP3      18434           0.0000000000
     77553     18626  TIP3      H1             11.0668252620       12.4615775470      -26.6778339627  TIP3      18434           0.0000000000
     77554     18626  TIP3      H2             11.1459858518       13.8108965566      -27.3577689708  TIP3      18434           0.0000000000
     77555     18627  TIP3      OH2            14.4786303538        7.3676266805      -38.9032277313  TIP3      18435           0.0000000000
     77556     18627  TIP3      H1             15.3593182433        7.2362949800      -38.4906685134  TIP3      18435           0.0000000000
     77557     18627  TIP3      H2             14.5839537037        8.1901179480      -39.4093271156  TIP3      18435           0.0000000000
     77558     18628  TIP3      OH2             5.0262976796       12.0318156006      -32.8983526710  TIP3      18436           0.0000000000
     77559     18628  TIP3      H1              5.7038372425       11.9465639782      -33.5977946832  TIP3      18436           0.0000000000
     77560     18628  TIP3      H2              5.0833666777       11.1721927580      -32.4423258685  TIP3      18436           0.0000000000
     77561     18629  TIP3      OH2            12.0079343643       14.1026214465      -39.6670920877  TIP3      18437           0.0000000000
     77562     18629  TIP3      H1             11.6641094281       14.9478490653      -39.3103474539  TIP3      18437           0.0000000000
     77563     18629  TIP3      H2             11.2761364032       13.4857048196      -39.4484490326  TIP3      18437           0.0000000000
     77564     18630  TIP3      OH2             2.0096414501       10.4360546551      -27.6544685974  TIP3      18438           0.0000000000
     77565     18630  TIP3      H1              2.1934489571        9.9935929779      -26.8028624270  TIP3      18438           0.0000000000
     77566     18630  TIP3      H2              1.3788048301        9.8157006080      -28.0605211722  TIP3      18438           0.0000000000
     77567     18631  TIP3      OH2            13.7098898973       15.3524514709      -27.4795632947  TIP3      18439           0.0000000000
     77568     18631  TIP3      H1             12.7892103222       15.4939923953      -27.7646056254  TIP3      18439           0.0000000000
     77569     18631  TIP3      H2             13.6299253771       15.5939194799      -26.5543776822  TIP3      18439           0.0000000000
     77570     18632  TIP3      OH2            19.3624665824        7.4912661182      -39.1173821373  TIP3      18440           0.0000000000
     77571     18632  TIP3      H1             18.8089807931        7.2212123245      -39.8683573106  TIP3      18440           0.0000000000
     77572     18632  TIP3      H2             19.4608512112        8.4413576467      -39.3662719580  TIP3      18440           0.0000000000
     77573     18633  TIP3      OH2            19.3676414999       13.3854828817      -26.3133971398  TIP3      18441           0.0000000000
     77574     18633  TIP3      H1             18.4805430201       13.5625267369      -26.7124477376  TIP3      18441           0.0000000000
     77575     18633  TIP3      H2             19.9189860682       13.2947679349      -27.1222859771  TIP3      18441           0.0000000000
     77576     18634  TIP3      OH2            17.6336436712       16.3351707705      -38.7259981677  TIP3      18442           0.0000000000
     77577     18634  TIP3      H1             17.3007108540       15.4969694232      -38.3806216058  TIP3      18442           0.0000000000
     77578     18634  TIP3      H2             17.9886585709       16.1175539893      -39.6033859781  TIP3      18442           0.0000000000
     77579     18635  TIP3      OH2            14.8783127366       11.1510481175      -31.6048510757  TIP3      18443           0.0000000000
     77580     18635  TIP3      H1             13.9379715539       10.9423993623      -31.7245783145  TIP3      18443           0.0000000000
     77581     18635  TIP3      H2             15.3090189577       10.3947312072      -32.0500893656  TIP3      18443           0.0000000000
     77582     18636  TIP3      OH2             7.3996671636       15.4870249635      -35.5132230125  TIP3      18444           0.0000000000
     77583     18636  TIP3      H1              7.8967606880       16.2933677585      -35.7200630132  TIP3      18444           0.0000000000
     77584     18636  TIP3      H2              6.5197478432       15.7153010615      -35.8438432978  TIP3      18444           0.0000000000
     77585     18637  TIP3      OH2             3.1635731722       10.3223740345      -40.9429476149  TIP3      18445           0.0000000000
     77586     18637  TIP3      H1              3.7427012034       10.9874498732      -40.5331024038  TIP3      18445           0.0000000000
     77587     18637  TIP3      H2              2.2733699012       10.6358705139      -40.6942974816  TIP3      18445           0.0000000000
     77588     18638  TIP3      OH2             8.8059304058       13.1531179776      -36.0041325259  TIP3      18446           0.0000000000
     77589     18638  TIP3      H1              8.4937981572       14.0720090362      -35.9023056942  TIP3      18446           0.0000000000
     77590     18638  TIP3      H2              8.0950999292       12.6560413664      -35.5529387517  TIP3      18446           0.0000000000
     77591     18639  TIP3      OH2             9.2619721277       17.3375223777      -29.5875858979  TIP3      18447           0.0000000000
     77592     18639  TIP3      H1              9.7236133654       18.1397938003      -29.8747604675  TIP3      18447           0.0000000000
     77593     18639  TIP3      H2              9.8805219547       16.9775856422      -28.9305005325  TIP3      18447           0.0000000000
     77594     18640  TIP3      OH2             7.4874003981       18.1383517405      -36.4729108074  TIP3      18448           0.0000000000
     77595     18640  TIP3      H1              6.5244440358       18.2816753116      -36.3358319820  TIP3      18448           0.0000000000
     77596     18640  TIP3      H2              7.8538414812       18.9739914933      -36.1264887055  TIP3      18448           0.0000000000
     77597     18641  TIP3      OH2            12.7951212274       13.3440528849      -29.9545742837  TIP3      18449           0.0000000000
     77598     18641  TIP3      H1             12.4529352919       13.1240780953      -29.0655827637  TIP3      18449           0.0000000000
     77599     18641  TIP3      H2             13.4228016262       12.6248489902      -30.1368007607  TIP3      18449           0.0000000000
     77600     18642  TIP3      OH2            15.1259937405       14.4096447667      -40.8780530528  TIP3      18450           0.0000000000
     77601     18642  TIP3      H1             15.4202070860       13.9341206160      -40.0747818748  TIP3      18450           0.0000000000
     77602     18642  TIP3      H2             14.1724782937       14.2234208440      -40.7977139280  TIP3      18450           0.0000000000
     77603     18643  TIP3      OH2            15.5865765469       17.8995316952      -27.4541664239  TIP3      18451           0.0000000000
     77604     18643  TIP3      H1             14.9110476302       17.4350583529      -27.9784542942  TIP3      18451           0.0000000000
     77605     18643  TIP3      H2             15.7953045754       18.6110357614      -28.1012735820  TIP3      18451           0.0000000000
     77606     18644  TIP3      OH2            19.5862207654       18.7595046481      -40.6229665845  TIP3      18452           0.0000000000
     77607     18644  TIP3      H1             20.2746416291       19.4235958001      -40.8287860530  TIP3      18452           0.0000000000
     77608     18644  TIP3      H2             18.8716697171       19.3708980797      -40.3369124765  TIP3      18452           0.0000000000
     77609     18645  TIP3      OH2             3.6644105189        5.1548442333      -28.0690557072  TIP3      18453           0.0000000000
     77610     18645  TIP3      H1              2.7574440762        5.5083587184      -28.1116966435  TIP3      18453           0.0000000000
     77611     18645  TIP3      H2              3.5424539487        4.3041844030      -27.6256526061  TIP3      18453           0.0000000000
     77612     18646  TIP3      OH2            15.8976510780       13.0411446405      -38.6362390985  TIP3      18454           0.0000000000
     77613     18646  TIP3      H1             15.6621983827       12.2541773924      -38.0989280368  TIP3      18454           0.0000000000
     77614     18646  TIP3      H2             16.8531157803       13.0837928924      -38.4575504049  TIP3      18454           0.0000000000
     77615     18647  TIP3      OH2             3.2744331001       16.9507190607      -29.6560409579  TIP3      18455           0.0000000000
     77616     18647  TIP3      H1              3.5790802744       16.0299308586      -29.6536481643  TIP3      18455           0.0000000000
     77617     18647  TIP3      H2              3.5446155283       17.2401187279      -28.7753583314  TIP3      18455           0.0000000000
     77618     18648  TIP3      OH2             9.2524080179       15.4779848507      -42.3819839152  TIP3      18456           0.0000000000
     77619     18648  TIP3      H1              9.3520144531       14.7138198848      -42.9729142675  TIP3      18456           0.0000000000
     77620     18648  TIP3      H2              8.8101010935       15.0474771233      -41.6179084212  TIP3      18456           0.0000000000
     77621     18649  TIP3      OH2             8.0233908055       15.0054349052      -39.9296869589  TIP3      18457           0.0000000000
     77622     18649  TIP3      H1              8.2943522543       14.4904143226      -39.1600985703  TIP3      18457           0.0000000000
     77623     18649  TIP3      H2              8.1160091059       15.9313663183      -39.6067576496  TIP3      18457           0.0000000000
     77624     18650  TIP3      OH2             4.5680911644       12.2506862673      -39.4436252549  TIP3      18458           0.0000000000
     77625     18650  TIP3      H1              3.8525749265       12.6466467102      -38.9066667128  TIP3      18458           0.0000000000
     77626     18650  TIP3      H2              5.0722443236       13.0309121834      -39.7383429431  TIP3      18458           0.0000000000
     77627     18651  TIP3      OH2            12.3796664032        4.9265002962      -29.1534708473  TIP3      18459           0.0000000000
     77628     18651  TIP3      H1             13.1017916500        4.9950451977      -28.5170376305  TIP3      18459           0.0000000000
     77629     18651  TIP3      H2             12.0029799385        4.0547988265      -28.9243543437  TIP3      18459           0.0000000000
     77630     18652  TIP3      OH2            13.1316185844        4.5100099807      -38.0285799383  TIP3      18460           0.0000000000
     77631     18652  TIP3      H1             13.3578083520        4.9792634040      -38.8528290899  TIP3      18460           0.0000000000
     77632     18652  TIP3      H2             13.7109070749        4.9502001606      -37.3928722659  TIP3      18460           0.0000000000
     77633     18653  TIP3      OH2            10.8290896733       16.6675958368      -39.2349135070  TIP3      18461           0.0000000000
     77634     18653  TIP3      H1             10.0109186648       17.2003739686      -39.1618635708  TIP3      18461           0.0000000000
     77635     18653  TIP3      H2             11.3682416732       17.2184414024      -39.8209339917  TIP3      18461           0.0000000000
     77636     18654  TIP3      OH2            10.3711625786        6.2595017378      -37.2195333371  TIP3      18462           0.0000000000
     77637     18654  TIP3      H1             11.1508461099        6.8458432049      -37.1693958025  TIP3      18462           0.0000000000
     77638     18654  TIP3      H2             10.1012385903        6.1320576612      -36.2899445874  TIP3      18462           0.0000000000
     77639     18655  TIP3      OH2            10.9180543680        7.2816982698      -28.0724503978  TIP3      18463           0.0000000000
     77640     18655  TIP3      H1             10.9762507285        7.8591048176      -27.2833681636  TIP3      18463           0.0000000000
     77641     18655  TIP3      H2             11.5803614739        6.5952877959      -27.9346376855  TIP3      18463           0.0000000000
     77642     18656  TIP3      OH2            11.2162543977        3.3159939723      -36.3401530666  TIP3      18464           0.0000000000
     77643     18656  TIP3      H1             10.8952168275        3.9631613050      -35.6882749760  TIP3      18464           0.0000000000
     77644     18656  TIP3      H2             11.9119492481        3.8630390386      -36.7797306077  TIP3      18464           0.0000000000
     77645     18657  TIP3      OH2             8.2315626039       17.7023038332      -39.2039930367  TIP3      18465           0.0000000000
     77646     18657  TIP3      H1              8.3228526498       18.5169951567      -39.7552096946  TIP3      18465           0.0000000000
     77647     18657  TIP3      H2              7.9568176068       18.0667339479      -38.3341603079  TIP3      18465           0.0000000000
     77648     18658  TIP3      OH2             6.8764576696        4.4234156673      -39.6268403159  TIP3      18466           0.0000000000
     77649     18658  TIP3      H1              6.8262469063        5.3217347465      -39.2422470868  TIP3      18466           0.0000000000
     77650     18658  TIP3      H2              7.7851760353        4.1793865516      -39.3633393162  TIP3      18466           0.0000000000
     77651     18659  TIP3      OH2            17.1014907838        5.1680786019      -27.1512584758  TIP3      18467           0.0000000000
     77652     18659  TIP3      H1             16.1809351824        5.4873034453      -27.3006272793  TIP3      18467           0.0000000000
     77653     18659  TIP3      H2             17.4039638925        5.1537591052      -28.0758116605  TIP3      18467           0.0000000000
     77654     18660  TIP3      OH2            15.7181502229        8.9432892966      -33.1793698401  TIP3      18468           0.0000000000
     77655     18660  TIP3      H1             14.8924979830        8.4976962641      -33.4512668464  TIP3      18468           0.0000000000
     77656     18660  TIP3      H2             16.1977459945        8.2560148642      -32.6631261254  TIP3      18468           0.0000000000
     77657     18661  TIP3      OH2             5.1087124533       14.8649174625      -40.5852214079  TIP3      18469           0.0000000000
     77658     18661  TIP3      H1              5.7759191933       15.4920436925      -40.2683493005  TIP3      18469           0.0000000000
     77659     18661  TIP3      H2              5.6325791413       14.4003809424      -41.2687306950  TIP3      18469           0.0000000000
     77660     18662  TIP3      OH2             3.4539318030        7.5382058715      -41.4400878518  TIP3      18470           0.0000000000
     77661     18662  TIP3      H1              3.4718411837        8.4969032588      -41.2332499923  TIP3      18470           0.0000000000
     77662     18662  TIP3      H2              2.5619943950        7.3640609100      -41.7479394266  TIP3      18470           0.0000000000
     77663     18663  TIP3      OH2            16.6973404509       17.9840429016      -31.7285493613  TIP3      18471           0.0000000000
     77664     18663  TIP3      H1             16.6205191590       18.8479999417      -32.1795302874  TIP3      18471           0.0000000000
     77665     18663  TIP3      H2             17.5530157552       18.1955245629      -31.3085280060  TIP3      18471           0.0000000000
     77666     18664  TIP3      OH2             4.2698196414        2.3235368193      -32.6950764332  TIP3      18472           0.0000000000
     77667     18664  TIP3      H1              4.0774674332        2.3412549822      -33.6590991649  TIP3      18472           0.0000000000
     77668     18664  TIP3      H2              3.8564111365        1.4704489407      -32.4450455702  TIP3      18472           0.0000000000
     77669     18665  TIP3      OH2             3.2261071336       16.2454435101      -36.5494868352  TIP3      18473           0.0000000000
     77670     18665  TIP3      H1              2.3733655454       16.6940769012      -36.5966408872  TIP3      18473           0.0000000000
     77671     18665  TIP3      H2              3.7021423723       16.7099151040      -37.2509379871  TIP3      18473           0.0000000000
     77672     18666  TIP3      OH2             2.4691572801       18.8874628694      -25.3193943995  TIP3      18474           0.0000000000
     77673     18666  TIP3      H1              3.0055904060       18.6960393456      -24.5295252754  TIP3      18474           0.0000000000
     77674     18666  TIP3      H2              2.0046686143       18.0397663104      -25.4451517758  TIP3      18474           0.0000000000
     77675     18667  TIP3      OH2            11.2465749572       17.3287481075      -42.2584731417  TIP3      18475           0.0000000000
     77676     18667  TIP3      H1             10.5536773014       16.6695652651      -42.0309826287  TIP3      18475           0.0000000000
     77677     18667  TIP3      H2             11.9644459748       16.7301544317      -42.5065857628  TIP3      18475           0.0000000000
     77678     18668  TIP3      OH2            15.8048133213       17.0722635194      -42.0719995426  TIP3      18476           0.0000000000
     77679     18668  TIP3      H1             16.1005458682       16.2971191118      -41.5690153334  TIP3      18476           0.0000000000
     77680     18668  TIP3      H2             16.5662229697       17.2987818069      -42.6244753968  TIP3      18476           0.0000000000
     77681     18669  TIP3      OH2             2.3472417553       12.6409126500      -24.2770861993  TIP3      18477           0.0000000000
     77682     18669  TIP3      H1              2.5318909497       11.7516009833      -24.6292608228  TIP3      18477           0.0000000000
     77683     18669  TIP3      H2              1.6004982444       12.9268280199      -24.8387507095  TIP3      18477           0.0000000000
     77684     18670  TIP3      OH2             6.6920803720       13.0141035562      -42.2541607555  TIP3      18478           0.0000000000
     77685     18670  TIP3      H1              6.8307215284       12.2525374489      -41.6707327684  TIP3      18478           0.0000000000
     77686     18670  TIP3      H2              7.4401767781       12.8945949588      -42.8717824583  TIP3      18478           0.0000000000
     77687     18671  TIP3      OH2             9.1019339898       12.6818382444      -24.9360903212  TIP3      18479           0.0000000000
     77688     18671  TIP3      H1              8.7042312676       12.9417567790      -25.7823839317  TIP3      18479           0.0000000000
     77689     18671  TIP3      H2              9.1775018953       11.7100480607      -24.9646559622  TIP3      18479           0.0000000000
     77690     18672  TIP3      OH2            12.1218721208       14.1229390605      -42.4758577936  TIP3      18480           0.0000000000
     77691     18672  TIP3      H1             11.8517014754       14.2035498210      -41.5476537319  TIP3      18480           0.0000000000
     77692     18672  TIP3      H2             11.9329176681       13.1652164925      -42.6209448855  TIP3      18480           0.0000000000
     77693     18673  TIP3      OH2            14.7785643194       12.5319686367      -27.4655918191  TIP3      18481           0.0000000000
     77694     18673  TIP3      H1             15.5458536243       13.1263168480      -27.5888840248  TIP3      18481           0.0000000000
     77695     18673  TIP3      H2             14.0489116709       13.1721920864      -27.4544797994  TIP3      18481           0.0000000000
     77696     18674  TIP3      OH2             3.2077036418        9.9021591199      -24.8938310246  TIP3      18482           0.0000000000
     77697     18674  TIP3      H1              3.6479718439        9.0499047646      -25.0197713981  TIP3      18482           0.0000000000
     77698     18674  TIP3      H2              3.0377165825        9.8874320140      -23.9372156086  TIP3      18482           0.0000000000
     77699     18675  TIP3      OH2             7.8939764153       11.0316093248      -39.8238515991  TIP3      18483           0.0000000000
     77700     18675  TIP3      H1              7.3900687526       10.4920913376      -39.1963814514  TIP3      18483           0.0000000000
     77701     18675  TIP3      H2              8.1926687760       10.3586311294      -40.4787940142  TIP3      18483           0.0000000000
     77702     18676  TIP3      OH2             7.1032832110        8.8083695996      -27.5861445122  TIP3      18484           0.0000000000
     77703     18676  TIP3      H1              6.6016991128        9.5690832887      -27.2628700504  TIP3      18484           0.0000000000
     77704     18676  TIP3      H2              7.5834998774        9.2112168013      -28.3299458643  TIP3      18484           0.0000000000
     77705     18677  TIP3      OH2             8.9705805616        9.2540407475      -41.6269553094  TIP3      18485           0.0000000000
     77706     18677  TIP3      H1              8.8187225346        9.1642072045      -42.5899866428  TIP3      18485           0.0000000000
     77707     18677  TIP3      H2              9.9466730174        9.3067436174      -41.5604375580  TIP3      18485           0.0000000000
     77708     18678  TIP3      OH2            12.2600628430       11.4517960293      -24.1912865168  TIP3      18486           0.0000000000
     77709     18678  TIP3      H1             13.2150626999       11.4354089374      -24.2993084102  TIP3      18486           0.0000000000
     77710     18678  TIP3      H2             11.9757960161       10.6812236480      -23.6939337839  TIP3      18486           0.0000000000
     77711     18679  TIP3      OH2            18.2926991828       11.5695484732      -42.2075951505  TIP3      18487           0.0000000000
     77712     18679  TIP3      H1             18.1102314945       11.1930685619      -43.0837215133  TIP3      18487           0.0000000000
     77713     18679  TIP3      H2             18.3888797531       12.5332815826      -42.3996552169  TIP3      18487           0.0000000000
     77714     18680  TIP3      OH2             7.5488583952        6.2069018210      -26.4654599478  TIP3      18488           0.0000000000
     77715     18680  TIP3      H1              7.6711762318        5.5095058546      -27.1344222239  TIP3      18488           0.0000000000
     77716     18680  TIP3      H2              7.5349633601        7.0308480388      -27.0007041115  TIP3      18488           0.0000000000
     77717     18681  TIP3      OH2             7.9721745638        4.5846047511      -28.9349784935  TIP3      18489           0.0000000000
     77718     18681  TIP3      H1              8.4777836800        5.0690697634      -29.6311774827  TIP3      18489           0.0000000000
     77719     18681  TIP3      H2              7.0758388315        4.5194447887      -29.3358471191  TIP3      18489           0.0000000000
     77720     18682  TIP3      OH2             9.4868439056       10.0741302627      -28.7229912305  TIP3      18490           0.0000000000
     77721     18682  TIP3      H1             10.2724653192        9.9280813717      -29.2574995324  TIP3      18490           0.0000000000
     77722     18682  TIP3      H2              9.1466720438       10.9295540136      -29.0231405171  TIP3      18490           0.0000000000
     77723     18683  TIP3      OH2            15.2343050511       10.6573702129      -25.5664724713  TIP3      18491           0.0000000000
     77724     18683  TIP3      H1             14.9830045894       11.3734797066      -26.1936307694  TIP3      18491           0.0000000000
     77725     18683  TIP3      H2             16.1844853170       10.6172400225      -25.8034150962  TIP3      18491           0.0000000000
     77726     18684  TIP3      OH2             5.9899652234        7.4774439666      -24.5934489838  TIP3      18492           0.0000000000
     77727     18684  TIP3      H1              5.2584157890        6.8616636536      -24.7423101840  TIP3      18492           0.0000000000
     77728     18684  TIP3      H2              6.6834100587        7.1224332793      -25.1790157904  TIP3      18492           0.0000000000
     77729     18685  TIP3      OH2             8.7631516180        2.0367984962      -28.5445820863  TIP3      18493           0.0000000000
     77730     18685  TIP3      H1              8.5802553733        3.0003097102      -28.6358823443  TIP3      18493           0.0000000000
     77731     18685  TIP3      H2              8.0107218349        1.6700555194      -29.0412530113  TIP3      18493           0.0000000000
     77732     18686  TIP3      OH2            10.0666615987        6.2623348326      -24.9037554789  TIP3      18494           0.0000000000
     77733     18686  TIP3      H1              9.6433261413        6.1869376127      -24.0304727806  TIP3      18494           0.0000000000
     77734     18686  TIP3      H2              9.2681131342        6.1945497468      -25.4701081303  TIP3      18494           0.0000000000
     77735     18687  TIP3      OH2            12.7506515087        5.5237252094      -25.8041754814  TIP3      18495           0.0000000000
     77736     18687  TIP3      H1             11.7736335977        5.5517598076      -25.7381439718  TIP3      18495           0.0000000000
     77737     18687  TIP3      H2             12.9999640805        4.8500165632      -25.1513326066  TIP3      18495           0.0000000000
     77738     18688  TIP3      OH2            14.2492114960        4.1408842323      -23.8893248406  TIP3      18496           0.0000000000
     77739     18688  TIP3      H1             14.3083727941        3.1562269605      -23.9363301945  TIP3      18496           0.0000000000
     77740     18688  TIP3      H2             14.1018673569        4.3231543458      -22.9716629551  TIP3      18496           0.0000000000
     77741     18689  TIP3      OH2             4.1301955573        5.3963239818      -24.8201905302  TIP3      18497           0.0000000000
     77742     18689  TIP3      H1              4.3890708874        4.6704742850      -25.4095562431  TIP3      18497           0.0000000000
     77743     18689  TIP3      H2              4.0691725156        4.9700121855      -23.9421699034  TIP3      18497           0.0000000000
     77744     18690  TIP3      OH2             8.9615549582        1.4196953646      -25.8198766920  TIP3      18498           0.0000000000
     77745     18690  TIP3      H1              9.6275546691        0.7016297203      -25.8501993690  TIP3      18498           0.0000000000
     77746     18690  TIP3      H2              8.8535495460        1.5711864690      -26.7751740349  TIP3      18498           0.0000000000
     77747     18691  TIP3      OH2             9.3691799459        3.0501098230      -23.7432944162  TIP3      18499           0.0000000000
     77748     18691  TIP3      H1              9.1767409625        2.5286362163      -24.5592306641  TIP3      18499           0.0000000000
     77749     18691  TIP3      H2              8.7455859916        3.8029646522      -23.7994982862  TIP3      18499           0.0000000000
     77750     18692  TIP3      OH2             8.8015182658       19.9566486998      -40.5471554043  TIP3      18500           0.0000000000
     77751     18692  TIP3      H1              9.7683784132       20.0406422060      -40.4800757148  TIP3      18500           0.0000000000
     77752     18692  TIP3      H2              8.6543656460       20.5574344770      -41.2872592454  TIP3      18500           0.0000000000
     77753     18693  TIP3      OH2             2.3538307667       14.5277329859      -41.0790011188  TIP3      18501           0.0000000000
     77754     18693  TIP3      H1              3.3209253708       14.6224574801      -40.8989237334  TIP3      18501           0.0000000000
     77755     18693  TIP3      H2              2.4044567157       13.8845989710      -41.8257534684  TIP3      18501           0.0000000000
     77756     18694  TIP3      OH2             1.1371519918       19.9127666037      -36.1146103480  TIP3      18502           0.0000000000
     77757     18694  TIP3      H1              0.4163983348       19.4276152464      -36.5730996915  TIP3      18502           0.0000000000
     77758     18694  TIP3      H2              1.4168088539       19.2595651099      -35.4479059749  TIP3      18502           0.0000000000
     77759     18695  TIP3      OH2             1.9585135351       18.0496341089      -34.2366612571  TIP3      18503           0.0000000000
     77760     18695  TIP3      H1              1.6052851021       17.1724593164      -34.0327489034  TIP3      18503           0.0000000000
     77761     18695  TIP3      H2              2.1856225204       18.3812085700      -33.3520832871  TIP3      18503           0.0000000000
     77762     18696  TIP3      OH2            20.1242778654       18.3454126664      -31.2763272020  TIP3      18504           0.0000000000
     77763     18696  TIP3      H1             19.6094621682       18.7474843210      -30.5438327513  TIP3      18504           0.0000000000
     77764     18696  TIP3      H2             20.2062100336       19.2429136990      -31.6626044674  TIP3      18504           0.0000000000
     77765     18697  TIP3      OH2            19.0524859255       18.4011609657      -28.2512288823  TIP3      18505           0.0000000000
     77766     18697  TIP3      H1             18.6184821293       17.6969552704      -28.7667671004  TIP3      18505           0.0000000000
     77767     18697  TIP3      H2             19.6387269515       17.9125741341      -27.6783732852  TIP3      18505           0.0000000000
     77768     18698  TIP3      OH2            18.8021881796       12.5110018326      -38.2501957643  TIP3      18506           0.0000000000
     77769     18698  TIP3      H1             19.6864747263       12.8831885653      -38.0882408164  TIP3      18506           0.0000000000
     77770     18698  TIP3      H2             18.8104157383       11.7755352085      -37.5988199553  TIP3      18506           0.0000000000
     77771     18699  TIP3      OH2            19.1963362470       10.5738573723      -36.3708910967  TIP3      18507           0.0000000000
     77772     18699  TIP3      H1             18.4524892359       10.0652274598      -35.9831098581  TIP3      18507           0.0000000000
     77773     18699  TIP3      H2             19.7919863316       10.7002087059      -35.6084085534  TIP3      18507           0.0000000000
     77774     18700  TIP3      OH2            18.9497371535       13.2781495144      -31.3723367340  TIP3      18508           0.0000000000
     77775     18700  TIP3      H1             19.7534183992       12.8996642198      -31.7723927863  TIP3      18508           0.0000000000
     77776     18700  TIP3      H2             19.0966994034       14.2269787798      -31.5569600575  TIP3      18508           0.0000000000
     77777     18701  TIP3      OH2            17.4884205939       16.1144757753      -29.0742190494  TIP3      18509           0.0000000000
     77778     18701  TIP3      H1             16.8001680894       16.5464585983      -28.5410393578  TIP3      18509           0.0000000000
     77779     18701  TIP3      H2             16.9686528602       15.7889735277      -29.8415438355  TIP3      18509           0.0000000000
     77780     18702  TIP3      OH2            19.4871158266       10.3843218780      -39.9734305491  TIP3      18510           0.0000000000
     77781     18702  TIP3      H1             18.9439942663       10.7373936710      -40.7045679950  TIP3      18510           0.0000000000
     77782     18702  TIP3      H2             19.4026644584       11.1048096823      -39.3237835699  TIP3      18510           0.0000000000
     77783     18703  TIP3      OH2            17.8512284256        7.6077627857      -41.4771878701  TIP3      18511           0.0000000000
     77784     18703  TIP3      H1             17.9447969176        8.2996349790      -42.1473561302  TIP3      18511           0.0000000000
     77785     18703  TIP3      H2             17.6973916001        6.8039440587      -41.9871100936  TIP3      18511           0.0000000000
     77786     18704  TIP3      OH2            17.0136134453        9.0396984953      -35.8032298772  TIP3      18512           0.0000000000
     77787     18704  TIP3      H1             16.8657740800        8.0857248557      -35.8419660879  TIP3      18512           0.0000000000
     77788     18704  TIP3      H2             16.6804509940        9.2562343568      -34.9128299217  TIP3      18512           0.0000000000
     77789     18705  TIP3      OH2             2.0181274091       11.1252555268      -31.7437901479  TIP3      18513           0.0000000000
     77790     18705  TIP3      H1              2.1962451518       11.0454333276      -32.7080070285  TIP3      18513           0.0000000000
     77791     18705  TIP3      H2              2.9114745800       10.9499023344      -31.3898601828  TIP3      18513           0.0000000000
     77792     18706  TIP3      OH2            17.8689205333       11.0247002209      -26.0228692094  TIP3      18514           0.0000000000
     77793     18706  TIP3      H1             18.4808050921       10.2612960965      -25.9937130018  TIP3      18514           0.0000000000
     77794     18706  TIP3      H2             18.4822521430       11.7730504689      -26.1677774792  TIP3      18514           0.0000000000
     77795     18707  TIP3      OH2            19.3744029134        8.9000851855      -25.4780227128  TIP3      18515           0.0000000000
     77796     18707  TIP3      H1             18.5186323981        8.5093028802      -25.6868410305  TIP3      18515           0.0000000000
     77797     18707  TIP3      H2             19.9358718216        8.1033525717      -25.5280591056  TIP3      18515           0.0000000000
     77798     18708  TIP3      OH2            17.1074538362        4.9667253722      -42.3920161676  TIP3      18516           0.0000000000
     77799     18708  TIP3      H1             17.7223491486        4.6967672064      -41.6696957979  TIP3      18516           0.0000000000
     77800     18708  TIP3      H2             16.2337615154        4.7771373821      -42.0017413625  TIP3      18516           0.0000000000
     77801     18709  TIP3      OH2            16.6569045982        6.6196256371      -37.3920048411  TIP3      18517           0.0000000000
     77802     18709  TIP3      H1             16.9745557883        5.7014658952      -37.2267434912  TIP3      18517           0.0000000000
     77803     18709  TIP3      H2             17.4802974047        7.0291518814      -37.6923026989  TIP3      18517           0.0000000000
     77804     18710  TIP3      OH2            17.3238973291        7.1656394265      -31.9183130841  TIP3      18518           0.0000000000
     77805     18710  TIP3      H1             18.2811427009        7.4005795200      -31.9121783072  TIP3      18518           0.0000000000
     77806     18710  TIP3      H2             17.1260989968        7.3044151349      -30.9779684104  TIP3      18518           0.0000000000
     77807     18711  TIP3      OH2            17.3815050240        7.8948563717      -29.1180865492  TIP3      18519           0.0000000000
     77808     18711  TIP3      H1             16.5055916983        8.1771526683      -28.7700237149  TIP3      18519           0.0000000000
     77809     18711  TIP3      H2             17.8121956353        8.7532393473      -29.3463346214  TIP3      18519           0.0000000000
     77810     18712  TIP3      OH2             1.6388532336        6.3807468444      -25.6594043219  TIP3      18520           0.0000000000
     77811     18712  TIP3      H1              2.5723944595        6.2164904415      -25.4023066638  TIP3      18520           0.0000000000
     77812     18712  TIP3      H2              1.1803092820        5.6143017090      -25.2658023868  TIP3      18520           0.0000000000
     77813     18713  TIP3      OH2            19.8012719947        2.0051655523      -23.7756552339  TIP3      18521           0.0000000000
     77814     18713  TIP3      H1             19.9472987119        1.2647113304      -24.3802178363  TIP3      18521           0.0000000000
     77815     18713  TIP3      H2             19.7709459041        2.8048277363      -24.3032464132  TIP3      18521           0.0000000000
     77816     18714  TIP3      OH2            17.3543900214        3.9107884485      -37.3006034962  TIP3      18522           0.0000000000
     77817     18714  TIP3      H1             17.5658047703        3.4755371476      -36.4452451339  TIP3      18522           0.0000000000
     77818     18714  TIP3      H2             16.7548181439        3.2727764103      -37.7423260368  TIP3      18522           0.0000000000
     77819     18715  TIP3      OH2             2.8348412567        4.7179653008      -32.7387570180  TIP3      18523           0.0000000000
     77820     18715  TIP3      H1              3.2960808687        3.8914208156      -32.4844759345  TIP3      18523           0.0000000000
     77821     18715  TIP3      H2              3.3874137763        5.4105537683      -32.3526220747  TIP3      18523           0.0000000000
     77822     18716  TIP3      OH2             1.1187749133        7.7194452644      -31.7037845691  TIP3      18524           0.0000000000
     77823     18716  TIP3      H1              1.6822707355        7.4694706398      -32.4644354729  TIP3      18524           0.0000000000
     77824     18716  TIP3      H2              1.5844093531        8.5234800453      -31.4295650833  TIP3      18524           0.0000000000
     77825     18717  TIP3      OH2            19.1754885846        4.0846243397      -25.4692684105  TIP3      18525           0.0000000000
     77826     18717  TIP3      H1             18.2285524857        4.2920678599      -25.5000222071  TIP3      18525           0.0000000000
     77827     18717  TIP3      H2             19.2238525199        3.4752599138      -26.2214545434  TIP3      18525           0.0000000000
     77828     18718  TIP3      OH2            19.1564198699        3.9632555303      -40.7662523724  TIP3      18526           0.0000000000
     77829     18718  TIP3      H1             19.5969541469        3.2360110988      -41.2608061515  TIP3      18526           0.0000000000
     77830     18718  TIP3      H2             19.8780300052        4.6085898712      -40.6747063424  TIP3      18526           0.0000000000
     77831     18719  TIP3      OH2             1.4876886533        3.9968352109      -37.6190425478  TIP3      18527           0.0000000000
     77832     18719  TIP3      H1              0.5439826870        4.1535395289      -37.7847024878  TIP3      18527           0.0000000000
     77833     18719  TIP3      H2              1.9041922781        4.4712800644      -38.3569533005  TIP3      18527           0.0000000000
     77834     18720  TIP3      OH2            16.2141264780       18.9333826095      -35.7012724622  TIP3      18528           0.0000000000
     77835     18720  TIP3      H1             16.9212175535       18.6248970215      -36.2913403962  TIP3      18528           0.0000000000
     77836     18720  TIP3      H2             16.7179741350       19.4185527450      -35.0145369941  TIP3      18528           0.0000000000
     77837     18721  TIP3      OH2             1.4314575910        2.6366962747      -29.3373002174  TIP3      18529           0.0000000000
     77838     18721  TIP3      H1              0.7541013552        2.4445680125      -28.6651816667  TIP3      18529           0.0000000000
     77839     18721  TIP3      H2              0.9762903041        3.3103169735      -29.8861995064  TIP3      18529           0.0000000000
     77840     18722  TIP3      OH2             3.6641104595       15.8757316561      -25.1339616422  TIP3      18530           0.0000000000
     77841     18722  TIP3      H1              2.8276966130       16.0445035593      -25.5957884876  TIP3      18530           0.0000000000
     77842     18722  TIP3      H2              3.3598471101       15.7754053504      -24.2250207881  TIP3      18530           0.0000000000
     77843     18723  TIP3      OH2             6.5882124744       16.8486694733      -28.8719444501  TIP3      18531           0.0000000000
     77844     18723  TIP3      H1              6.2268365860       17.6913681964      -29.1871070983  TIP3      18531           0.0000000000
     77845     18723  TIP3      H2              7.5034430283       16.9278927304      -29.2069671063  TIP3      18531           0.0000000000
     77846     18724  TIP3      OH2            13.1804458156       19.5243454103      -26.6764577053  TIP3      18532           0.0000000000
     77847     18724  TIP3      H1             13.9235388415       18.9628582759      -26.9486789682  TIP3      18532           0.0000000000
     77848     18724  TIP3      H2             13.5547807418       19.9596895543      -25.8866027562  TIP3      18532           0.0000000000
     77849     18725  TIP3      OH2            18.2149208190        2.1473569289      -27.6136567156  TIP3      18533           0.0000000000
     77850     18725  TIP3      H1             17.3592048738        2.4107874171      -27.9895764553  TIP3      18533           0.0000000000
     77851     18725  TIP3      H2             18.3673088169        1.2964500816      -28.0801885884  TIP3      18533           0.0000000000
     77852     18726  TIP3      OH2             3.9984384184       20.0815734134      -28.9043328531  TIP3      18534           0.0000000000
     77853     18726  TIP3      H1              3.2648608691       20.5742604966      -29.3041282372  TIP3      18534           0.0000000000
     77854     18726  TIP3      H2              3.6743743508       19.8834438613      -28.0140787449  TIP3      18534           0.0000000000
     77855     18727  TIP3      OH2             6.4625151483       19.6531941570      -29.8367691735  TIP3      18535           0.0000000000
     77856     18727  TIP3      H1              5.5784937178       19.8090828666      -29.4285561545  TIP3      18535           0.0000000000
     77857     18727  TIP3      H2              6.4055407461       20.2440755813      -30.6079936707  TIP3      18535           0.0000000000
     77858     18728  TIP3      OH2            11.1675217516       19.5653511496      -30.6639791854  TIP3      18536           0.0000000000
     77859     18728  TIP3      H1             10.7105014443       20.1261395207      -31.3104675091  TIP3      18536           0.0000000000
     77860     18728  TIP3      H2             11.3007078799       20.1930373267      -29.9225188124  TIP3      18536           0.0000000000
     77861     18729  TIP3      OH2            13.4432854151       18.3432496599      -29.6419368687  TIP3      18537           0.0000000000
     77862     18729  TIP3      H1             12.6120218288       18.6657934239      -30.0197212262  TIP3      18537           0.0000000000
     77863     18729  TIP3      H2             13.9475230102       19.1868382314      -29.6960951868  TIP3      18537           0.0000000000
     77864     18730  TIP3      OH2            15.7077482679       19.9670911609      -29.3676054873  TIP3      18538           0.0000000000
     77865     18730  TIP3      H1             15.9585480302       20.8986867988      -29.5729006637  TIP3      18538           0.0000000000
     77866     18730  TIP3      H2             16.2531057959       19.6327340912      -30.1185803791  TIP3      18538           0.0000000000
     77867     18731  TIP3      OH2             3.4577129853       18.7222480744      -31.9573187087  TIP3      18539           0.0000000000
     77868     18731  TIP3      H1              3.3771174204       18.2590790720      -31.0970226227  TIP3      18539           0.0000000000
     77869     18731  TIP3      H2              4.2713989359       18.3438348195      -32.3472605212  TIP3      18539           0.0000000000
     77870     18732  TIP3      OH2             5.5317071271       17.4346277661      -33.3035713972  TIP3      18540           0.0000000000
     77871     18732  TIP3      H1              5.3672336082       16.5007832074      -33.0705433557  TIP3      18540           0.0000000000
     77872     18732  TIP3      H2              6.3872833916       17.5898989072      -32.8511389054  TIP3      18540           0.0000000000
     77873     18733  TIP3      OH2             8.1392126340       17.9199817541      -32.4220654390  TIP3      18541           0.0000000000
     77874     18733  TIP3      H1              8.2902232669       16.9944385031      -32.6862096483  TIP3      18541           0.0000000000
     77875     18733  TIP3      H2              8.1829283822       17.8660780308      -31.4548712951  TIP3      18541           0.0000000000
     77876     18734  TIP3      OH2            11.5879614424        3.5680454262      -33.2874247473  TIP3      18542           0.0000000000
     77877     18734  TIP3      H1             10.9117614897        2.9279729556      -33.0072709241  TIP3      18542           0.0000000000
     77878     18734  TIP3      H2             12.1402473597        3.0349246286      -33.8715160110  TIP3      18542           0.0000000000
     77879     18735  TIP3      OH2            16.7244930037        1.6170551832      -33.2277760833  TIP3      18543           0.0000000000
     77880     18735  TIP3      H1             17.3363479626        2.2107459480      -33.7330492663  TIP3      18543           0.0000000000
     77881     18735  TIP3      H2             15.8418225416        1.9783956519      -33.4560767175  TIP3      18543           0.0000000000
     77882     18736  TIP3      OH2            18.3902090982        2.8667349637      -34.9526718256  TIP3      18544           0.0000000000
     77883     18736  TIP3      H1             19.0815419351        2.2892087491      -35.3581067290  TIP3      18544           0.0000000000
     77884     18736  TIP3      H2             18.8991579916        3.7018212969      -34.8372041663  TIP3      18544           0.0000000000
     77885     18737  TIP3      OH2             3.9618661826        2.1940228434      -35.4406238702  TIP3      18545           0.0000000000
     77886     18737  TIP3      H1              3.1641377959        2.0006878327      -35.9693010032  TIP3      18545           0.0000000000
     77887     18737  TIP3      H2              4.4195896531        1.3329635569      -35.5010621717  TIP3      18545           0.0000000000
     77888     18738  TIP3      OH2             2.7261211254        1.9469036399      -39.7194910663  TIP3      18546           0.0000000000
     77889     18738  TIP3      H1              3.2189784320        2.5973043992      -40.2538358069  TIP3      18546           0.0000000000
     77890     18738  TIP3      H2              2.1591917331        2.5228200600      -39.1809874782  TIP3      18546           0.0000000000
     77891     18739  TIP3      OH2             8.4286555370        2.1201760223      -35.6536072440  TIP3      18547           0.0000000000
     77892     18739  TIP3      H1              9.3285972902        2.4778353376      -35.7281755748  TIP3      18547           0.0000000000
     77893     18739  TIP3      H2              8.3956792441        1.9023298679      -34.7232500567  TIP3      18547           0.0000000000
     77894     18740  TIP3      OH2            14.1455854433        2.1382448172      -34.0312508177  TIP3      18548           0.0000000000
     77895     18740  TIP3      H1             14.0927517151        2.2524899908      -34.9886999732  TIP3      18548           0.0000000000
     77896     18740  TIP3      H2             13.7654671643        1.2345424125      -33.9032086976  TIP3      18548           0.0000000000
     77897     18741  TIP3      OH2            15.4089080475        2.1757182703      -38.3794196316  TIP3      18549           0.0000000000
     77898     18741  TIP3      H1             14.6509766465        2.7671771503      -38.4799946621  TIP3      18549           0.0000000000
     77899     18741  TIP3      H2             14.9795440228        1.3246567884      -38.1291065886  TIP3      18549           0.0000000000
     77900     18742  TIP3      OH2             2.6407303842       17.8959041232      -38.6891510786  TIP3      18550           0.0000000000
     77901     18742  TIP3      H1              1.9839670889       17.8819622147      -39.4094453285  TIP3      18550           0.0000000000
     77902     18742  TIP3      H2              2.6381675680       18.8510493680      -38.5179523572  TIP3      18550           0.0000000000
     77903     18743  TIP3      OH2             4.5548117628        3.8913666078      -41.2074532349  TIP3      18551           0.0000000000
     77904     18743  TIP3      H1              5.0867990209        3.2739031846      -41.7359424233  TIP3      18551           0.0000000000
     77905     18743  TIP3      H2              5.2207965407        4.2135971488      -40.5726006807  TIP3      18551           0.0000000000
     77906     18744  TIP3      OH2             9.5816928207        4.1351471485      -38.8059322366  TIP3      18552           0.0000000000
     77907     18744  TIP3      H1              9.8321342175        3.5572141499      -38.0661293493  TIP3      18552           0.0000000000
     77908     18744  TIP3      H2              9.6523799992        5.0007724761      -38.3465653150  TIP3      18552           0.0000000000
     77909     18745  TIP3      OH2            11.5155595273       19.2087310490      -40.3568123463  TIP3      18553           0.0000000000
     77910     18745  TIP3      H1             12.4330335447       19.4345608572      -40.5785037099  TIP3      18553           0.0000000000
     77911     18745  TIP3      H2             11.2949405069       18.6881480526      -41.1575865395  TIP3      18553           0.0000000000
     77912     18746  TIP3      OH2            18.2074906684       18.7088909413      -37.6343795299  TIP3      18554           0.0000000000
     77913     18746  TIP3      H1             18.0168431814       17.9269599934      -38.2054805520  TIP3      18554           0.0000000000
     77914     18746  TIP3      H2             18.1419915258       19.4434126241      -38.2785058328  TIP3      18554           0.0000000000
     77915     18747  TIP3      OH2             3.8255456760        2.7344636465      -25.9672164618  TIP3      18555           0.0000000000
     77916     18747  TIP3      H1              3.4715425904        1.9576917775      -25.5449692709  TIP3      18555           0.0000000000
     77917     18747  TIP3      H2              4.7545569461        2.7190564658      -25.6413832275  TIP3      18555           0.0000000000
     77918     18748  TIP3      OH2             5.8398381267        2.0644649120      -24.3650486908  TIP3      18556           0.0000000000
     77919     18748  TIP3      H1              6.7552989926        1.8068128211      -24.6064235584  TIP3      18556           0.0000000000
     77920     18748  TIP3      H2              5.5556842710        1.2665225755      -23.9194102795  TIP3      18556           0.0000000000
     77921     18749  TIP3      OH2             4.4345108751       18.8837446945      -41.7489932100  TIP3      18557           0.0000000000
     77922     18749  TIP3      H1              4.1755457940       19.1419646208      -40.8526091242  TIP3      18557           0.0000000000
     77923     18749  TIP3      H2              5.2179984687       18.3204015166      -41.5939276265  TIP3      18557           0.0000000000
     77924     18750  TIP3      OH2            14.2634752365        1.4537154095      -24.1858598415  TIP3      18558           0.0000000000
     77925     18750  TIP3      H1             14.3600604348        0.8993454775      -23.4085852004  TIP3      18558           0.0000000000
     77926     18750  TIP3      H2             15.1644333824        1.3685421585      -24.5842551667  TIP3      18558           0.0000000000
     77927     18751  TIP3      OH2            31.9811962387       11.3734786456      -35.6757821529  TIP3      18559           0.0000000000
     77928     18751  TIP3      H1             31.7456494516       12.3139581472      -35.5293603830  TIP3      18559           0.0000000000
     77929     18751  TIP3      H2             31.1601744959       11.0670247731      -36.1259226413  TIP3      18559           0.0000000000
     77930     18752  TIP3      OH2            30.8229991745       10.5759302285      -32.1037096354  TIP3      18560           0.0000000000
     77931     18752  TIP3      H1             30.7493068024        9.9561077435      -31.3645519491  TIP3      18560           0.0000000000
     77932     18752  TIP3      H2             30.4117815276       10.0705710944      -32.8288327077  TIP3      18560           0.0000000000
     77933     18753  TIP3      OH2            23.0927332384       10.2970288017      -30.4819891030  TIP3      18561           0.0000000000
     77934     18753  TIP3      H1             23.2091879910        9.5678552235      -29.8442457765  TIP3      18561           0.0000000000
     77935     18753  TIP3      H2             23.8819195414       10.8350400835      -30.3313869359  TIP3      18561           0.0000000000
     77936     18754  TIP3      OH2            34.3848943968       13.4924160369      -33.8541385012  TIP3      18562           0.0000000000
     77937     18754  TIP3      H1             34.0603211394       12.8057932891      -33.2525405494  TIP3      18562           0.0000000000
     77938     18754  TIP3      H2             34.4863688896       14.2161503749      -33.1895123761  TIP3      18562           0.0000000000
     77939     18755  TIP3      OH2            24.0514778231       14.7122097305      -32.0339896998  TIP3      18563           0.0000000000
     77940     18755  TIP3      H1             23.7208780607       13.8473231783      -32.3429917700  TIP3      18563           0.0000000000
     77941     18755  TIP3      H2             25.0037065201       14.5169087707      -31.9880740288  TIP3      18563           0.0000000000
     77942     18756  TIP3      OH2            20.6654558760        8.2632356640      -36.5159296978  TIP3      18564           0.0000000000
     77943     18756  TIP3      H1             20.2454270758        9.1391904137      -36.6098148294  TIP3      18564           0.0000000000
     77944     18756  TIP3      H2             20.1154086294        7.7330463439      -37.1065868400  TIP3      18564           0.0000000000
     77945     18757  TIP3      OH2            21.3852606243       10.4976689397      -34.3846888103  TIP3      18565           0.0000000000
     77946     18757  TIP3      H1             21.6717393969        9.6732027500      -33.9496044067  TIP3      18565           0.0000000000
     77947     18757  TIP3      H2             22.0710914563       10.6035625397      -35.0658655248  TIP3      18565           0.0000000000
     77948     18758  TIP3      OH2            31.5694548529       18.6961423640      -33.5717747160  TIP3      18566           0.0000000000
     77949     18758  TIP3      H1             32.2109665841       17.9955010150      -33.8465117106  TIP3      18566           0.0000000000
     77950     18758  TIP3      H2             31.3339613615       18.3596757620      -32.7018708340  TIP3      18566           0.0000000000
     77951     18759  TIP3      OH2            29.1238475407       12.9800537503      -31.6139613304  TIP3      18567           0.0000000000
     77952     18759  TIP3      H1             29.4541751317       12.3523154667      -32.2678161071  TIP3      18567           0.0000000000
     77953     18759  TIP3      H2             29.9366268803       13.1441329977      -31.1069836170  TIP3      18567           0.0000000000
     77954     18760  TIP3      OH2            32.3112154019        7.4681181622      -31.3086621391  TIP3      18568           0.0000000000
     77955     18760  TIP3      H1             32.4711271766        6.5080778510      -31.3240619623  TIP3      18568           0.0000000000
     77956     18760  TIP3      H2             32.2157601976        7.6179466456      -32.2685758035  TIP3      18568           0.0000000000
     77957     18761  TIP3      OH2            25.4070792744        5.5254784453      -34.0685149034  TIP3      18569           0.0000000000
     77958     18761  TIP3      H1             25.5212402552        6.3693677596      -34.5693849656  TIP3      18569           0.0000000000
     77959     18761  TIP3      H2             25.0112927096        4.9700128262      -34.7713787347  TIP3      18569           0.0000000000
     77960     18762  TIP3      OH2            33.1801815962        5.6698405688      -35.6970445002  TIP3      18570           0.0000000000
     77961     18762  TIP3      H1             33.8182943204        5.3062337262      -35.0357857087  TIP3      18570           0.0000000000
     77962     18762  TIP3      H2             33.7732109014        6.1949457594      -36.2380781901  TIP3      18570           0.0000000000
     77963     18763  TIP3      OH2            22.0488181074        7.9631569158      -33.3495305518  TIP3      18571           0.0000000000
     77964     18763  TIP3      H1             22.6969412569        7.4019760142      -32.8814419418  TIP3      18571           0.0000000000
     77965     18763  TIP3      H2             22.1609074444        7.6503119258      -34.2637837973  TIP3      18571           0.0000000000
     77966     18764  TIP3      OH2            27.1964199481        9.4954016914      -33.9653582285  TIP3      18572           0.0000000000
     77967     18764  TIP3      H1             27.8848045704        8.9014411233      -33.6356942161  TIP3      18572           0.0000000000
     77968     18764  TIP3      H2             26.6992498473        8.8992065817      -34.5661028723  TIP3      18572           0.0000000000
     77969     18765  TIP3      OH2            24.3119891078        4.4362041099      -30.0653830582  TIP3      18573           0.0000000000
     77970     18765  TIP3      H1             24.0388436398        5.0234780744      -30.7996504464  TIP3      18573           0.0000000000
     77971     18765  TIP3      H2             23.6537770738        4.6719003949      -29.3670040326  TIP3      18573           0.0000000000
     77972     18766  TIP3      OH2            31.6956604098       13.9169441745      -36.5414130073  TIP3      18574           0.0000000000
     77973     18766  TIP3      H1             31.2713584024       13.6554470444      -37.3826128076  TIP3      18574           0.0000000000
     77974     18766  TIP3      H2             31.3074120976       14.8254102411      -36.4211495644  TIP3      18574           0.0000000000
     77975     18767  TIP3      OH2            26.8269944285       12.0863655955      -29.7949931676  TIP3      18575           0.0000000000
     77976     18767  TIP3      H1             26.1293436035       12.7413862456      -29.5869220697  TIP3      18575           0.0000000000
     77977     18767  TIP3      H2             27.5355823966       12.6786999722      -30.0945180211  TIP3      18575           0.0000000000
     77978     18768  TIP3      OH2            34.6559568750        4.9364610709      -33.6003912625  TIP3      18576           0.0000000000
     77979     18768  TIP3      H1             34.6918367833        4.1188497976      -33.1037361935  TIP3      18576           0.0000000000
     77980     18768  TIP3      H2             35.4237159838        5.4081056348      -33.2082029601  TIP3      18576           0.0000000000
     77981     18769  TIP3      OH2            23.8899605461        6.3017360895      -32.0049685405  TIP3      18577           0.0000000000
     77982     18769  TIP3      H1             24.5221113640        6.9849691763      -31.6909438254  TIP3      18577           0.0000000000
     77983     18769  TIP3      H2             24.4071848967        5.8929826675      -32.7455337977  TIP3      18577           0.0000000000
     77984     18770  TIP3      OH2            25.2804658518       14.0848066024      -28.9865747047  TIP3      18578           0.0000000000
     77985     18770  TIP3      H1             25.2520304112       15.0072582896      -29.3014226644  TIP3      18578           0.0000000000
     77986     18770  TIP3      H2             24.3942745450       14.0414568756      -28.5586074074  TIP3      18578           0.0000000000
     77987     18771  TIP3      OH2            21.3325222089       13.7169608305      -38.1665050409  TIP3      18579           0.0000000000
     77988     18771  TIP3      H1             21.1239649103       14.0327635545      -39.0655149205  TIP3      18579           0.0000000000
     77989     18771  TIP3      H2             21.4403770687       14.5537629898      -37.6727774561  TIP3      18579           0.0000000000
     77990     18772  TIP3      OH2            34.7679978023       15.2781172615      -31.3840023215  TIP3      18580           0.0000000000
     77991     18772  TIP3      H1             33.8231933970       15.5166531983      -31.2741503583  TIP3      18580           0.0000000000
     77992     18772  TIP3      H2             35.1635164472       16.1354005696      -31.6335591811  TIP3      18580           0.0000000000
     77993     18773  TIP3      OH2            35.0972043108        3.7897612838      -30.2957728617  TIP3      18581           0.0000000000
     77994     18773  TIP3      H1             34.4024878697        4.4678828188      -30.1822531859  TIP3      18581           0.0000000000
     77995     18773  TIP3      H2             35.8602847666        4.2862898281      -30.6119261075  TIP3      18581           0.0000000000
     77996     18774  TIP3      OH2            28.2581555855        1.7601099820      -32.6310787368  TIP3      18582           0.0000000000
     77997     18774  TIP3      H1             28.0915394416        0.7988968619      -32.6065260978  TIP3      18582           0.0000000000
     77998     18774  TIP3      H2             27.4068705780        2.0976830946      -32.2663658446  TIP3      18582           0.0000000000
     77999     18775  TIP3      OH2            33.1475692497       17.0853253245      -34.8282448964  TIP3      18583           0.0000000000
     78000     18775  TIP3      H1             33.6590862511       16.4392089529      -35.3388022982  TIP3      18583           0.0000000000
     78001     18775  TIP3      H2             33.5879914098       17.9042950906      -35.1607961272  TIP3      18583           0.0000000000
     78002     18776  TIP3      OH2            34.4266158348       15.0788178820      -36.3088010720  TIP3      18584           0.0000000000
     78003     18776  TIP3      H1             34.2087836024       14.4441437263      -36.9985037410  TIP3      18584           0.0000000000
     78004     18776  TIP3      H2             34.5180993081       14.6082961474      -35.4568905022  TIP3      18584           0.0000000000
     78005     18777  TIP3      OH2            35.7585698124       13.8393868323      -27.7354776128  TIP3      18585           0.0000000000
     78006     18777  TIP3      H1             36.1016030852       13.1220085867      -28.3080719228  TIP3      18585           0.0000000000
     78007     18777  TIP3      H2             36.2658426440       14.5714492167      -28.1265984830  TIP3      18585           0.0000000000
     78008     18778  TIP3      OH2            30.5570192954       10.5934875802      -38.0577209746  TIP3      18586           0.0000000000
     78009     18778  TIP3      H1             29.8379064312       11.1523692470      -38.4113260479  TIP3      18586           0.0000000000
     78010     18778  TIP3      H2             31.2400905657       10.6612862371      -38.7435974655  TIP3      18586           0.0000000000
     78011     18779  TIP3      OH2            30.5893968598        9.0855507144      -41.1564809418  TIP3      18587           0.0000000000
     78012     18779  TIP3      H1             31.2580890379        9.1380868140      -40.4326736192  TIP3      18587           0.0000000000
     78013     18779  TIP3      H2             31.0460052268        8.3672148823      -41.6161001659  TIP3      18587           0.0000000000
     78014     18780  TIP3      OH2            33.9796326220       10.5799666919      -37.2072005553  TIP3      18588           0.0000000000
     78015     18780  TIP3      H1             33.2015091437       10.7187065984      -36.6187996864  TIP3      18588           0.0000000000
     78016     18780  TIP3      H2             34.5202375803        9.9895151363      -36.6141095240  TIP3      18588           0.0000000000
     78017     18781  TIP3      OH2            33.9266305383        8.9457205399      -28.0477827311  TIP3      18589           0.0000000000
     78018     18781  TIP3      H1             33.9086994673        9.7518753835      -27.5029040321  TIP3      18589           0.0000000000
     78019     18781  TIP3      H2             33.2952880186        9.2355627229      -28.7266561494  TIP3      18589           0.0000000000
     78020     18782  TIP3      OH2            25.5644268666       11.5941433372      -34.7164138687  TIP3      18590           0.0000000000
     78021     18782  TIP3      H1             25.2428595221       11.3807423239      -35.6188908149  TIP3      18590           0.0000000000
     78022     18782  TIP3      H2             26.2475465713       10.8797038703      -34.7549994222  TIP3      18590           0.0000000000
     78023     18783  TIP3      OH2            26.9471808943       14.8142321194      -32.5640294987  TIP3      18591           0.0000000000
     78024     18783  TIP3      H1             26.9204192211       14.2771946511      -33.3652734845  TIP3      18591           0.0000000000
     78025     18783  TIP3      H2             27.7246658376       14.4590097938      -32.0988888035  TIP3      18591           0.0000000000
     78026     18784  TIP3      OH2            25.9536546279       10.1721873399      -31.5263135383  TIP3      18592           0.0000000000
     78027     18784  TIP3      H1             26.4804607097       10.2839882497      -32.3508204810  TIP3      18592           0.0000000000
     78028     18784  TIP3      H2             26.3379931504       10.8624931424      -30.9452810353  TIP3      18592           0.0000000000
     78029     18785  TIP3      OH2            32.3009529302       15.7769477881      -30.8658487705  TIP3      18593           0.0000000000
     78030     18785  TIP3      H1             32.0793862034       16.4035686427      -30.1717757202  TIP3      18593           0.0000000000
     78031     18785  TIP3      H2             32.1053977202       14.9039618283      -30.4482091262  TIP3      18593           0.0000000000
     78032     18786  TIP3      OH2            26.8891917209       14.5858765467      -26.8593438030  TIP3      18594           0.0000000000
     78033     18786  TIP3      H1             26.5202579565       15.3515721240      -26.3747769487  TIP3      18594           0.0000000000
     78034     18786  TIP3      H2             26.2237834039       14.4295259315      -27.5666165753  TIP3      18594           0.0000000000
     78035     18787  TIP3      OH2            32.8149765163       10.0009068199      -39.5100296350  TIP3      18595           0.0000000000
     78036     18787  TIP3      H1             33.4051693182       10.1045451233      -38.7251973157  TIP3      18595           0.0000000000
     78037     18787  TIP3      H2             33.2936341602       10.4769585192      -40.2206521089  TIP3      18595           0.0000000000
     78038     18788  TIP3      OH2            23.8143116794       10.7395224494      -27.6346189862  TIP3      18596           0.0000000000
     78039     18788  TIP3      H1             23.9117552877       11.4886903491      -27.0519622076  TIP3      18596           0.0000000000
     78040     18788  TIP3      H2             22.9141698088       10.8703353926      -27.9865912633  TIP3      18596           0.0000000000
     78041     18789  TIP3      OH2            30.6085863165       16.6821898429      -36.0167267860  TIP3      18597           0.0000000000
     78042     18789  TIP3      H1             31.0113970496       17.0077991656      -35.2005335412  TIP3      18597           0.0000000000
     78043     18789  TIP3      H2             30.0398394509       17.4245713899      -36.2573313100  TIP3      18597           0.0000000000
     78044     18790  TIP3      OH2            25.1156446875       16.5750618561      -26.1277766740  TIP3      18598           0.0000000000
     78045     18790  TIP3      H1             25.0847293100       16.5628442804      -27.1021232087  TIP3      18598           0.0000000000
     78046     18790  TIP3      H2             24.1872298749       16.5501434316      -25.8607516970  TIP3      18598           0.0000000000
     78047     18791  TIP3      OH2            23.6473661311       10.2541209650      -38.3212618841  TIP3      18599           0.0000000000
     78048     18791  TIP3      H1             24.2432141813       11.0253723476      -38.1928052202  TIP3      18599           0.0000000000
     78049     18791  TIP3      H2             24.0356594950        9.6767549138      -37.6702045624  TIP3      18599           0.0000000000
     78050     18792  TIP3      OH2            20.6797729329       12.8902284072      -28.7179391312  TIP3      18600           0.0000000000
     78051     18792  TIP3      H1             20.2257063937       12.8477044098      -29.5866669334  TIP3      18600           0.0000000000
     78052     18792  TIP3      H2             20.7259114502       11.9360248902      -28.5208435137  TIP3      18600           0.0000000000
     78053     18793  TIP3      OH2            20.4489967383       15.6044737583      -31.9329712435  TIP3      18601           0.0000000000
     78054     18793  TIP3      H1             21.4068836759       15.5310483275      -31.9635315621  TIP3      18601           0.0000000000
     78055     18793  TIP3      H2             20.3497654904       16.4675551961      -31.4772409814  TIP3      18601           0.0000000000
     78056     18794  TIP3      OH2            29.6599582660       15.8429703936      -27.3197815079  TIP3      18602           0.0000000000
     78057     18794  TIP3      H1             29.6643693023       16.7270669996      -26.8915487919  TIP3      18602           0.0000000000
     78058     18794  TIP3      H2             28.7466267652       15.5232415209      -27.1618525849  TIP3      18602           0.0000000000
     78059     18795  TIP3      OH2            30.1179318070       19.6118351661      -37.5906675013  TIP3      18603           0.0000000000
     78060     18795  TIP3      H1             29.9798079703       19.5343611166      -38.5533540453  TIP3      18603           0.0000000000
     78061     18795  TIP3      H2             30.0957322300       20.5761611726      -37.4435956641  TIP3      18603           0.0000000000
     78062     18796  TIP3      OH2            23.7308589094       18.4860764656      -35.7853216255  TIP3      18604           0.0000000000
     78063     18796  TIP3      H1             23.8637782372       18.0814672976      -34.8995449919  TIP3      18604           0.0000000000
     78064     18796  TIP3      H2             22.8722914987       18.0903469663      -36.0137119965  TIP3      18604           0.0000000000
     78065     18797  TIP3      OH2            33.1481659454       18.8383536878      -40.6287842424  TIP3      18605           0.0000000000
     78066     18797  TIP3      H1             33.5801638724       18.0679369978      -41.0649433461  TIP3      18605           0.0000000000
     78067     18797  TIP3      H2             33.1657930607       18.5674235650      -39.6884847661  TIP3      18605           0.0000000000
     78068     18798  TIP3      OH2            32.8033494950       18.7547278525      -37.8326232977  TIP3      18606           0.0000000000
     78069     18798  TIP3      H1             31.8405246521       18.8372343611      -37.6611136246  TIP3      18606           0.0000000000
     78070     18798  TIP3      H2             33.0400975335       18.0249297431      -37.2456904445  TIP3      18606           0.0000000000
     78071     18799  TIP3      OH2            35.3572471876        8.0066595995      -25.7389904185  TIP3      18607           0.0000000000
     78072     18799  TIP3      H1             35.2743006996        8.3101073068      -26.6514583086  TIP3      18607           0.0000000000
     78073     18799  TIP3      H2             35.8692261975        7.1640974834      -25.8996406418  TIP3      18607           0.0000000000
     78074     18800  TIP3      OH2            22.9821195000       14.1687249080      -27.7909129308  TIP3      18608           0.0000000000
     78075     18800  TIP3      H1             23.1475338827       13.8981219237      -26.8829447561  TIP3      18608           0.0000000000
     78076     18800  TIP3      H2             22.0809855674       13.8440914370      -28.0215247634  TIP3      18608           0.0000000000
     78077     18801  TIP3      OH2            25.6458081169        2.6830892043      -31.8263159377  TIP3      18609           0.0000000000
     78078     18801  TIP3      H1             24.7427158887        2.5559552851      -32.1932414827  TIP3      18609           0.0000000000
     78079     18801  TIP3      H2             25.5089146137        3.5147882537      -31.3424694921  TIP3      18609           0.0000000000
     78080     18802  TIP3      OH2            30.2871904857        2.3406046748      -28.4718712658  TIP3      18610           0.0000000000
     78081     18802  TIP3      H1             30.6840918899        1.9335869617      -27.6787854095  TIP3      18610           0.0000000000
     78082     18802  TIP3      H2             29.3151680933        2.2297355617      -28.3238663810  TIP3      18610           0.0000000000
     78083     18803  TIP3      OH2            33.5075525932        6.1770362337      -27.6044492193  TIP3      18611           0.0000000000
     78084     18803  TIP3      H1             33.0141691405        5.9981492623      -26.7694808294  TIP3      18611           0.0000000000
     78085     18803  TIP3      H2             33.4219975673        7.1342430050      -27.7333389273  TIP3      18611           0.0000000000
     78086     18804  TIP3      OH2            34.3532261210       10.9387606515      -41.6443554310  TIP3      18612           0.0000000000
     78087     18804  TIP3      H1             34.2952300952       10.7663949152      -42.6125170432  TIP3      18612           0.0000000000
     78088     18804  TIP3      H2             35.1453315404       11.4790169246      -41.6492397594  TIP3      18612           0.0000000000
     78089     18805  TIP3      OH2            29.9049492669        4.9601314992      -41.1652296101  TIP3      18613           0.0000000000
     78090     18805  TIP3      H1             29.6189975426        4.8631518291      -40.2351962388  TIP3      18613           0.0000000000
     78091     18805  TIP3      H2             29.6244000515        4.0683771833      -41.4633227827  TIP3      18613           0.0000000000
     78092     18806  TIP3      OH2            25.7481284345        7.6521798434      -30.5706584279  TIP3      18614           0.0000000000
     78093     18806  TIP3      H1             25.0105823509        7.6438232500      -29.9319529399  TIP3      18614           0.0000000000
     78094     18806  TIP3      H2             25.7019654319        8.5649833711      -30.9370340565  TIP3      18614           0.0000000000
     78095     18807  TIP3      OH2            25.6973365781        7.6451408383      -35.6610970035  TIP3      18615           0.0000000000
     78096     18807  TIP3      H1             24.7494723234        7.5445709943      -35.8569282859  TIP3      18615           0.0000000000
     78097     18807  TIP3      H2             26.0780815536        7.5431042383      -36.5554160578  TIP3      18615           0.0000000000
     78098     18808  TIP3      OH2            31.3028158885        8.3204087115      -36.8887720569  TIP3      18616           0.0000000000
     78099     18808  TIP3      H1             30.8040811766        9.0757613304      -37.2836946819  TIP3      18616           0.0000000000
     78100     18808  TIP3      H2             31.9152844617        8.0956005653      -37.6092840359  TIP3      18616           0.0000000000
     78101     18809  TIP3      OH2            30.2793227512        8.5082398195      -25.5079931583  TIP3      18617           0.0000000000
     78102     18809  TIP3      H1             29.7783336513        7.7297715771      -25.1783444360  TIP3      18617           0.0000000000
     78103     18809  TIP3      H2             31.1116651492        8.3726811256      -25.0248343367  TIP3      18617           0.0000000000
     78104     18810  TIP3      OH2            32.2469075464        7.8037000336      -34.0842021301  TIP3      18618           0.0000000000
     78105     18810  TIP3      H1             31.9789636184        8.3169703543      -34.8596318864  TIP3      18618           0.0000000000
     78106     18810  TIP3      H2             32.3612862598        6.9346771428      -34.5235675527  TIP3      18618           0.0000000000
     78107     18811  TIP3      OH2            23.3546263997        7.9374170200      -28.8741909039  TIP3      18619           0.0000000000
     78108     18811  TIP3      H1             23.4476514572        8.3035466967      -27.9811485891  TIP3      18619           0.0000000000
     78109     18811  TIP3      H2             22.9410160798        7.0740259783      -28.6899528139  TIP3      18619           0.0000000000
     78110     18812  TIP3      OH2            26.7517130408        5.3473432641      -42.0347840167  TIP3      18620           0.0000000000
     78111     18812  TIP3      H1             26.3106215485        4.8980304614      -41.2799254959  TIP3      18620           0.0000000000
     78112     18812  TIP3      H2             26.0074239695        5.6949607374      -42.5419949626  TIP3      18620           0.0000000000
     78113     18813  TIP3      OH2            20.0238466462        5.0129173920      -34.9113786814  TIP3      18621           0.0000000000
     78114     18813  TIP3      H1             20.7063652442        4.9776318595      -34.2083170480  TIP3      18621           0.0000000000
     78115     18813  TIP3      H2             20.4766052866        4.6389893430      -35.6882493237  TIP3      18621           0.0000000000
     78116     18814  TIP3      OH2            21.2636760927        5.7156124867      -39.5813824454  TIP3      18622           0.0000000000
     78117     18814  TIP3      H1             21.8013050250        6.3344227382      -40.1126137382  TIP3      18622           0.0000000000
     78118     18814  TIP3      H2             20.6016240278        6.3558788782      -39.2416653236  TIP3      18622           0.0000000000
     78119     18815  TIP3      OH2            31.4427992175        9.3449450605      -29.5341577913  TIP3      18623           0.0000000000
     78120     18815  TIP3      H1             31.8352799425        8.6550876969      -30.1134874006  TIP3      18623           0.0000000000
     78121     18815  TIP3      H2             30.9746655326        8.8130728201      -28.8670335010  TIP3      18623           0.0000000000
     78122     18816  TIP3      OH2            28.2525672302        5.2820614957      -34.7064045785  TIP3      18624           0.0000000000
     78123     18816  TIP3      H1             27.3153060557        5.3675580645      -34.4095427314  TIP3      18624           0.0000000000
     78124     18816  TIP3      H2             28.7455960763        5.1827979576      -33.8743768034  TIP3      18624           0.0000000000
     78125     18817  TIP3      OH2            23.0418111506        6.8552291772      -35.7987051985  TIP3      18625           0.0000000000
     78126     18817  TIP3      H1             22.1914582807        7.0518762161      -36.2393256405  TIP3      18625           0.0000000000
     78127     18817  TIP3      H2             23.3487257643        6.0521294243      -36.2560158836  TIP3      18625           0.0000000000
     78128     18818  TIP3      OH2            26.7269857540        6.8851871800      -38.2495411397  TIP3      18626           0.0000000000
     78129     18818  TIP3      H1             27.6498875318        7.0717158592      -38.0106235389  TIP3      18626           0.0000000000
     78130     18818  TIP3      H2             26.4468712151        7.6374137986      -38.8057493502  TIP3      18626           0.0000000000
     78131     18819  TIP3      OH2            32.5993475076        4.5345830457      -31.4442147905  TIP3      18627           0.0000000000
     78132     18819  TIP3      H1             31.9199420230        4.6018027964      -30.7516610553  TIP3      18627           0.0000000000
     78133     18819  TIP3      H2             32.1084751752        4.3414746452      -32.2531369049  TIP3      18627           0.0000000000
     78134     18820  TIP3      OH2            25.4035515667        8.0347735684      -40.6170800004  TIP3      18628           0.0000000000
     78135     18820  TIP3      H1             24.8546552654        7.7156108395      -41.3442577313  TIP3      18628           0.0000000000
     78136     18820  TIP3      H2             26.2113013289        8.3168715090      -41.0522109281  TIP3      18628           0.0000000000
     78137     18821  TIP3      OH2            35.7551930867       20.2846120202      -25.6507891346  TIP3      18629           0.0000000000
     78138     18821  TIP3      H1             36.2237937352       20.7453679175      -26.3397967355  TIP3      18629           0.0000000000
     78139     18821  TIP3      H2             36.3836893464       20.4795429792      -24.9331881122  TIP3      18629           0.0000000000
     78140     18822  TIP3      OH2            29.5636901954        8.0837263368      -32.7977247939  TIP3      18630           0.0000000000
     78141     18822  TIP3      H1             30.1550338408        7.5435368944      -33.3321910805  TIP3      18630           0.0000000000
     78142     18822  TIP3      H2             29.3958424183        7.5311163049      -32.0238578421  TIP3      18630           0.0000000000
     78143     18823  TIP3      OH2            24.5536016549        4.2287082114      -36.3732190484  TIP3      18631           0.0000000000
     78144     18823  TIP3      H1             24.2412868116        3.3061265546      -36.3804083038  TIP3      18631           0.0000000000
     78145     18823  TIP3      H2             25.3431717168        4.1629760606      -36.9225364807  TIP3      18631           0.0000000000
     78146     18824  TIP3      OH2            28.1877422686        6.4119398832      -30.3878716900  TIP3      18632           0.0000000000
     78147     18824  TIP3      H1             27.3585030008        6.9253183770      -30.2999978548  TIP3      18632           0.0000000000
     78148     18824  TIP3      H2             28.7364019412        6.7647894531      -29.6630780714  TIP3      18632           0.0000000000
     78149     18825  TIP3      OH2            28.7806089428       12.6100481982      -38.6988824046  TIP3      18633           0.0000000000
     78150     18825  TIP3      H1             27.9584046094       12.1645410210      -39.0101588276  TIP3      18633           0.0000000000
     78151     18825  TIP3      H2             28.5224380979       12.7376245764      -37.7604953409  TIP3      18633           0.0000000000
     78152     18826  TIP3      OH2            35.6321266875       11.8457885197      -29.9123637164  TIP3      18634           0.0000000000
     78153     18826  TIP3      H1             36.3702899090       11.9915808712      -30.5425655191  TIP3      18634           0.0000000000
     78154     18826  TIP3      H2             34.8784381773       11.8641205733      -30.5240705917  TIP3      18634           0.0000000000
     78155     18827  TIP3      OH2            32.6294509720        5.4777501150      -40.5438608384  TIP3      18635           0.0000000000
     78156     18827  TIP3      H1             31.6665620994        5.5711388269      -40.6513367769  TIP3      18635           0.0000000000
     78157     18827  TIP3      H2             32.9226726608        6.3237807298      -40.1500417859  TIP3      18635           0.0000000000
     78158     18828  TIP3      OH2            30.3004107513       12.9065257810      -27.4468614693  TIP3      18636           0.0000000000
     78159     18828  TIP3      H1             29.8787643285       12.4633672912      -26.7005740624  TIP3      18636           0.0000000000
     78160     18828  TIP3      H2             30.0034049418       13.8171425749      -27.3742927639  TIP3      18636           0.0000000000
     78161     18829  TIP3      OH2            33.3261420865        7.4082043656      -38.9016989688  TIP3      18637           0.0000000000
     78162     18829  TIP3      H1             34.2032078610        7.2251788557      -38.4982327004  TIP3      18637           0.0000000000
     78163     18829  TIP3      H2             33.4630062330        8.2107233848      -39.4190576621  TIP3      18637           0.0000000000
     78164     18830  TIP3      OH2            23.8359380640       12.0367719461      -32.8410645709  TIP3      18638           0.0000000000
     78165     18830  TIP3      H1             24.5265807022       11.9656024963      -33.5517323743  TIP3      18638           0.0000000000
     78166     18830  TIP3      H2             23.9371249936       11.1663851266      -32.4270011214  TIP3      18638           0.0000000000
     78167     18831  TIP3      OH2            30.8607531824       14.0857216226      -39.6090828754  TIP3      18639           0.0000000000
     78168     18831  TIP3      H1             30.5143325258       14.9609333279      -39.3270444454  TIP3      18639           0.0000000000
     78169     18831  TIP3      H2             30.0954007512       13.4959243483      -39.4276932740  TIP3      18639           0.0000000000
     78170     18832  TIP3      OH2            20.8679737588       10.4267050917      -27.6251300123  TIP3      18640           0.0000000000
     78171     18832  TIP3      H1             21.0123276500        9.9478114069      -26.8029541599  TIP3      18640           0.0000000000
     78172     18832  TIP3      H2             20.2500489628        9.8257244190      -28.0899083697  TIP3      18640           0.0000000000
     78173     18833  TIP3      OH2            27.8749203572       10.0126013043      -25.4643259414  TIP3      18641           0.0000000000
     78174     18833  TIP3      H1             27.5912720133        9.6853276164      -26.3297279776  TIP3      18641           0.0000000000
     78175     18833  TIP3      H2             28.7944241105        9.6697921537      -25.4332482004  TIP3      18641           0.0000000000
     78176     18834  TIP3      OH2            32.5506817796       15.2943293799      -27.4695509827  TIP3      18642           0.0000000000
     78177     18834  TIP3      H1             31.6514473163       15.5033701949      -27.7701761794  TIP3      18642           0.0000000000
     78178     18834  TIP3      H2             32.5380852207       15.6150632570      -26.5762325874  TIP3      18642           0.0000000000
     78179     18835  TIP3      OH2            33.6713891257       11.1628407546      -31.6737998589  TIP3      18643           0.0000000000
     78180     18835  TIP3      H1             32.7359948903       10.8929543937      -31.7388188961  TIP3      18643           0.0000000000
     78181     18835  TIP3      H2             34.1507903037       10.3799105507      -32.0043584212  TIP3      18643           0.0000000000
     78182     18836  TIP3      OH2            26.2445268949       15.4861349230      -35.5129432528  TIP3      18644           0.0000000000
     78183     18836  TIP3      H1             26.7554251741       16.2789846946      -35.7280275016  TIP3      18644           0.0000000000
     78184     18836  TIP3      H2             25.3701087013       15.7212629636      -35.8452807374  TIP3      18644           0.0000000000
     78185     18837  TIP3      OH2            21.9971549951       10.3458423715      -41.0237696596  TIP3      18645           0.0000000000
     78186     18837  TIP3      H1             22.6048023312       10.9222698958      -40.5055330740  TIP3      18645           0.0000000000
     78187     18837  TIP3      H2             21.1293767360       10.6365286044      -40.6897084004  TIP3      18645           0.0000000000
     78188     18838  TIP3      OH2            27.7032836752       13.1860222474      -35.9519078751  TIP3      18646           0.0000000000
     78189     18838  TIP3      H1             27.3230616910       14.0806858141      -35.9086693078  TIP3      18646           0.0000000000
     78190     18838  TIP3      H2             26.9796514930       12.6409866461      -35.5818013220  TIP3      18646           0.0000000000
     78191     18839  TIP3      OH2            28.1245420871       17.3283831825      -29.6051751429  TIP3      18647           0.0000000000
     78192     18839  TIP3      H1             28.5780376594       18.1446799184      -29.8659505802  TIP3      18647           0.0000000000
     78193     18839  TIP3      H2             28.7261790620       16.9875498821      -28.9247117725  TIP3      18647           0.0000000000
     78194     18840  TIP3      OH2            26.3574022059       18.1428654558      -36.4914885357  TIP3      18648           0.0000000000
     78195     18840  TIP3      H1             25.3908662140       18.2727448652      -36.3414687249  TIP3      18648           0.0000000000
     78196     18840  TIP3      H2             26.7014818554       18.9732323616      -36.1157367090  TIP3      18648           0.0000000000
     78197     18841  TIP3      OH2            31.6620708699       13.3284940882      -29.9907494783  TIP3      18649           0.0000000000
     78198     18841  TIP3      H1             31.3092999014       13.1287343518      -29.0984553396  TIP3      18649           0.0000000000
     78199     18841  TIP3      H2             32.2922111508       12.6087889543      -30.1376181464  TIP3      18649           0.0000000000
     78200     18842  TIP3      OH2            33.9597092502       14.3782920526      -40.8798554390  TIP3      18650           0.0000000000
     78201     18842  TIP3      H1             34.2831296495       13.9571259208      -40.0721271651  TIP3      18650           0.0000000000
     78202     18842  TIP3      H2             33.0055567914       14.2154818190      -40.8062316022  TIP3      18650           0.0000000000
     78203     18843  TIP3      OH2            34.4268281209       17.9029304076      -27.4723080458  TIP3      18651           0.0000000000
     78204     18843  TIP3      H1             33.7485019320       17.4205924920      -27.9862915901  TIP3      18651           0.0000000000
     78205     18843  TIP3      H2             34.6619146144       18.6046579310      -28.1241484509  TIP3      18651           0.0000000000
     78206     18844  TIP3      OH2            22.5263944193        5.1859751182      -28.0711948375  TIP3      18652           0.0000000000
     78207     18844  TIP3      H1             21.6105571718        5.5027035879      -28.1300895951  TIP3      18652           0.0000000000
     78208     18844  TIP3      H2             22.4160947673        4.3313251112      -27.6237890827  TIP3      18652           0.0000000000
     78209     18845  TIP3      OH2            34.7323363238       13.0229960997      -38.5147414390  TIP3      18653           0.0000000000
     78210     18845  TIP3      H1             34.6329921154       12.0971690308      -38.2383947119  TIP3      18653           0.0000000000
     78211     18845  TIP3      H2             35.7127969009       13.1263046322      -38.4930346319  TIP3      18653           0.0000000000
     78212     18846  TIP3      OH2            22.1638611378       16.9364195440      -29.6539199287  TIP3      18654           0.0000000000
     78213     18846  TIP3      H1             22.4410658499       16.0110784937      -29.6394113376  TIP3      18654           0.0000000000
     78214     18846  TIP3      H2             22.4146532549       17.2599795640      -28.7879605588  TIP3      18654           0.0000000000
     78215     18847  TIP3      OH2            28.1094561447       15.4916640217      -42.3787751357  TIP3      18655           0.0000000000
     78216     18847  TIP3      H1             28.2053421390       14.7341517590      -42.9769841611  TIP3      18655           0.0000000000
     78217     18847  TIP3      H2             27.6652002615       15.0525154606      -41.6188686099  TIP3      18655           0.0000000000
     78218     18848  TIP3      OH2            26.8885258729       15.0205955098      -39.9366265356  TIP3      18656           0.0000000000
     78219     18848  TIP3      H1             27.1345634181       14.4793596881      -39.1721596177  TIP3      18656           0.0000000000
     78220     18848  TIP3      H2             26.9621917960       15.9388373148      -39.5919138327  TIP3      18656           0.0000000000
     78221     18849  TIP3      OH2            23.2932473075       12.4418215892      -39.7108784111  TIP3      18657           0.0000000000
     78222     18849  TIP3      H1             22.7524662869       12.6339574631      -38.9178305006  TIP3      18657           0.0000000000
     78223     18849  TIP3      H2             23.9762881105       13.1251870586      -39.7022015060  TIP3      18657           0.0000000000
     78224     18850  TIP3      OH2            31.2198741534        4.9334225085      -29.1158976087  TIP3      18658           0.0000000000
     78225     18850  TIP3      H1             31.9706546071        5.0010976702      -28.5110360062  TIP3      18658           0.0000000000
     78226     18850  TIP3      H2             30.8579779696        4.0507939931      -28.9109193324  TIP3      18658           0.0000000000
     78227     18851  TIP3      OH2            32.0556624551        4.4758150269      -38.0213432430  TIP3      18659           0.0000000000
     78228     18851  TIP3      H1             32.2187553488        4.9590787416      -38.8533228726  TIP3      18659           0.0000000000
     78229     18851  TIP3      H2             32.6069030355        4.9748676676      -37.4029757348  TIP3      18659           0.0000000000
     78230     18852  TIP3      OH2            29.6841635828       16.6661973201      -39.2382599402  TIP3      18660           0.0000000000
     78231     18852  TIP3      H1             28.8677802978       17.1999028113      -39.1634731320  TIP3      18660           0.0000000000
     78232     18852  TIP3      H2             30.2247732465       17.2197590751      -39.8201741814  TIP3      18660           0.0000000000
     78233     18853  TIP3      OH2            29.2595564740        6.2412352223      -37.2205525099  TIP3      18661           0.0000000000
     78234     18853  TIP3      H1             30.0014176017        6.8640451981      -37.1607332280  TIP3      18661           0.0000000000
     78235     18853  TIP3      H2             28.9412286972        6.1403577264      -36.3015010092  TIP3      18661           0.0000000000
     78236     18854  TIP3      OH2            29.8188553603        7.3002389785      -28.0438119633  TIP3      18662           0.0000000000
     78237     18854  TIP3      H1             29.8933733836        7.8493482553      -27.2369904464  TIP3      18662           0.0000000000
     78238     18854  TIP3      H2             30.4531216604        6.5811101657      -27.9275465431  TIP3      18662           0.0000000000
     78239     18855  TIP3      OH2            30.0721945586        3.2793567405      -36.3045021759  TIP3      18663           0.0000000000
     78240     18855  TIP3      H1             29.7520364738        3.9669435274      -35.6909927223  TIP3      18663           0.0000000000
     78241     18855  TIP3      H2             30.7348043808        3.8528325839      -36.7811978724  TIP3      18663           0.0000000000
     78242     18856  TIP3      OH2            27.0793086773       17.7024569295      -39.2056330147  TIP3      18664           0.0000000000
     78243     18856  TIP3      H1             27.1782702472       18.5169688714      -39.7555257386  TIP3      18664           0.0000000000
     78244     18856  TIP3      H2             26.8135492648       18.0681908586      -38.3329786715  TIP3      18664           0.0000000000
     78245     18857  TIP3      OH2            25.7372954939        4.4456286897      -39.6369440948  TIP3      18665           0.0000000000
     78246     18857  TIP3      H1             25.6911389109        5.3419500058      -39.2422365928  TIP3      18665           0.0000000000
     78247     18857  TIP3      H2             26.6372350446        4.1827971045      -39.3610040092  TIP3      18665           0.0000000000
     78248     18858  TIP3      OH2            35.8325093441        4.9232304569      -27.3809185523  TIP3      18666           0.0000000000
     78249     18858  TIP3      H1             35.0011150711        5.4558639989      -27.3444779915  TIP3      18666           0.0000000000
     78250     18858  TIP3      H2             36.2315615156        5.2108207588      -28.2026762298  TIP3      18666           0.0000000000
     78251     18859  TIP3      OH2            34.5671135691        8.9477168406      -33.1449270626  TIP3      18667           0.0000000000
     78252     18859  TIP3      H1             33.7467927153        8.4968666213      -33.4368218929  TIP3      18667           0.0000000000
     78253     18859  TIP3      H2             34.9977053638        8.2403772435      -32.6466369490  TIP3      18667           0.0000000000
     78254     18860  TIP3      OH2            23.9712520998       14.9054780560      -40.5980620271  TIP3      18668           0.0000000000
     78255     18860  TIP3      H1             24.6479482522       15.5088407505      -40.2778831692  TIP3      18668           0.0000000000
     78256     18860  TIP3      H2             24.4821298776       14.3852758782      -41.2522610912  TIP3      18668           0.0000000000
     78257     18861  TIP3      OH2            22.3134607429        7.5335585807      -41.4459436071  TIP3      18669           0.0000000000
     78258     18861  TIP3      H1             22.3398932814        8.4924055744      -41.2304414051  TIP3      18669           0.0000000000
     78259     18861  TIP3      H2             21.4161817271        7.3718756319      -41.7416059239  TIP3      18669           0.0000000000
     78260     18862  TIP3      OH2            35.7040619301       18.2393406392      -31.4986734628  TIP3      18670           0.0000000000
     78261     18862  TIP3      H1             35.5479570696       18.8984863416      -32.2029579824  TIP3      18670           0.0000000000
     78262     18862  TIP3      H2             36.6555190489       18.3052496774      -31.3507973449  TIP3      18670           0.0000000000
     78263     18863  TIP3      OH2            23.1267683469        2.3234960143      -32.6957446224  TIP3      18671           0.0000000000
     78264     18863  TIP3      H1             22.9335370530        2.3407188007      -33.6591995660  TIP3      18671           0.0000000000
     78265     18863  TIP3      H2             22.7127104779        1.4705910452      -32.4449873646  TIP3      18671           0.0000000000
     78266     18864  TIP3      OH2            22.0911541982       16.2316327135      -36.5526953510  TIP3      18672           0.0000000000
     78267     18864  TIP3      H1             21.2390074773       16.6823890539      -36.5950142451  TIP3      18672           0.0000000000
     78268     18864  TIP3      H2             22.5616626856       16.7088014268      -37.2491104300  TIP3      18672           0.0000000000
     78269     18865  TIP3      OH2            21.3055892861       18.9083825908      -25.2678961892  TIP3      18673           0.0000000000
     78270     18865  TIP3      H1             21.9180592222       18.6629341963      -24.5748881623  TIP3      18673           0.0000000000
     78271     18865  TIP3      H2             20.8960024746       18.0643599348      -25.5190531315  TIP3      18673           0.0000000000
     78272     18866  TIP3      OH2            30.1100578599       17.3275855397      -42.2623041339  TIP3      18674           0.0000000000
     78273     18866  TIP3      H1             29.4126623183       16.6744322927      -42.0326218365  TIP3      18674           0.0000000000
     78274     18866  TIP3      H2             30.8290066089       16.7276997870      -42.5054187228  TIP3      18674           0.0000000000
     78275     18867  TIP3      OH2            34.6317788336       17.0898787044      -42.0242692831  TIP3      18675           0.0000000000
     78276     18867  TIP3      H1             34.9407505311       16.2921345067      -41.5701676367  TIP3      18675           0.0000000000
     78277     18867  TIP3      H2             35.3804525676       17.2728235274      -42.6227060714  TIP3      18675           0.0000000000
     78278     18868  TIP3      OH2            25.5523493146       13.0116191860      -42.2636610590  TIP3      18676           0.0000000000
     78279     18868  TIP3      H1             25.6670851427       12.2714605098      -41.6379421519  TIP3      18676           0.0000000000
     78280     18868  TIP3      H2             26.3032555806       12.8892746210      -42.8670556788  TIP3      18676           0.0000000000
     78281     18869  TIP3      OH2            28.0877515018       12.6834299237      -24.9399771111  TIP3      18677           0.0000000000
     78282     18869  TIP3      H1             27.5414164889       12.9929934935      -25.6865709087  TIP3      18677           0.0000000000
     78283     18869  TIP3      H2             27.9662681942       11.7085723223      -24.9689336614  TIP3      18677           0.0000000000
     78284     18870  TIP3      OH2            30.9628766770       14.1007028647      -42.4889811965  TIP3      18678           0.0000000000
     78285     18870  TIP3      H1             30.7039234541       14.2151295741      -41.5580129713  TIP3      18678           0.0000000000
     78286     18870  TIP3      H2             30.7758681262       13.1527513076      -42.6142474092  TIP3      18678           0.0000000000
     78287     18871  TIP3      OH2            33.5458854858       12.4990279158      -27.4280125134  TIP3      18679           0.0000000000
     78288     18871  TIP3      H1             34.3617134082       13.0456042183      -27.5804422580  TIP3      18679           0.0000000000
     78289     18871  TIP3      H2             32.8935749689       13.2058942904      -27.4852644155  TIP3      18679           0.0000000000
     78290     18872  TIP3      OH2            26.7389887110       11.1079486483      -39.9378394678  TIP3      18680           0.0000000000
     78291     18872  TIP3      H1             26.3191916309       10.6217275776      -39.1752000039  TIP3      18680           0.0000000000
     78292     18872  TIP3      H2             27.0150361643       10.3357872943      -40.4562163094  TIP3      18680           0.0000000000
     78293     18873  TIP3      OH2            26.0247252720        8.8553066057      -27.5439435042  TIP3      18681           0.0000000000
     78294     18873  TIP3      H1             25.4276885884        9.5757600604      -27.3070133207  TIP3      18681           0.0000000000
     78295     18873  TIP3      H2             26.4375498425        9.1944844964      -28.3600305258  TIP3      18681           0.0000000000
     78296     18874  TIP3      OH2            27.6482576977        9.2085944885      -41.3759734926  TIP3      18682           0.0000000000
     78297     18874  TIP3      H1             27.2918764123        9.1742244471      -42.2859750948  TIP3      18682           0.0000000000
     78298     18874  TIP3      H2             28.6117778085        9.3715432946      -41.2654069453  TIP3      18682           0.0000000000
     78299     18875  TIP3      OH2            26.4134697490        6.2334497089      -26.4575081002  TIP3      18683           0.0000000000
     78300     18875  TIP3      H1             26.5169429120        5.5144798516      -27.1037679905  TIP3      18683           0.0000000000
     78301     18875  TIP3      H2             26.3776701193        7.0233704170      -27.0243887274  TIP3      18683           0.0000000000
     78302     18876  TIP3      OH2            26.8265678396        4.5946430968      -28.9282737695  TIP3      18684           0.0000000000
     78303     18876  TIP3      H1             27.3333895336        5.0720484993      -29.6262517890  TIP3      18684           0.0000000000
     78304     18876  TIP3      H2             25.9327954595        4.5207170322      -29.3318936205  TIP3      18684           0.0000000000
     78305     18877  TIP3      OH2            28.3694168096       10.0917079393      -28.6804626774  TIP3      18685           0.0000000000
     78306     18877  TIP3      H1             29.1212032166        9.9213403838      -29.2588065280  TIP3      18685           0.0000000000
     78307     18877  TIP3      H2             27.9984547696       10.9163974087      -29.0333023191  TIP3      18685           0.0000000000
     78308     18878  TIP3      OH2            32.8009040552        7.8335571830      -23.6970189228  TIP3      18686           0.0000000000
     78309     18878  TIP3      H1             33.0390427721        6.9058048420      -23.8092574831  TIP3      18686           0.0000000000
     78310     18878  TIP3      H2             33.6561716499        8.2859196354      -23.7514544574  TIP3      18686           0.0000000000
     78311     18879  TIP3      OH2            34.1573132035       10.6643232088      -25.6544973133  TIP3      18687           0.0000000000
     78312     18879  TIP3      H1             33.8655228590       11.3788152391      -26.2571564631  TIP3      18687           0.0000000000
     78313     18879  TIP3      H2             35.0962506520       10.5802825771      -25.8134724164  TIP3      18687           0.0000000000
     78314     18880  TIP3      OH2            27.6055092480        2.0329409260      -28.5215517350  TIP3      18688           0.0000000000
     78315     18880  TIP3      H1             27.4319097797        2.9990506625      -28.6231728258  TIP3      18688           0.0000000000
     78316     18880  TIP3      H2             26.8655150043        1.6689953563      -29.0385961343  TIP3      18688           0.0000000000
     78317     18881  TIP3      OH2            28.8986067669        6.3471168365      -24.9183185223  TIP3      18689           0.0000000000
     78318     18881  TIP3      H1             28.5799089515        6.1402686271      -24.0184310135  TIP3      18689           0.0000000000
     78319     18881  TIP3      H2             28.0911011216        6.1821947461      -25.4434532224  TIP3      18689           0.0000000000
     78320     18882  TIP3      OH2            31.5570809648        5.5052758366      -25.8395901974  TIP3      18690           0.0000000000
     78321     18882  TIP3      H1             30.6004201469        5.5662327966      -25.6813200018  TIP3      18690           0.0000000000
     78322     18882  TIP3      H2             31.8799223140        4.8795827607      -25.1621622378  TIP3      18690           0.0000000000
     78323     18883  TIP3      OH2            33.2170285432        4.1257884980      -23.8937599375  TIP3      18691           0.0000000000
     78324     18883  TIP3      H1             33.1417564877        3.1457690343      -23.9015591415  TIP3      18691           0.0000000000
     78325     18883  TIP3      H2             32.9203816272        4.4036223525      -23.0016928327  TIP3      18691           0.0000000000
     78326     18884  TIP3      OH2            22.9826567679        5.4119611093      -24.7894079740  TIP3      18692           0.0000000000
     78327     18884  TIP3      H1             23.2287779683        4.6943985891      -25.4039149184  TIP3      18692           0.0000000000
     78328     18884  TIP3      H2             22.9054854807        4.9109813872      -23.9558135459  TIP3      18692           0.0000000000
     78329     18885  TIP3      OH2            27.8292706340        1.4307893991      -25.8411842092  TIP3      18693           0.0000000000
     78330     18885  TIP3      H1             28.5098872429        0.7228167098      -25.8548742318  TIP3      18693           0.0000000000
     78331     18885  TIP3      H2             27.7159150354        1.5716145016      -26.8025105280  TIP3      18693           0.0000000000
     78332     18886  TIP3      OH2            28.1787031930        3.0338700920      -23.7250422517  TIP3      18694           0.0000000000
     78333     18886  TIP3      H1             28.0277302911        2.5271438936      -24.5612518061  TIP3      18694           0.0000000000
     78334     18886  TIP3      H2             27.6068420895        3.8180252540      -23.8520431116  TIP3      18694           0.0000000000
     78335     18887  TIP3      OH2            27.6610184291       19.9548757899      -40.5499816796  TIP3      18695           0.0000000000
     78336     18887  TIP3      H1             28.6279947815       20.0411151693      -40.4814550055  TIP3      18695           0.0000000000
     78337     18887  TIP3      H2             27.5107300182       20.5579063575      -41.2876538101  TIP3      18695           0.0000000000
     78338     18888  TIP3      OH2            21.2028243284       14.5581034557      -41.1049681102  TIP3      18696           0.0000000000
     78339     18888  TIP3      H1             22.1680027238       14.6090071779      -40.8914919626  TIP3      18696           0.0000000000
     78340     18888  TIP3      H2             21.2654769339       13.8718780641      -41.8110917800  TIP3      18696           0.0000000000
     78341     18889  TIP3      OH2            20.0067949673       19.8987523785      -36.1218935118  TIP3      18697           0.0000000000
     78342     18889  TIP3      H1             19.2852836936       19.4175383593      -36.5828923270  TIP3      18697           0.0000000000
     78343     18889  TIP3      H2             20.2637465653       19.2642335816      -35.4296249957  TIP3      18697           0.0000000000
     78344     18890  TIP3      OH2            20.8543252986       18.0393935896      -34.2378435233  TIP3      18698           0.0000000000
     78345     18890  TIP3      H1             20.4532432118       17.1839530157      -34.0275659804  TIP3      18698           0.0000000000
     78346     18890  TIP3      H2             21.0131302073       18.3905619424      -33.3455911259  TIP3      18698           0.0000000000
     78347     18891  TIP3      OH2            36.2529438402       16.1343485241      -29.0932667150  TIP3      18699           0.0000000000
     78348     18891  TIP3      H1             35.6040459587       16.5191642295      -28.4932397828  TIP3      18699           0.0000000000
     78349     18891  TIP3      H2             35.7381323411       15.7288381056      -29.8144320092  TIP3      18699           0.0000000000
     78350     18892  TIP3      OH2            35.4011387823        9.1169556674      -35.6791136171  TIP3      18700           0.0000000000
     78351     18892  TIP3      H1             35.6292177817        8.1801514842      -35.6754717800  TIP3      18700           0.0000000000
     78352     18892  TIP3      H2             35.5040158959        9.3210430082      -34.7259818604  TIP3      18700           0.0000000000
     78353     18893  TIP3      OH2            20.8756527770       11.1239165819      -31.7492905319  TIP3      18701           0.0000000000
     78354     18893  TIP3      H1             21.0547027933       11.0462225917      -32.7102272037  TIP3      18701           0.0000000000
     78355     18893  TIP3      H2             21.7684712166       10.9540625689      -31.3905107711  TIP3      18701           0.0000000000
     78356     18894  TIP3      OH2            35.9358901692        5.0654637695      -42.3355228328  TIP3      18702           0.0000000000
     78357     18894  TIP3      H1             36.5322911544        4.6412032514      -41.7138875308  TIP3      18702           0.0000000000
     78358     18894  TIP3      H2             35.0824831963        4.6446969320      -42.1470475780  TIP3      18702           0.0000000000
     78359     18895  TIP3      OH2            35.5028483912        6.5587590485      -37.5101535352  TIP3      18703           0.0000000000
     78360     18895  TIP3      H1             35.7885946676        5.7196645092      -37.1040994860  TIP3      18703           0.0000000000
     78361     18895  TIP3      H2             36.3514319637        6.9103601868      -37.8047295645  TIP3      18703           0.0000000000
     78362     18896  TIP3      OH2           -37.0526572237        6.3403117560      -31.9058341068  TIP3      18704           0.0000000000
     78363     18896  TIP3      H1            -36.1635463263        6.6852166561      -32.0442794131  TIP3      18704           0.0000000000
     78364     18896  TIP3      H2            -37.2698229810        6.9774270782      -31.2045212007  TIP3      18704           0.0000000000
     78365     18897  TIP3      OH2            36.2508855822        7.9536822330      -28.8684839544  TIP3      18705           0.0000000000
     78366     18897  TIP3      H1             35.3139496016        8.2100475092      -28.7801226306  TIP3      18705           0.0000000000
     78367     18897  TIP3      H2             36.6107810079        8.6616101639      -29.4367028689  TIP3      18705           0.0000000000
     78368     18898  TIP3      OH2            20.4784714281        6.4062655004      -25.5858834913  TIP3      18706           0.0000000000
     78369     18898  TIP3      H1             21.4256952635        6.2078863050      -25.4259793094  TIP3      18706           0.0000000000
     78370     18898  TIP3      H2             20.0397685357        5.5796097975      -25.2790392186  TIP3      18706           0.0000000000
     78371     18899  TIP3      OH2            35.3136574407        3.6113433142      -36.6464931176  TIP3      18707           0.0000000000
     78372     18899  TIP3      H1             36.2423832174        3.4298897872      -36.4262682539  TIP3      18707           0.0000000000
     78373     18899  TIP3      H2             35.3249371211        3.1823246600      -37.5295099928  TIP3      18707           0.0000000000
     78374     18900  TIP3      OH2            21.6903336726        4.7174102851      -32.7399419268  TIP3      18708           0.0000000000
     78375     18900  TIP3      H1             22.1525862327        3.8915074328      -32.4845809762  TIP3      18708           0.0000000000
     78376     18900  TIP3      H2             22.2438464072        5.4096273147      -32.3548130649  TIP3      18708           0.0000000000
     78377     18901  TIP3      OH2            19.9762257776        7.7188328957      -31.7038876345  TIP3      18709           0.0000000000
     78378     18901  TIP3      H1             20.5375331086        7.4694448708      -32.4656262092  TIP3      18709           0.0000000000
     78379     18901  TIP3      H2             20.4412216992        8.5245150150      -31.4350290319  TIP3      18709           0.0000000000
     78380     18902  TIP3      OH2            20.3442960475        3.9939386002      -37.6213326741  TIP3      18710           0.0000000000
     78381     18902  TIP3      H1             19.4003877527        4.1545667032      -37.7826946608  TIP3      18710           0.0000000000
     78382     18902  TIP3      H2             20.7597211379        4.4716158010      -38.3572971407  TIP3      18710           0.0000000000
     78383     18903  TIP3      OH2            34.8872543172       18.7439770562      -35.5839501485  TIP3      18711           0.0000000000
     78384     18903  TIP3      H1             35.5524614704       18.4038977884      -36.2016926382  TIP3      18711           0.0000000000
     78385     18903  TIP3      H2             35.4142982092       19.3282145141      -35.0109856631  TIP3      18711           0.0000000000
     78386     18904  TIP3      OH2            20.2855677573        2.6348761482      -29.3375112341  TIP3      18712           0.0000000000
     78387     18904  TIP3      H1             19.6152933999        2.4479831119      -28.6539928008  TIP3      18712           0.0000000000
     78388     18904  TIP3      H2             19.8279079254        3.3110120803      -29.8732579691  TIP3      18712           0.0000000000
     78389     18905  TIP3      OH2            22.4553450991       15.7998128596      -25.1405089102  TIP3      18713           0.0000000000
     78390     18905  TIP3      H1             21.6478176921       16.0589588082      -25.6171183589  TIP3      18713           0.0000000000
     78391     18905  TIP3      H2             22.2094476648       15.7830376478      -24.2187205528  TIP3      18713           0.0000000000
     78392     18906  TIP3      OH2            25.4176088079       16.8317032973      -28.9005995827  TIP3      18714           0.0000000000
     78393     18906  TIP3      H1             25.0746410158       17.6955112685      -29.1815619680  TIP3      18714           0.0000000000
     78394     18906  TIP3      H2             26.3494572451       16.9260725209      -29.1860635740  TIP3      18714           0.0000000000
     78395     18907  TIP3      OH2            29.7826349720       18.2506679684      -26.0156558458  TIP3      18715           0.0000000000
     78396     18907  TIP3      H1             29.8935942273       17.9496403689      -25.0991088575  TIP3      18715           0.0000000000
     78397     18907  TIP3      H2             30.6663546286       18.6040753396      -26.2606206948  TIP3      18715           0.0000000000
     78398     18908  TIP3      OH2            32.0502262738       19.4911250771      -26.6346041476  TIP3      18716           0.0000000000
     78399     18908  TIP3      H1             32.8078072926       18.9610354797      -26.9367350374  TIP3      18716           0.0000000000
     78400     18908  TIP3      H2             32.4367608216       19.9737338103      -25.8806822156  TIP3      18716           0.0000000000
     78401     18909  TIP3      OH2            22.8730758287       20.0905852393      -28.8871623470  TIP3      18717           0.0000000000
     78402     18909  TIP3      H1             22.1289089077       20.5534887815      -29.3168271762  TIP3      18717           0.0000000000
     78403     18909  TIP3      H2             22.5005084624       19.8960939728      -28.0220662453  TIP3      18717           0.0000000000
     78404     18910  TIP3      OH2            25.3544409805       19.6629594551      -29.8163268976  TIP3      18718           0.0000000000
     78405     18910  TIP3      H1             24.4546880965       19.8048262620      -29.4294425886  TIP3      18718           0.0000000000
     78406     18910  TIP3      H2             25.2695502005       20.2359448255      -30.6019816957  TIP3      18718           0.0000000000
     78407     18911  TIP3      OH2            29.9896169668       19.5499605840      -30.6475254842  TIP3      18719           0.0000000000
     78408     18911  TIP3      H1             29.5585639621       20.1179468809      -31.3063411911  TIP3      18719           0.0000000000
     78409     18911  TIP3      H2             30.1567499327       20.1929388047      -29.9210546444  TIP3      18719           0.0000000000
     78410     18912  TIP3      OH2            32.2977459463       18.3686800803      -29.6509491545  TIP3      18720           0.0000000000
     78411     18912  TIP3      H1             31.4462174163       18.6527578837      -30.0218293433  TIP3      18720           0.0000000000
     78412     18912  TIP3      H2             32.7697309885       19.2224788812      -29.7183794879  TIP3      18720           0.0000000000
     78413     18913  TIP3      OH2            34.7664339154       19.9433821298      -29.4059642212  TIP3      18721           0.0000000000
     78414     18913  TIP3      H1             34.7557654655       20.8925204183      -29.6297393130  TIP3      18721           0.0000000000
     78415     18913  TIP3      H2             35.1031876441       19.5695875374      -30.2437012400  TIP3      18721           0.0000000000
     78416     18914  TIP3      OH2            22.5433339765       18.8431502156      -31.9480001416  TIP3      18722           0.0000000000
     78417     18914  TIP3      H1             22.2000242486       18.2978323499      -31.2001683659  TIP3      18722           0.0000000000
     78418     18914  TIP3      H2             23.2139818975       18.2866899734      -32.3770009453  TIP3      18722           0.0000000000
     78419     18915  TIP3      OH2            24.3858649488       17.4246767535      -33.3239913646  TIP3      18723           0.0000000000
     78420     18915  TIP3      H1             24.2224402505       16.4989749035      -33.0638552048  TIP3      18723           0.0000000000
     78421     18915  TIP3      H2             25.2264385463       17.5961020471      -32.8478063213  TIP3      18723           0.0000000000
     78422     18916  TIP3      OH2            26.9780102492       17.9195744855      -32.4322500577  TIP3      18724           0.0000000000
     78423     18916  TIP3      H1             27.1281201009       16.9936480846      -32.7072027522  TIP3      18724           0.0000000000
     78424     18916  TIP3      H2             27.0405188064       17.8594239956      -31.4666705317  TIP3      18724           0.0000000000
     78425     18917  TIP3      OH2            30.4073628979        3.5724417852      -33.3102289893  TIP3      18725           0.0000000000
     78426     18917  TIP3      H1             29.7576744770        2.9302677939      -32.9867460219  TIP3      18725           0.0000000000
     78427     18917  TIP3      H2             31.0176524245        3.0606424135      -33.8490640668  TIP3      18725           0.0000000000
     78428     18918  TIP3      OH2            35.5704574225        1.5927932083      -33.2335430569  TIP3      18726           0.0000000000
     78429     18918  TIP3      H1             36.1653267908        2.2240068451      -33.6522049617  TIP3      18726           0.0000000000
     78430     18918  TIP3      H2             34.6997935086        1.9905636178      -33.4209174447  TIP3      18726           0.0000000000
     78431     18919  TIP3      OH2            22.8193596428        2.1941875065      -35.4417692495  TIP3      18727           0.0000000000
     78432     18919  TIP3      H1             22.0202050696        2.0007878445      -35.9686093175  TIP3      18727           0.0000000000
     78433     18919  TIP3      H2             23.2753953284        1.3321982868      -35.5009349470  TIP3      18727           0.0000000000
     78434     18920  TIP3      OH2            21.5787724766        1.9469498848      -39.7228293310  TIP3      18728           0.0000000000
     78435     18920  TIP3      H1             22.0762500390        2.5978781489      -40.2534056469  TIP3      18728           0.0000000000
     78436     18920  TIP3      H2             21.0202328953        2.5215355958      -39.1767560553  TIP3      18728           0.0000000000
     78437     18921  TIP3      OH2            27.3625277614        2.0039770045      -35.6482910726  TIP3      18729           0.0000000000
     78438     18921  TIP3      H1             28.1595410537        2.5538604469      -35.7097510722  TIP3      18729           0.0000000000
     78439     18921  TIP3      H2             27.2068577687        1.9463826883      -34.7061618306  TIP3      18729           0.0000000000
     78440     18922  TIP3      OH2            32.9446988946        2.1180079548      -34.0333538756  TIP3      18730           0.0000000000
     78441     18922  TIP3      H1             33.0187995726        2.2892477499      -34.9813750297  TIP3      18730           0.0000000000
     78442     18922  TIP3      H2             32.6411480435        1.1980809889      -33.9093657113  TIP3      18730           0.0000000000
     78443     18923  TIP3      OH2            34.2276622169        2.0855498410      -38.4544708957  TIP3      18731           0.0000000000
     78444     18923  TIP3      H1             33.5365843481        2.7578949928      -38.5241166897  TIP3      18731           0.0000000000
     78445     18923  TIP3      H2             33.7676032625        1.2811975718      -38.1513906514  TIP3      18731           0.0000000000
     78446     18924  TIP3      OH2            21.4885594646       17.9151711690      -38.6802562654  TIP3      18732           0.0000000000
     78447     18924  TIP3      H1             20.8406791790       17.8851974206      -39.4083263249  TIP3      18732           0.0000000000
     78448     18924  TIP3      H2             21.4887628778       18.8696756888      -38.5183268751  TIP3      18732           0.0000000000
     78449     18925  TIP3      OH2            23.4096229340        3.8901699808      -41.2055495712  TIP3      18733           0.0000000000
     78450     18925  TIP3      H1             23.9410239230        3.2778680804      -41.7387080960  TIP3      18733           0.0000000000
     78451     18925  TIP3      H2             24.0778214491        4.2154765463      -40.5737358341  TIP3      18733           0.0000000000
     78452     18926  TIP3      OH2            28.4525382223        4.1255536371      -38.8022164517  TIP3      18734           0.0000000000
     78453     18926  TIP3      H1             28.6801924502        3.5684853804      -38.0494201696  TIP3      18734           0.0000000000
     78454     18926  TIP3      H2             28.4966612799        5.0092724683      -38.3674687503  TIP3      18734           0.0000000000
     78455     18927  TIP3      OH2            30.3623953039       19.2041025991      -40.3580259395  TIP3      18735           0.0000000000
     78456     18927  TIP3      H1             31.2819336358       19.4367249793      -40.5756997766  TIP3      18735           0.0000000000
     78457     18927  TIP3      H2             30.1494644665       18.6869420112      -41.1615142429  TIP3      18735           0.0000000000
     78458     18928  TIP3      OH2            22.6998355603        2.7479302685      -25.9828344356  TIP3      18736           0.0000000000
     78459     18928  TIP3      H1             22.2862346966        1.9576907087      -25.5782397308  TIP3      18736           0.0000000000
     78460     18928  TIP3      H2             23.6031120145        2.6886034944      -25.5978391139  TIP3      18736           0.0000000000
     78461     18929  TIP3      OH2            24.7177622007        2.0950776231      -24.3475254873  TIP3      18737           0.0000000000
     78462     18929  TIP3      H1             25.5969346022        1.7688159261      -24.6146144564  TIP3      18737           0.0000000000
     78463     18929  TIP3      H2             24.3397196323        1.3051153283      -23.9383856627  TIP3      18737           0.0000000000
     78464     18930  TIP3      OH2            23.2914534657       18.8857049424      -41.7566290466  TIP3      18738           0.0000000000
     78465     18930  TIP3      H1             23.0307025868       19.1394443797      -40.8598811278  TIP3      18738           0.0000000000
     78466     18930  TIP3      H2             24.0728211800       18.3187382534      -41.5981827494  TIP3      18738           0.0000000000
     78467     18931  TIP3      OH2            33.1342459742        1.4250234441      -24.2377500788  TIP3      18739           0.0000000000
     78468     18931  TIP3      H1             33.1961951778        0.9565223260      -23.3772302028  TIP3      18739           0.0000000000
     78469     18931  TIP3      H2             34.0568131448        1.4014044208      -24.5658300595  TIP3      18739           0.0000000000
     78470     18932  TIP3      OH2            36.0829028040       17.3913151505      -25.4011266818  TIP3      18740           0.0000000000
     78471     18932  TIP3      H1             35.4610118560       17.2716998947      -26.1456928256  TIP3      18740           0.0000000000
     78472     18932  TIP3      H2             36.1149858367       18.3665697480      -25.4275858131  TIP3      18740           0.0000000000
     78473     18933  TIP3      OH2           -24.7054074790       30.1702658168      -35.5653880561  TIP3      18741           0.0000000000
     78474     18933  TIP3      H1            -24.6677233148       31.1533489246      -35.6246774430  TIP3      18741           0.0000000000
     78475     18933  TIP3      H2            -25.3830556197       29.9447261186      -36.2195931931  TIP3      18741           0.0000000000
     78476     18934  TIP3      OH2           -25.8660918720       29.4648267630      -32.0794297644  TIP3      18742           0.0000000000
     78477     18934  TIP3      H1            -25.7981656646       28.8069431762      -31.3665705802  TIP3      18742           0.0000000000
     78478     18934  TIP3      H2            -26.1266928887       28.9103635783      -32.8362225175  TIP3      18742           0.0000000000
     78479     18935  TIP3      OH2           -33.3888980026       29.1303181337      -30.5555494659  TIP3      18743           0.0000000000
     78480     18935  TIP3      H1            -33.3430313211       28.4394081029      -29.8602590638  TIP3      18743           0.0000000000
     78481     18935  TIP3      H2            -32.6959988862       29.7273827192      -30.2599067700  TIP3      18743           0.0000000000
     78482     18936  TIP3      OH2           -22.1256995814       32.3792531610      -33.7883817644  TIP3      18744           0.0000000000
     78483     18936  TIP3      H1            -22.5464407454       31.6675403291      -33.2983312893  TIP3      18744           0.0000000000
     78484     18936  TIP3      H2            -22.0854523146       33.0978492988      -33.1332052606  TIP3      18744           0.0000000000
     78485     18937  TIP3      OH2           -32.5262331079       33.5705504423      -32.0015357596  TIP3      18745           0.0000000000
     78486     18937  TIP3      H1            -32.8725039467       32.7199947428      -32.3374477950  TIP3      18745           0.0000000000
     78487     18937  TIP3      H2            -31.5732313307       33.3894989917      -31.9710583560  TIP3      18745           0.0000000000
     78488     18938  TIP3      OH2           -35.6235461401       27.1214424821      -36.9565840506  TIP3      18746           0.0000000000
     78489     18938  TIP3      H1            -36.0669348931       27.9168547501      -36.5809930900  TIP3      18746           0.0000000000
     78490     18938  TIP3      H2            -36.4132137136       26.5878615637      -36.9577880934  TIP3      18746           0.0000000000
     78491     18939  TIP3      OH2           -35.2157951019       29.2753972321      -34.4351979416  TIP3      18747           0.0000000000
     78492     18939  TIP3      H1            -34.9132276453       28.5173131413      -33.9141957480  TIP3      18747           0.0000000000
     78493     18939  TIP3      H2            -34.4926656442       29.4471177675      -35.0512283980  TIP3      18747           0.0000000000
     78494     18940  TIP3      OH2           -27.4701162371       31.8127290959      -31.6767803811  TIP3      18748           0.0000000000
     78495     18940  TIP3      H1            -26.9910451029       31.1710991549      -32.2256855015  TIP3      18748           0.0000000000
     78496     18940  TIP3      H2            -26.7030577504       32.0360451496      -31.0930808817  TIP3      18748           0.0000000000
     78497     18941  TIP3      OH2           -18.8409754245       23.5081062712      -30.8901942808  TIP3      18749           0.0000000000
     78498     18941  TIP3      H1            -18.6635975447       24.0943175243      -30.1237854068  TIP3      18749           0.0000000000
     78499     18941  TIP3      H2            -18.2689158897       23.9232421942      -31.5523743516  TIP3      18749           0.0000000000
     78500     18942  TIP3      OH2           -24.2678305285       26.3153537597      -31.2972358798  TIP3      18750           0.0000000000
     78501     18942  TIP3      H1            -24.1000883829       25.3560652681      -31.2909285119  TIP3      18750           0.0000000000
     78502     18942  TIP3      H2            -24.3712230868       26.4529045063      -32.2585749006  TIP3      18750           0.0000000000
     78503     18943  TIP3      OH2           -31.1592841135       24.4070599913      -34.0729168230  TIP3      18751           0.0000000000
     78504     18943  TIP3      H1            -31.0338645380       25.2300001298      -34.5779821679  TIP3      18751           0.0000000000
     78505     18943  TIP3      H2            -31.5291789283       23.8229282555      -34.7723347792  TIP3      18751           0.0000000000
     78506     18944  TIP3      OH2           -23.4062713905       24.4779782815      -35.7165337925  TIP3      18752           0.0000000000
     78507     18944  TIP3      H1            -22.7629835477       24.1682028505      -35.0356264946  TIP3      18752           0.0000000000
     78508     18944  TIP3      H2            -22.8452687951       25.0634366493      -36.2434202270  TIP3      18752           0.0000000000
     78509     18945  TIP3      OH2           -34.5607572832       26.7281706768      -33.4091417785  TIP3      18753           0.0000000000
     78510     18945  TIP3      H1            -33.8358471328       26.2610924672      -32.9425139037  TIP3      18753           0.0000000000
     78511     18945  TIP3      H2            -34.3761298900       26.4505892932      -34.3174351030  TIP3      18753           0.0000000000
     78512     18946  TIP3      OH2           -29.3676824382       28.3971729355      -34.0087089083  TIP3      18754           0.0000000000
     78513     18946  TIP3      H1            -28.7032208175       27.7800694175      -33.6371711408  TIP3      18754           0.0000000000
     78514     18946  TIP3      H2            -29.8710224654       27.7299473977      -34.5395329017  TIP3      18754           0.0000000000
     78515     18947  TIP3      OH2           -18.4020895522       24.9053544568      -28.6060342131  TIP3      18755           0.0000000000
     78516     18947  TIP3      H1            -19.0044991671       25.6776086074      -28.7083744726  TIP3      18755           0.0000000000
     78517     18947  TIP3      H2            -18.3527603251       24.8323444030      -27.6414953602  TIP3      18755           0.0000000000
     78518     18948  TIP3      OH2           -32.1911045671       23.2931309047      -30.0594520188  TIP3      18756           0.0000000000
     78519     18948  TIP3      H1            -32.5084628655       23.8672053083      -30.7876716856  TIP3      18756           0.0000000000
     78520     18948  TIP3      H2            -32.8744578744       23.5255568102      -29.3770484293  TIP3      18756           0.0000000000
     78521     18949  TIP3      OH2           -25.0233458021       32.7439069170      -36.4758219200  TIP3      18757           0.0000000000
     78522     18949  TIP3      H1            -25.1838257321       32.5272605213      -37.4052361464  TIP3      18757           0.0000000000
     78523     18949  TIP3      H2            -25.2425361052       33.6975910324      -36.4399028438  TIP3      18757           0.0000000000
     78524     18950  TIP3      OH2           -29.7337688789       30.9354806966      -29.8771770064  TIP3      18758           0.0000000000
     78525     18950  TIP3      H1            -30.4303002597       31.5537154231      -29.5549242699  TIP3      18758           0.0000000000
     78526     18950  TIP3      H2            -29.0072140664       31.5520686434      -30.0273341213  TIP3      18758           0.0000000000
     78527     18951  TIP3      OH2           -21.6306306609       23.8472463377      -33.7077204488  TIP3      18759           0.0000000000
     78528     18951  TIP3      H1            -21.8241899429       23.0617739757      -33.1880765178  TIP3      18759           0.0000000000
     78529     18951  TIP3      H2            -20.9317605458       24.2692371019      -33.1828245757  TIP3      18759           0.0000000000
     78530     18952  TIP3      OH2           -32.6979789195       25.1382812030      -32.0080388643  TIP3      18760           0.0000000000
     78531     18952  TIP3      H1            -32.0796627176       25.8370094910      -31.6834068313  TIP3      18760           0.0000000000
     78532     18952  TIP3      H2            -32.1524857588       24.7556342393      -32.7479381588  TIP3      18760           0.0000000000
     78533     18953  TIP3      OH2           -31.2746844305       32.9381422894      -29.0353601650  TIP3      18761           0.0000000000
     78534     18953  TIP3      H1            -31.3415368311       33.8605947990      -29.3386331931  TIP3      18761           0.0000000000
     78535     18953  TIP3      H2            -32.1587422289       32.8552706826      -28.5957231828  TIP3      18761           0.0000000000
     78536     18954  TIP3      OH2           -35.2297984350       32.6234917177      -38.2218805414  TIP3      18762           0.0000000000
     78537     18954  TIP3      H1            -35.4567966248       32.9532616484      -39.1048232100  TIP3      18762           0.0000000000
     78538     18954  TIP3      H2            -35.1220196435       33.4361513641      -37.6926361200  TIP3      18762           0.0000000000
     78539     18955  TIP3      OH2           -21.5877442163       34.2532216208      -31.3791645869  TIP3      18763           0.0000000000
     78540     18955  TIP3      H1            -22.5693212518       34.3334005053      -31.2910082860  TIP3      18763           0.0000000000
     78541     18955  TIP3      H2            -21.3053369401       35.1439055384      -31.6510014507  TIP3      18763           0.0000000000
     78542     18956  TIP3      OH2           -21.2738994068       22.5127374051      -30.0486756591  TIP3      18764           0.0000000000
     78543     18956  TIP3      H1            -21.9973603896       23.1480775616      -30.1344837982  TIP3      18764           0.0000000000
     78544     18956  TIP3      H2            -20.5594594121       22.9337990862      -30.5656105989  TIP3      18764           0.0000000000
     78545     18957  TIP3      OH2           -28.2975788119       20.6408195857      -32.5665248568  TIP3      18765           0.0000000000
     78546     18957  TIP3      H1            -28.4341205545       19.6764200787      -32.6440843031  TIP3      18765           0.0000000000
     78547     18957  TIP3      H2            -29.1816790143       20.9426454180      -32.2708212342  TIP3      18765           0.0000000000
     78548     18958  TIP3      OH2           -23.3065551013       35.7096542392      -35.0256211093  TIP3      18766           0.0000000000
     78549     18958  TIP3      H1            -22.7379616595       35.0958822443      -35.5291037200  TIP3      18766           0.0000000000
     78550     18958  TIP3      H2            -22.9039967005       36.5407829786      -35.2642800338  TIP3      18766           0.0000000000
     78551     18959  TIP3      OH2           -22.0909043617       33.8441521232      -36.3319580430  TIP3      18767           0.0000000000
     78552     18959  TIP3      H1            -22.4395774295       33.1817317802      -36.9346624072  TIP3      18767           0.0000000000
     78553     18959  TIP3      H2            -22.0890422322       33.3922082601      -35.4657665487  TIP3      18767           0.0000000000
     78554     18960  TIP3      OH2           -20.4915905050       32.5622077281      -27.8280505224  TIP3      18768           0.0000000000
     78555     18960  TIP3      H1            -20.3615870031       31.8904128904      -28.5373889835  TIP3      18768           0.0000000000
     78556     18960  TIP3      H2            -20.2811639858       33.3979232471      -28.2824930153  TIP3      18768           0.0000000000
     78557     18961  TIP3      OH2           -26.0059030513       29.4390887391      -38.0598245060  TIP3      18769           0.0000000000
     78558     18961  TIP3      H1            -26.7006292145       29.9956569157      -38.4505929850  TIP3      18769           0.0000000000
     78559     18961  TIP3      H2            -25.2974135711       29.5191968830      -38.7273941294  TIP3      18769           0.0000000000
     78560     18962  TIP3      OH2           -25.9264704287       27.9953628065      -41.0555699722  TIP3      18770           0.0000000000
     78561     18962  TIP3      H1            -25.2194394442       27.9728748297      -40.3950370497  TIP3      18770           0.0000000000
     78562     18962  TIP3      H2            -25.6298546881       27.2759569224      -41.6265273035  TIP3      18770           0.0000000000
     78563     18963  TIP3      OH2           -18.6192542706       28.8497106301      -29.7887203452  TIP3      18771           0.0000000000
     78564     18963  TIP3      H1            -19.2772555511       29.5723248264      -29.7487497190  TIP3      18771           0.0000000000
     78565     18963  TIP3      H2            -18.1244563939       29.0844881492      -30.5942025318  TIP3      18771           0.0000000000
     78566     18964  TIP3      OH2           -22.5579783343       29.6347803090      -37.1413059522  TIP3      18772           0.0000000000
     78567     18964  TIP3      H1            -23.3064267400       29.8750355484      -36.5461472570  TIP3      18772           0.0000000000
     78568     18964  TIP3      H2            -22.0866810353       28.9579866334      -36.6231273918  TIP3      18772           0.0000000000
     78569     18965  TIP3      OH2           -22.6275719432       27.8046834718      -28.0381699925  TIP3      18773           0.0000000000
     78570     18965  TIP3      H1            -22.6226428626       28.6111297270      -27.4933926548  TIP3      18773           0.0000000000
     78571     18965  TIP3      H2            -23.2643731950       28.0978106340      -28.7182684734  TIP3      18773           0.0000000000
     78572     18966  TIP3      OH2           -30.8754048165       30.3244772850      -35.2127810976  TIP3      18774           0.0000000000
     78573     18966  TIP3      H1            -31.2956085013       29.9397584742      -36.0335523734  TIP3      18774           0.0000000000
     78574     18966  TIP3      H2            -30.3552447378       29.5435190957      -34.9228609683  TIP3      18774           0.0000000000
     78575     18967  TIP3      OH2           -29.6707317861       33.6407797211      -32.5041145325  TIP3      18775           0.0000000000
     78576     18967  TIP3      H1            -29.6395561716       33.3573632960      -33.4194190382  TIP3      18775           0.0000000000
     78577     18967  TIP3      H2            -28.8225457918       33.4116712694      -32.0729410392  TIP3      18775           0.0000000000
     78578     18968  TIP3      OH2           -30.6133843623       29.0759848273      -31.5902285996  TIP3      18776           0.0000000000
     78579     18968  TIP3      H1            -30.0354511463       29.0906800145      -32.3644393216  TIP3      18776           0.0000000000
     78580     18968  TIP3      H2            -30.2294905102       29.7003483221      -30.9256342303  TIP3      18776           0.0000000000
     78581     18969  TIP3      OH2           -24.1670421969       34.6135122455      -30.8342181420  TIP3      18777           0.0000000000
     78582     18969  TIP3      H1            -24.5401088638       35.2434725361      -30.2237553703  TIP3      18777           0.0000000000
     78583     18969  TIP3      H2            -24.4523479376       33.7583898604      -30.4361891407  TIP3      18777           0.0000000000
     78584     18970  TIP3      OH2           -29.6842377973       33.4859953057      -26.8217570284  TIP3      18778           0.0000000000
     78585     18970  TIP3      H1            -30.1179132984       34.2594386078      -26.4087896296  TIP3      18778           0.0000000000
     78586     18970  TIP3      H2            -30.3160260510       33.2432650349      -27.5446234809  TIP3      18778           0.0000000000
     78587     18971  TIP3      OH2           -23.6905004015       28.8594462724      -39.4776881846  TIP3      18779           0.0000000000
     78588     18971  TIP3      H1            -23.1253951528       29.0094420643      -38.6803109809  TIP3      18779           0.0000000000
     78589     18971  TIP3      H2            -23.2291645019       29.3327275619      -40.2053104356  TIP3      18779           0.0000000000
     78590     18972  TIP3      OH2           -32.7274711619       29.6676849101      -27.7062052126  TIP3      18780           0.0000000000
     78591     18972  TIP3      H1            -32.6701465695       30.3183115204      -27.0079578330  TIP3      18780           0.0000000000
     78592     18972  TIP3      H2            -33.6715759311       29.7326870249      -27.9390028694  TIP3      18780           0.0000000000
     78593     18973  TIP3      OH2           -26.0426672672       35.5156395542      -35.9723828147  TIP3      18781           0.0000000000
     78594     18973  TIP3      H1            -25.5112492765       35.8564898924      -35.2451896526  TIP3      18781           0.0000000000
     78595     18973  TIP3      H2            -26.5247131437       36.2936376547      -36.2709433356  TIP3      18781           0.0000000000
     78596     18974  TIP3      OH2           -31.4524633652       35.3885501731      -26.1523231466  TIP3      18782           0.0000000000
     78597     18974  TIP3      H1            -31.5281203317       35.4110997856      -27.1280926564  TIP3      18782           0.0000000000
     78598     18974  TIP3      H2            -32.3973206116       35.3840966813      -25.8966769912  TIP3      18782           0.0000000000
     78599     18975  TIP3      OH2           -19.9787491486       20.5614986233      -39.5886077944  TIP3      18783           0.0000000000
     78600     18975  TIP3      H1            -20.9207279630       20.6928473764      -39.3408639844  TIP3      18783           0.0000000000
     78601     18975  TIP3      H2            -19.7402285534       21.4033723538      -40.0138988366  TIP3      18783           0.0000000000
     78602     18976  TIP3      OH2           -31.9791310212       29.3414288491      -37.5545754975  TIP3      18784           0.0000000000
     78603     18976  TIP3      H1            -32.2558476586       30.0877057560      -38.1287313214  TIP3      18784           0.0000000000
     78604     18976  TIP3      H2            -32.5966835138       28.6545518381      -37.8225785425  TIP3      18784           0.0000000000
     78605     18977  TIP3      OH2           -18.8026062477       34.8919048378      -41.2374085103  TIP3      18785           0.0000000000
     78606     18977  TIP3      H1            -18.7165324655       35.8509467128      -41.0812088056  TIP3      18785           0.0000000000
     78607     18977  TIP3      H2            -17.8696364325       34.6145074141      -41.2186431250  TIP3      18785           0.0000000000
     78608     18978  TIP3      OH2           -35.2918376390       31.6093545044      -28.9574322939  TIP3      18786           0.0000000000
     78609     18978  TIP3      H1            -36.0543192669       31.7376365851      -29.5627561642  TIP3      18786           0.0000000000
     78610     18978  TIP3      H2            -35.6789306907       30.8248370307      -28.5081838808  TIP3      18786           0.0000000000
     78611     18979  TIP3      OH2           -35.8373023196       34.6831661940      -32.1692297520  TIP3      18787           0.0000000000
     78612     18979  TIP3      H1            -34.9848528063       34.3505580414      -31.8985165751  TIP3      18787           0.0000000000
     78613     18979  TIP3      H2            -36.0705342389       35.2559849835      -31.4303528324  TIP3      18787           0.0000000000
     78614     18980  TIP3      OH2           -17.9055287741       35.1758428220      -26.1938385627  TIP3      18788           0.0000000000
     78615     18980  TIP3      H1            -18.0244098436       34.2192840185      -26.2934904926  TIP3      18788           0.0000000000
     78616     18980  TIP3      H2            -18.7890166938       35.4487361871      -25.8616609889  TIP3      18788           0.0000000000
     78617     18981  TIP3      OH2           -26.9475145661       34.7500979298      -27.3808980050  TIP3      18789           0.0000000000
     78618     18981  TIP3      H1            -26.8662476192       35.5665774759      -26.8829628662  TIP3      18789           0.0000000000
     78619     18981  TIP3      H2            -27.8067340436       34.3474097763      -27.1415702114  TIP3      18789           0.0000000000
     78620     18982  TIP3      OH2           -20.7875270005       26.6591966658      -25.8132370982  TIP3      18790           0.0000000000
     78621     18982  TIP3      H1            -21.2152295678       27.1239409367      -26.5468829659  TIP3      18790           0.0000000000
     78622     18982  TIP3      H2            -20.7186378287       25.7399741628      -26.1041035481  TIP3      18790           0.0000000000
     78623     18983  TIP3      OH2           -33.5282353012       33.0736805898      -27.7018303349  TIP3      18791           0.0000000000
     78624     18983  TIP3      H1            -33.4406212201       32.7223007700      -26.8131094265  TIP3      18791           0.0000000000
     78625     18983  TIP3      H2            -34.3975353322       32.7223065365      -28.0146899797  TIP3      18791           0.0000000000
     78626     18984  TIP3      OH2           -30.9149529860       21.5549819799      -31.8355570628  TIP3      18792           0.0000000000
     78627     18984  TIP3      H1            -31.8187801778       21.4264696786      -32.1995067841  TIP3      18792           0.0000000000
     78628     18984  TIP3      H2            -31.0576854143       22.3752560023      -31.3344941342  TIP3      18792           0.0000000000
     78629     18985  TIP3      OH2           -26.2736736490       21.2266779796      -28.4303106025  TIP3      18793           0.0000000000
     78630     18985  TIP3      H1            -25.9020606295       20.7666367607      -27.6607826862  TIP3      18793           0.0000000000
     78631     18985  TIP3      H2            -27.2505364569       21.0941503312      -28.3272260638  TIP3      18793           0.0000000000
     78632     18986  TIP3      OH2           -23.0118077357       25.0468114904      -27.5835510465  TIP3      18794           0.0000000000
     78633     18986  TIP3      H1            -23.5752153136       24.8622449513      -26.8008779989  TIP3      18794           0.0000000000
     78634     18986  TIP3      H2            -23.1553086594       25.9862224668      -27.8008244631  TIP3      18794           0.0000000000
     78635     18987  TIP3      OH2           -22.2306647515       29.8586003396      -41.6577698252  TIP3      18795           0.0000000000
     78636     18987  TIP3      H1            -22.2619498981       29.6595371256      -42.6222075644  TIP3      18795           0.0000000000
     78637     18987  TIP3      H2            -21.3770999287       30.3143857596      -41.6156514642  TIP3      18795           0.0000000000
     78638     18988  TIP3      OH2           -25.9195851947       23.7990156889      -41.4260654176  TIP3      18796           0.0000000000
     78639     18988  TIP3      H1            -26.4452724797       23.9284722459      -40.5896756197  TIP3      18796           0.0000000000
     78640     18988  TIP3      H2            -26.5625867992       23.0717801309      -41.6089199078  TIP3      18796           0.0000000000
     78641     18989  TIP3      OH2           -30.8459111163       26.5124444243      -30.5775390361  TIP3      18797           0.0000000000
     78642     18989  TIP3      H1            -31.5662613751       26.5095375230      -29.9208811936  TIP3      18797           0.0000000000
     78643     18989  TIP3      H2            -30.8703093745       27.4215114854      -30.9355845351  TIP3      18797           0.0000000000
     78644     18990  TIP3      OH2           -30.8333327675       26.6758809621      -35.7060437118  TIP3      18798           0.0000000000
     78645     18990  TIP3      H1            -31.7649076366       26.3957350349      -35.8457860588  TIP3      18798           0.0000000000
     78646     18990  TIP3      H2            -30.4487241731       26.3337833584      -36.5446950848  TIP3      18798           0.0000000000
     78647     18991  TIP3      OH2           -25.3377896667       27.1383677446      -36.9296642053  TIP3      18799           0.0000000000
     78648     18991  TIP3      H1            -25.7369322571       27.9586614305      -37.2957124286  TIP3      18799           0.0000000000
     78649     18991  TIP3      H2            -24.6437351114       26.9732875908      -37.5904409490  TIP3      18799           0.0000000000
     78650     18992  TIP3      OH2           -26.2796652120       27.3267222340      -25.5109874045  TIP3      18800           0.0000000000
     78651     18992  TIP3      H1            -26.8193617324       26.5754992837      -25.1751578442  TIP3      18800           0.0000000000
     78652     18992  TIP3      H2            -25.4512451070       27.2504324171      -25.0161594210  TIP3      18800           0.0000000000
     78653     18993  TIP3      OH2           -24.3050450541       26.6272865293      -34.0901148697  TIP3      18801           0.0000000000
     78654     18993  TIP3      H1            -24.5939458776       27.1867702890      -34.8331713033  TIP3      18801           0.0000000000
     78655     18993  TIP3      H2            -24.2071924103       25.7764459418      -34.5576896047  TIP3      18801           0.0000000000
     78656     18994  TIP3      OH2           -33.1873641116       26.7658548685      -28.8802124804  TIP3      18802           0.0000000000
     78657     18994  TIP3      H1            -33.1650016414       27.1701499127      -28.0022020946  TIP3      18802           0.0000000000
     78658     18994  TIP3      H2            -33.6713376790       25.9458115211      -28.6949656381  TIP3      18802           0.0000000000
     78659     18995  TIP3      OH2           -30.1344480838       24.2533621636      -42.4234262445  TIP3      18803           0.0000000000
     78660     18995  TIP3      H1            -30.1900839381       23.8876483621      -41.5024931504  TIP3      18803           0.0000000000
     78661     18995  TIP3      H2            -30.9493742387       24.7020888562      -42.5876039576  TIP3      18803           0.0000000000
     78662     18996  TIP3      OH2           -36.1607240847       24.1980924193      -35.0965653536  TIP3      18804           0.0000000000
     78663     18996  TIP3      H1            -35.8333402123       23.8467194453      -34.2407815947  TIP3      18804           0.0000000000
     78664     18996  TIP3      H2            -36.0309417997       23.4399423927      -35.6650800715  TIP3      18804           0.0000000000
     78665     18997  TIP3      OH2           -35.2999209627       24.7466520811      -39.5764248805  TIP3      18805           0.0000000000
     78666     18997  TIP3      H1            -34.7388508131       25.2954339488      -40.1612924443  TIP3      18805           0.0000000000
     78667     18997  TIP3      H2            -36.0380484767       25.2958901445      -39.3433744922  TIP3      18805           0.0000000000
     78668     18998  TIP3      OH2           -25.1122911731       28.2078542099      -29.5401808348  TIP3      18806           0.0000000000
     78669     18998  TIP3      H1            -24.7296810493       27.5165545602      -30.1206264935  TIP3      18806           0.0000000000
     78670     18998  TIP3      H2            -25.5811805665       27.6846214350      -28.8648213025  TIP3      18806           0.0000000000
     78671     18999  TIP3      OH2           -28.3152671109       24.2162977183      -34.6669445977  TIP3      18807           0.0000000000
     78672     18999  TIP3      H1            -29.2576986616       24.1826915599      -34.3960965990  TIP3      18807           0.0000000000
     78673     18999  TIP3      H2            -27.8286262794       24.0053097403      -33.8634139911  TIP3      18807           0.0000000000
     78674     19000  TIP3      OH2           -33.4785183293       25.7246578260      -35.8430957582  TIP3      18808           0.0000000000
     78675     19000  TIP3      H1            -34.3554837851       25.8936220286      -36.2408345758  TIP3      18808           0.0000000000
     78676     19000  TIP3      H2            -33.2332764309       24.8765165309      -36.2683153487  TIP3      18808           0.0000000000
     78677     19001  TIP3      OH2           -29.8806731989       25.8494972270      -38.1478910480  TIP3      18809           0.0000000000
     78678     19001  TIP3      H1            -28.9055422529       25.8440076561      -38.0689399250  TIP3      18809           0.0000000000
     78679     19001  TIP3      H2            -30.0885682424       26.4483252181      -38.8817246030  TIP3      18809           0.0000000000
     78680     19002  TIP3      OH2           -23.9061583302       23.4191455780      -31.4614377689  TIP3      18810           0.0000000000
     78681     19002  TIP3      H1            -24.5944642582       23.4662481322      -30.7651360101  TIP3      18810           0.0000000000
     78682     19002  TIP3      H2            -24.4097400973       23.1634140776      -32.2470651472  TIP3      18810           0.0000000000
     78683     19003  TIP3      OH2           -31.1501204935       26.9909878387      -40.6388936656  TIP3      18811           0.0000000000
     78684     19003  TIP3      H1            -31.6889037533       26.5979542541      -41.3432695157  TIP3      18811           0.0000000000
     78685     19003  TIP3      H2            -30.3106570844       27.1494839539      -41.0946857586  TIP3      18811           0.0000000000
     78686     19004  TIP3      OH2           -27.0348256001       26.9487491761      -32.8120925516  TIP3      18812           0.0000000000
     78687     19004  TIP3      H1            -26.4362887083       26.4050954240      -33.3469682876  TIP3      18812           0.0000000000
     78688     19004  TIP3      H2            -27.1664404155       26.3885417314      -32.0308789200  TIP3      18812           0.0000000000
     78689     19005  TIP3      OH2           -32.0244297818       23.0937428148      -36.3673877082  TIP3      18813           0.0000000000
     78690     19005  TIP3      H1            -32.3173181709       22.1693092899      -36.3972259645  TIP3      18813           0.0000000000
     78691     19005  TIP3      H2            -31.2243381071       23.0290236443      -36.9251875642  TIP3      18813           0.0000000000
     78692     19006  TIP3      OH2           -28.3891283165       25.2648105904      -30.3998451500  TIP3      18814           0.0000000000
     78693     19006  TIP3      H1            -29.2120590279       25.7857976717      -30.3079880703  TIP3      18814           0.0000000000
     78694     19006  TIP3      H2            -27.8324367998       25.6172700307      -29.6753491162  TIP3      18814           0.0000000000
     78695     19007  TIP3      OH2           -27.8072416975       31.4762994526      -38.6822478356  TIP3      18815           0.0000000000
     78696     19007  TIP3      H1            -28.5985420070       31.0109407031      -39.0427436205  TIP3      18815           0.0000000000
     78697     19007  TIP3      H2            -28.0212039459       31.5946846761      -37.7461696024  TIP3      18815           0.0000000000
     78698     19008  TIP3      OH2           -20.6070363585       30.6898910616      -29.8954831088  TIP3      18816           0.0000000000
     78699     19008  TIP3      H1            -20.0484175649       31.1889489936      -30.5209561545  TIP3      18816           0.0000000000
     78700     19008  TIP3      H2            -21.4685589469       30.7379890530      -30.3581637963  TIP3      18816           0.0000000000
     78701     19009  TIP3      OH2           -23.7299272808       24.3332650180      -40.4394988045  TIP3      18817           0.0000000000
     78702     19009  TIP3      H1            -24.6980478609       24.3829021168      -40.6729966397  TIP3      18817           0.0000000000
     78703     19009  TIP3      H2            -23.5665404988       25.2330799579      -40.1259301128  TIP3      18817           0.0000000000
     78704     19010  TIP3      OH2           -26.3108412220       31.7766797958      -27.4755558906  TIP3      18818           0.0000000000
     78705     19010  TIP3      H1            -26.6725414592       31.3272270148      -26.6980797307  TIP3      18818           0.0000000000
     78706     19010  TIP3      H2            -26.5625030390       32.6974787447      -27.3543025491  TIP3      18818           0.0000000000
     78707     19011  TIP3      OH2           -23.2703220962       26.2687903082      -38.8427528344  TIP3      18819           0.0000000000
     78708     19011  TIP3      H1            -22.3679478141       26.0881758199      -38.4927905638  TIP3      18819           0.0000000000
     78709     19011  TIP3      H2            -23.1311009599       27.0462269114      -39.4083347758  TIP3      18819           0.0000000000
     78710     19012  TIP3      OH2           -32.6466435777       30.8971419667      -32.8903799718  TIP3      18820           0.0000000000
     78711     19012  TIP3      H1            -32.0568731065       30.7737668164      -33.6396214430  TIP3      18820           0.0000000000
     78712     19012  TIP3      H2            -32.6286116734       30.0381750941      -32.4290908124  TIP3      18820           0.0000000000
     78713     19013  TIP3      OH2           -25.7122733349       32.9402407868      -39.6717728686  TIP3      18821           0.0000000000
     78714     19013  TIP3      H1            -26.0397447735       33.7990787086      -39.3368592954  TIP3      18821           0.0000000000
     78715     19013  TIP3      H2            -26.4443567170       32.3391008195      -39.4340535368  TIP3      18821           0.0000000000
     78716     19014  TIP3      OH2           -35.7105678822       29.2590721810      -27.6244237595  TIP3      18822           0.0000000000
     78717     19014  TIP3      H1            -35.4892770530       28.8053049004      -26.7911383723  TIP3      18822           0.0000000000
     78718     19014  TIP3      H2            -36.3140803540       28.6382430287      -28.0583989851  TIP3      18822           0.0000000000
     78719     19015  TIP3      OH2           -28.7208115273       28.8868191952      -25.4512034002  TIP3      18823           0.0000000000
     78720     19015  TIP3      H1            -28.9975408768       28.5676313319      -26.3178620259  TIP3      18823           0.0000000000
     78721     19015  TIP3      H2            -27.7978251251       28.5783283268      -25.4200536589  TIP3      18823           0.0000000000
     78722     19016  TIP3      OH2           -24.0125120867       34.2465922627      -27.5282763989  TIP3      18824           0.0000000000
     78723     19016  TIP3      H1            -24.9500722718       34.3203821407      -27.7463807613  TIP3      18824           0.0000000000
     78724     19016  TIP3      H2            -24.0423383867       34.4616735602      -26.5786466730  TIP3      18824           0.0000000000
     78725     19017  TIP3      OH2           -18.3212990240       26.3769445285      -39.1159654536  TIP3      18825           0.0000000000
     78726     19017  TIP3      H1            -18.8929565679       26.0810960375      -39.8515522073  TIP3      18825           0.0000000000
     78727     19017  TIP3      H2            -18.2538385456       27.3227962454      -39.3754741704  TIP3      18825           0.0000000000
     78728     19018  TIP3      OH2           -18.3309484361       32.2049284679      -26.2917901087  TIP3      18826           0.0000000000
     78729     19018  TIP3      H1            -19.2219109683       32.4486648768      -26.6454800841  TIP3      18826           0.0000000000
     78730     19018  TIP3      H2            -17.7986022297       32.1546385619      -27.1151120653  TIP3      18826           0.0000000000
     78731     19019  TIP3      OH2           -19.9034489383       34.9454497828      -38.5101883330  TIP3      18827           0.0000000000
     78732     19019  TIP3      H1            -20.4695946433       34.2011663247      -38.3832196593  TIP3      18827           0.0000000000
     78733     19019  TIP3      H2            -19.7945780381       35.0305109776      -39.4739519023  TIP3      18827           0.0000000000
     78734     19020  TIP3      OH2           -22.8257668600       30.0066093535      -31.6061664300  TIP3      18828           0.0000000000
     78735     19020  TIP3      H1            -23.7615710210       29.7887676693      -31.7149232174  TIP3      18828           0.0000000000
     78736     19020  TIP3      H2            -22.3959671457       29.2498751621      -32.0497552970  TIP3      18828           0.0000000000
     78737     19021  TIP3      OH2           -30.2826650234       34.2920610370      -35.5573347204  TIP3      18829           0.0000000000
     78738     19021  TIP3      H1            -29.8235583376       35.1379178850      -35.6877724618  TIP3      18829           0.0000000000
     78739     19021  TIP3      H2            -31.1921103339       34.5375585489      -35.7936071587  TIP3      18829           0.0000000000
     78740     19022  TIP3      OH2           -34.6039938346       29.1782074694      -40.9034417145  TIP3      18830           0.0000000000
     78741     19022  TIP3      H1            -33.9561265058       29.8267916287      -40.5420162314  TIP3      18830           0.0000000000
     78742     19022  TIP3      H2            -35.4535279797       29.5403505586      -40.6422782943  TIP3      18830           0.0000000000
     78743     19023  TIP3      OH2           -28.8531112198       31.9989156388      -35.7848755195  TIP3      18831           0.0000000000
     78744     19023  TIP3      H1            -29.1953151710       32.9096844890      -35.9522787590  TIP3      18831           0.0000000000
     78745     19023  TIP3      H2            -29.6858715553       31.5039987004      -35.6739440946  TIP3      18831           0.0000000000
     78746     19024  TIP3      OH2           -28.1306819050       35.8568484928      -29.9456887214  TIP3      18832           0.0000000000
     78747     19024  TIP3      H1            -28.0060791038       36.8156147179      -29.9780794838  TIP3      18832           0.0000000000
     78748     19024  TIP3      H2            -27.8427797424       35.7092496991      -29.0313884673  TIP3      18832           0.0000000000
     78749     19025  TIP3      OH2           -24.9586488468       32.1663564790      -30.0009615688  TIP3      18833           0.0000000000
     78750     19025  TIP3      H1            -25.2424783594       31.9890033814      -29.0760175224  TIP3      18833           0.0000000000
     78751     19025  TIP3      H2            -24.2715592773       31.4912237532      -30.1317597039  TIP3      18833           0.0000000000
     78752     19026  TIP3      OH2           -22.5876648955       33.2400179426      -40.8900976941  TIP3      18834           0.0000000000
     78753     19026  TIP3      H1            -22.2908075839       32.8022831390      -40.0650028505  TIP3      18834           0.0000000000
     78754     19026  TIP3      H2            -23.5426076586       33.0869659423      -40.7947667974  TIP3      18834           0.0000000000
     78755     19027  TIP3      OH2           -34.0508558964       24.0302666109      -28.1544042306  TIP3      18835           0.0000000000
     78756     19027  TIP3      H1            -34.9387158661       24.3985940347      -28.0578135976  TIP3      18835           0.0000000000
     78757     19027  TIP3      H2            -34.1498801494       23.1941909556      -27.6676346847  TIP3      18835           0.0000000000
     78758     19028  TIP3      OH2           -21.8216967462       31.8347369374      -38.6528423073  TIP3      18836           0.0000000000
     78759     19028  TIP3      H1            -22.0453314375       31.0829332312      -38.0696642309  TIP3      18836           0.0000000000
     78760     19028  TIP3      H2            -20.8754205088       31.9532678334      -38.4547665150  TIP3      18836           0.0000000000
     78761     19029  TIP3      OH2           -34.1900139182       35.8167929362      -29.7432496313  TIP3      18837           0.0000000000
     78762     19029  TIP3      H1            -34.1556582682       34.8654469253      -29.6413125349  TIP3      18837           0.0000000000
     78763     19029  TIP3      H2            -34.2602338984       36.1292564562      -28.8289084562  TIP3      18837           0.0000000000
     78764     19030  TIP3      OH2           -28.4517616726       34.3125938573      -42.4020691129  TIP3      18838           0.0000000000
     78765     19030  TIP3      H1            -28.3712228055       33.5406938385      -42.9827259647  TIP3      18838           0.0000000000
     78766     19030  TIP3      H2            -28.8914333641       33.8973632093      -41.6307881659  TIP3      18838           0.0000000000
     78767     19031  TIP3      OH2           -29.7074080640       33.8194107629      -39.9470877278  TIP3      18839           0.0000000000
     78768     19031  TIP3      H1            -29.4280674743       33.3291881545      -39.1607164991  TIP3      18839           0.0000000000
     78769     19031  TIP3      H2            -29.5833818991       34.7536265911      -39.6712550346  TIP3      18839           0.0000000000
     78770     19032  TIP3      OH2           -33.1904439194       31.1098719374      -39.4478274650  TIP3      18840           0.0000000000
     78771     19032  TIP3      H1            -33.9070310527       31.5046258508      -38.9055034951  TIP3      18840           0.0000000000
     78772     19032  TIP3      H2            -32.6752273837       31.8956344157      -39.7257853507  TIP3      18840           0.0000000000
     78773     19033  TIP3      OH2           -25.3236487857       23.8142116558      -29.1216757191  TIP3      18841           0.0000000000
     78774     19033  TIP3      H1            -24.5849916403       23.8571097713      -28.5110599977  TIP3      18841           0.0000000000
     78775     19033  TIP3      H2            -25.7077058546       22.9304345297      -28.9501381945  TIP3      18841           0.0000000000
     78776     19034  TIP3      OH2           -24.5532870731       23.3513641274      -38.0387355503  TIP3      18842           0.0000000000
     78777     19034  TIP3      H1            -24.3323311580       23.8294120869      -38.8606931733  TIP3      18842           0.0000000000
     78778     19034  TIP3      H2            -24.0004793161       23.8116850848      -37.3972043139  TIP3      18842           0.0000000000
     78779     19035  TIP3      OH2           -26.8395517013       35.5564003665      -39.2095403736  TIP3      18843           0.0000000000
     78780     19035  TIP3      H1            -27.6922133831       36.0294838143      -39.1658578627  TIP3      18843           0.0000000000
     78781     19035  TIP3      H2            -26.3686465716       36.0612881665      -39.8888633562  TIP3      18843           0.0000000000
     78782     19036  TIP3      OH2           -27.3290953692       25.2325428101      -37.2162707117  TIP3      18844           0.0000000000
     78783     19036  TIP3      H1            -26.5085022222       25.7306997550      -37.1457694387  TIP3      18844           0.0000000000
     78784     19036  TIP3      H2            -27.6020672988       24.9858899055      -36.3112521075  TIP3      18844           0.0000000000
     78785     19037  TIP3      OH2           -26.7899238688       26.1334904683      -28.0622026601  TIP3      18845           0.0000000000
     78786     19037  TIP3      H1            -26.7132319471       26.7084611758      -27.2743431566  TIP3      18845           0.0000000000
     78787     19037  TIP3      H2            -26.1239076026       25.4446697557      -27.9530912152  TIP3      18845           0.0000000000
     78788     19038  TIP3      OH2           -26.3804557981       22.1430176764      -36.2364207372  TIP3      18846           0.0000000000
     78789     19038  TIP3      H1            -26.8502591344       22.8312336777      -35.7341687376  TIP3      18846           0.0000000000
     78790     19038  TIP3      H2            -25.8051759236       22.7231290103      -36.7855269549  TIP3      18846           0.0000000000
     78791     19039  TIP3      OH2           -29.4348911251      -36.4716523861      -39.1776230997  TIP3      18847           0.0000000000
     78792     19039  TIP3      H1            -29.4032410584      -35.6823140523      -39.7514308800  TIP3      18847           0.0000000000
     78793     19039  TIP3      H2            -29.7273268931      -36.0992029016      -38.3317158897  TIP3      18847           0.0000000000
     78794     19040  TIP3      OH2           -31.0178423998       23.2640909287      -39.4809165329  TIP3      18848           0.0000000000
     78795     19040  TIP3      H1            -30.8900605162       24.1940256710      -39.2349393303  TIP3      18848           0.0000000000
     78796     19040  TIP3      H2            -30.0481048230       23.0300369034      -39.4300451654  TIP3      18848           0.0000000000
     78797     19041  TIP3      OH2           -20.6375536595       23.9875756712      -27.1377659197  TIP3      18849           0.0000000000
     78798     19041  TIP3      H1            -21.5405154137       24.3401904082      -27.3204170174  TIP3      18849           0.0000000000
     78799     19041  TIP3      H2            -20.2960760339       23.9955351433      -28.0551330892  TIP3      18849           0.0000000000
     78800     19042  TIP3      OH2           -21.9942349830       27.7973589338      -33.1800371322  TIP3      18850           0.0000000000
     78801     19042  TIP3      H1            -22.8205691300       27.3485998685      -33.4453375554  TIP3      18850           0.0000000000
     78802     19042  TIP3      H2            -21.5139442083       27.1124716346      -32.6615917884  TIP3      18850           0.0000000000
     78803     19043  TIP3      OH2           -32.6114935839       33.7445214853      -40.6071677581  TIP3      18851           0.0000000000
     78804     19043  TIP3      H1            -31.9296638867       34.3703072996      -40.3183292550  TIP3      18851           0.0000000000
     78805     19043  TIP3      H2            -32.0877211005       33.2505022980      -41.2655078096  TIP3      18851           0.0000000000
     78806     19044  TIP3      OH2           -34.3022100187       26.3802228599      -41.4521052345  TIP3      18852           0.0000000000
     78807     19044  TIP3      H1            -34.2329074281       27.3364652035      -41.2522578490  TIP3      18852           0.0000000000
     78808     19044  TIP3      H2            -35.1856807840       26.2120732611      -41.7956247490  TIP3      18852           0.0000000000
     78809     19045  TIP3      OH2           -33.4134350508       21.1652143375      -32.7163206876  TIP3      18853           0.0000000000
     78810     19045  TIP3      H1            -33.6326895443       21.1992020434      -33.6745185580  TIP3      18853           0.0000000000
     78811     19045  TIP3      H2            -33.8611409367       20.3347196288      -32.4516989973  TIP3      18853           0.0000000000
     78812     19046  TIP3      OH2           -34.4506317640       35.0996305044      -36.6066967045  TIP3      18854           0.0000000000
     78813     19046  TIP3      H1            -35.3147754906       35.5122565749      -36.5787501044  TIP3      18854           0.0000000000
     78814     19046  TIP3      H2            -33.9664331903       35.6116504599      -37.2576049175  TIP3      18854           0.0000000000
     78815     19047  TIP3      OH2           -30.3247942666       36.3138212659      -23.4622111570  TIP3      18855           0.0000000000
     78816     19047  TIP3      H1            -29.4567773334       36.0026844828      -23.2431136321  TIP3      18855           0.0000000000
     78817     19047  TIP3      H2            -30.3682246937       36.2390398574      -24.4346863165  TIP3      18855           0.0000000000
     78818     19048  TIP3      OH2           -26.4432825702       36.1155341003      -42.1543556953  TIP3      18856           0.0000000000
     78819     19048  TIP3      H1            -27.1852515157       35.4917910142      -42.0728204373  TIP3      18856           0.0000000000
     78820     19048  TIP3      H2            -25.7396866462       35.5844413088      -42.5300444395  TIP3      18856           0.0000000000
     78821     19049  TIP3      OH2           -24.1208985223       35.0273772700      -24.9005803809  TIP3      18857           0.0000000000
     78822     19049  TIP3      H1            -24.3951975134       34.1324307971      -24.6129305849  TIP3      18857           0.0000000000
     78823     19049  TIP3      H2            -23.3143195101       35.1657099328      -24.3524199068  TIP3      18857           0.0000000000
     78824     19050  TIP3      OH2           -21.7621487724       35.8751614035      -41.9366461314  TIP3      18858           0.0000000000
     78825     19050  TIP3      H1            -21.4929877033       35.0402468043      -41.5409015006  TIP3      18858           0.0000000000
     78826     19050  TIP3      H2            -21.0403096110       36.0915198453      -42.5596151922  TIP3      18858           0.0000000000
     78827     19051  TIP3      OH2           -35.3102296028       31.5384873995      -24.3361584046  TIP3      18859           0.0000000000
     78828     19051  TIP3      H1            -35.1709029768       30.6187404694      -24.6083487477  TIP3      18859           0.0000000000
     78829     19051  TIP3      H2            -36.0904820025       31.7837557779      -24.8507644558  TIP3      18859           0.0000000000
     78830     19052  TIP3      OH2           -31.0231961178       31.8464987365      -42.2580906891  TIP3      18860           0.0000000000
     78831     19052  TIP3      H1            -30.8769145911       31.0885771004      -41.6711261597  TIP3      18860           0.0000000000
     78832     19052  TIP3      H2            -30.2673226284       31.7446522759      -42.8688064826  TIP3      18860           0.0000000000
     78833     19053  TIP3      OH2           -25.5689444734       32.9948008398      -42.4773917594  TIP3      18861           0.0000000000
     78834     19053  TIP3      H1            -25.8822723774       33.0822732540      -41.5627111406  TIP3      18861           0.0000000000
     78835     19053  TIP3      H2            -25.7750512270       32.0442427304      -42.6227028401  TIP3      18861           0.0000000000
     78836     19054  TIP3      OH2           -22.9553153204       31.3844845876      -27.4969447872  TIP3      18862           0.0000000000
     78837     19054  TIP3      H1            -22.1686111980       31.9655948407      -27.5619572734  TIP3      18862           0.0000000000
     78838     19054  TIP3      H2            -23.6580963654       32.0449395920      -27.4400570851  TIP3      18862           0.0000000000
     78839     19055  TIP3      OH2           -34.5378903051       28.7566022408      -24.9352307963  TIP3      18863           0.0000000000
     78840     19055  TIP3      H1            -34.0392033229       27.9254921693      -25.0106946870  TIP3      18863           0.0000000000
     78841     19055  TIP3      H2            -34.6767416907       28.7870800021      -23.9697359894  TIP3      18863           0.0000000000
     78842     19056  TIP3      OH2           -29.8164479631       29.8854346809      -39.8210670382  TIP3      18864           0.0000000000
     78843     19056  TIP3      H1            -30.3193927831       29.3443309427      -39.1967323802  TIP3      18864           0.0000000000
     78844     19056  TIP3      H2            -29.5191764514       29.2123643814      -40.4781757242  TIP3      18864           0.0000000000
     78845     19057  TIP3      OH2           -30.5560579695       27.6920800398      -27.5186910265  TIP3      18865           0.0000000000
     78846     19057  TIP3      H1            -31.1504896882       28.4112412099      -27.2575404394  TIP3      18865           0.0000000000
     78847     19057  TIP3      H2            -30.1551635614       28.0483350564      -28.3357933509  TIP3      18865           0.0000000000
     78848     19058  TIP3      OH2           -28.7411465690       28.1246969224      -41.6233282487  TIP3      18866           0.0000000000
     78849     19058  TIP3      H1            -28.9043290061       27.9756405178      -42.5789811204  TIP3      18866           0.0000000000
     78850     19058  TIP3      H2            -27.7641867615       28.1564478387      -41.5662911854  TIP3      18866           0.0000000000
     78851     19059  TIP3      OH2           -25.4663606705       30.2765137326      -24.1788841489  TIP3      18867           0.0000000000
     78852     19059  TIP3      H1            -24.5114803656       30.2342463176      -24.3185425836  TIP3      18867           0.0000000000
     78853     19059  TIP3      H2            -25.6632648237       29.5172823830      -23.6089844806  TIP3      18867           0.0000000000
     78854     19060  TIP3      OH2           -19.4031792914       30.4214415513      -42.2152823118  TIP3      18868           0.0000000000
     78855     19060  TIP3      H1            -19.6036647590       30.0466025462      -43.0885608568  TIP3      18868           0.0000000000
     78856     19060  TIP3      H2            -19.3361273207       31.3890619205      -42.4021324706  TIP3      18868           0.0000000000
     78857     19061  TIP3      OH2           -30.1387285495       25.0665808716      -26.4574949584  TIP3      18869           0.0000000000
     78858     19061  TIP3      H1            -30.0527822040       24.3609405045      -27.1255918026  TIP3      18869           0.0000000000
     78859     19061  TIP3      H2            -30.2077429407       25.8734477004      -27.0104669680  TIP3      18869           0.0000000000
     78860     19062  TIP3      OH2           -29.7357032918       23.4592582349      -28.9099222131  TIP3      18870           0.0000000000
     78861     19062  TIP3      H1            -29.2282286529       23.9184517436      -29.6226013827  TIP3      18870           0.0000000000
     78862     19062  TIP3      H2            -30.6297386923       23.3765106046      -29.3186182286  TIP3      18870           0.0000000000
     78863     19063  TIP3      OH2           -28.2240506366       28.9257155065      -28.7053658611  TIP3      18871           0.0000000000
     78864     19063  TIP3      H1            -27.4369687461       28.7665988116      -29.2363333090  TIP3      18871           0.0000000000
     78865     19063  TIP3      H2            -28.5517713848       29.7816135930      -29.0045683451  TIP3      18871           0.0000000000
     78866     19064  TIP3      OH2           -23.8010032667       26.6775209242      -23.6992624207  TIP3      18872           0.0000000000
     78867     19064  TIP3      H1            -23.5266195986       25.7804544771      -23.8645672189  TIP3      18872           0.0000000000
     78868     19064  TIP3      H2            -22.9494937157       27.1574061195      -23.7015882315  TIP3      18872           0.0000000000
     78869     19065  TIP3      OH2           -22.4738945360       29.4863376573      -25.5897975154  TIP3      18873           0.0000000000
     78870     19065  TIP3      H1            -22.7232405412       30.2266006840      -26.1828173413  TIP3      18873           0.0000000000
     78871     19065  TIP3      H2            -21.5149197912       29.4700045397      -25.7652608642  TIP3      18873           0.0000000000
     78872     19066  TIP3      OH2           -31.7364785508       26.3183271202      -24.5070616407  TIP3      18874           0.0000000000
     78873     19066  TIP3      H1            -32.4400285286       25.6965878748      -24.7648228883  TIP3      18874           0.0000000000
     78874     19066  TIP3      H2            -31.0466965345       25.9995571283      -25.1276979139  TIP3      18874           0.0000000000
     78875     19067  TIP3      OH2           -28.9616424016       20.8817951694      -28.5246467870  TIP3      18875           0.0000000000
     78876     19067  TIP3      H1            -29.1315880940       21.8446761247      -28.6414502783  TIP3      18875           0.0000000000
     78877     19067  TIP3      H2            -29.7068973114       20.5152116422      -29.0336833513  TIP3      18875           0.0000000000
     78878     19068  TIP3      OH2           -27.6576754181       25.1322929615      -24.9185234952  TIP3      18876           0.0000000000
     78879     19068  TIP3      H1            -28.0098535552       25.0576637089      -24.0165973454  TIP3      18876           0.0000000000
     78880     19068  TIP3      H2            -28.4748073390       25.0600044769      -25.4591691056  TIP3      18876           0.0000000000
     78881     19069  TIP3      OH2           -24.9520412020       24.3394373399      -25.8309982554  TIP3      18877           0.0000000000
     78882     19069  TIP3      H1            -25.9258980011       24.4267391922      -25.7460722222  TIP3      18877           0.0000000000
     78883     19069  TIP3      H2            -24.7452413013       23.6758943030      -25.1798849549  TIP3      18877           0.0000000000
     78884     19070  TIP3      OH2           -33.4938556417       24.2408170569      -24.7536415696  TIP3      18878           0.0000000000
     78885     19070  TIP3      H1            -33.3345416732       23.5375540714      -25.4175956722  TIP3      18878           0.0000000000
     78886     19070  TIP3      H2            -33.6081285816       23.7287256334      -23.9410495040  TIP3      18878           0.0000000000
     78887     19071  TIP3      OH2           -28.7442344138       20.2536675961      -25.8317446145  TIP3      18879           0.0000000000
     78888     19071  TIP3      H1            -28.0732630224       19.5392068643      -25.8589052266  TIP3      18879           0.0000000000
     78889     19071  TIP3      H2            -28.8658875811       20.4169660961      -26.7933839928  TIP3      18879           0.0000000000
     78890     19072  TIP3      OH2           -28.3753291462       21.9534128415      -23.7565268196  TIP3      18880           0.0000000000
     78891     19072  TIP3      H1            -28.5223696123       21.3954879938      -24.5555167292  TIP3      18880           0.0000000000
     78892     19072  TIP3      H2            -29.0081819731       22.6565426213      -23.8720892578  TIP3      18880           0.0000000000
     78893     19073  TIP3      OH2           -35.3139106291       33.3972706545      -41.0830100741  TIP3      18881           0.0000000000
     78894     19073  TIP3      H1            -34.3635221451       33.5109675308      -40.8754374151  TIP3      18881           0.0000000000
     78895     19073  TIP3      H2            -35.2678824438       32.7384693021      -41.7982096428  TIP3      18881           0.0000000000
     78896     19074  TIP3      OH2           -20.2136698590       33.0604576087      -23.7376762441  TIP3      18882           0.0000000000
     78897     19074  TIP3      H1            -21.0705503496       32.9584431980      -23.2814381489  TIP3      18882           0.0000000000
     78898     19074  TIP3      H2            -19.7905175748       33.7916741072      -23.2328358955  TIP3      18882           0.0000000000
     78899     19075  TIP3      OH2           -18.8751311535       31.3170267055      -38.2706745036  TIP3      18883           0.0000000000
     78900     19075  TIP3      H1            -18.0305485536       31.7497372826      -38.0642470780  TIP3      18883           0.0000000000
     78901     19075  TIP3      H2            -18.8928605237       30.6187707406      -37.5828077827  TIP3      18883           0.0000000000
     78902     19076  TIP3      OH2           -18.5200487136       29.4236765391      -36.3677178183  TIP3      18884           0.0000000000
     78903     19076  TIP3      H1            -19.2691833665       28.9184617139      -35.9762106043  TIP3      18884           0.0000000000
     78904     19076  TIP3      H2            -17.9185839110       29.5485836094      -35.6043621637  TIP3      18884           0.0000000000
     78905     19077  TIP3      OH2           -18.7554844988       32.1126394239      -31.3613453215  TIP3      18885           0.0000000000
     78906     19077  TIP3      H1            -17.9525971497       31.7406531645      -31.7630356257  TIP3      18885           0.0000000000
     78907     19077  TIP3      H2            -18.6164040357       33.0668544509      -31.5377273251  TIP3      18885           0.0000000000
     78908     19078  TIP3      OH2           -20.2633520588       34.9931397953      -29.0731649595  TIP3      18886           0.0000000000
     78909     19078  TIP3      H1            -20.9529264760       35.3801674192      -28.5330383533  TIP3      18886           0.0000000000
     78910     19078  TIP3      H2            -20.7698197631       34.6429348766      -29.8423629010  TIP3      18886           0.0000000000
     78911     19079  TIP3      OH2           -18.2092535703       29.2392510988      -39.9812827448  TIP3      18887           0.0000000000
     78912     19079  TIP3      H1            -18.7826550618       29.5982258540      -40.6946801904  TIP3      18887           0.0000000000
     78913     19079  TIP3      H2            -18.3141881292       29.9529124387      -39.3201839350  TIP3      18887           0.0000000000
     78914     19080  TIP3      OH2           -19.8484935269       26.4765824972      -41.4675539159  TIP3      18888           0.0000000000
     78915     19080  TIP3      H1            -19.7677169455       27.1404849331      -42.1626792859  TIP3      18888           0.0000000000
     78916     19080  TIP3      H2            -20.0302758815       25.6531256965      -41.9619384061  TIP3      18888           0.0000000000
     78917     19081  TIP3      OH2           -20.6988338257       27.8950333895      -35.8027689602  TIP3      18889           0.0000000000
     78918     19081  TIP3      H1            -20.8471094624       26.9405028463      -35.8418727781  TIP3      18889           0.0000000000
     78919     19081  TIP3      H2            -21.0246797407       28.1095020665      -34.9094180397  TIP3      18889           0.0000000000
     78920     19082  TIP3      OH2           -35.6763487192       29.9654256168      -31.8265885649  TIP3      18890           0.0000000000
     78921     19082  TIP3      H1            -35.4708723182       29.9258957250      -32.7842229414  TIP3      18890           0.0000000000
     78922     19082  TIP3      H2            -34.7959876118       29.8570899067      -31.4024029598  TIP3      18890           0.0000000000
     78923     19083  TIP3      OH2           -19.8313994960       29.8455066999      -26.1151295014  TIP3      18891           0.0000000000
     78924     19083  TIP3      H1            -19.2214929868       29.0932270630      -25.9307319277  TIP3      18891           0.0000000000
     78925     19083  TIP3      H2            -19.2418224610       30.6297728632      -26.1097519593  TIP3      18891           0.0000000000
     78926     19084  TIP3      OH2           -18.3267815788       27.7600835824      -25.6146735311  TIP3      18892           0.0000000000
     78927     19084  TIP3      H1            -19.2196185331       27.3524249638      -25.6169890904  TIP3      18892           0.0000000000
     78928     19084  TIP3      H2            -17.7738776838       26.9714428751      -25.5114628666  TIP3      18892           0.0000000000
     78929     19085  TIP3      OH2           -20.5891388149       23.9585450676      -42.3506686920  TIP3      18893           0.0000000000
     78930     19085  TIP3      H1            -20.0163527847       23.5171281867      -41.6925966051  TIP3      18893           0.0000000000
     78931     19085  TIP3      H2            -21.4519403453       23.5381571136      -42.1857659595  TIP3      18893           0.0000000000
     78932     19086  TIP3      OH2           -21.0555253858       25.4780976997      -37.3908565717  TIP3      18894           0.0000000000
     78933     19086  TIP3      H1            -20.7360603262       24.5588708035      -37.2288106308  TIP3      18894           0.0000000000
     78934     19086  TIP3      H2            -20.2373940025       25.8896612051      -37.7017861537  TIP3      18894           0.0000000000
     78935     19087  TIP3      OH2           -20.3915399663       26.0228929547      -31.9024771923  TIP3      18895           0.0000000000
     78936     19087  TIP3      H1            -19.4316157642       26.2548151504      -31.9197425523  TIP3      18895           0.0000000000
     78937     19087  TIP3      H2            -20.5789665021       26.1653154962      -30.9618494445  TIP3      18895           0.0000000000
     78938     19088  TIP3      OH2           -20.3300439495       26.7440835017      -29.1468559495  TIP3      18896           0.0000000000
     78939     19088  TIP3      H1            -21.1995471088       27.0319825805      -28.7897019728  TIP3      18896           0.0000000000
     78940     19088  TIP3      H2            -19.8912153356       27.6063246152      -29.3458625896  TIP3      18896           0.0000000000
     78941     19089  TIP3      OH2           -35.7388904352       25.1869214921      -25.6871635135  TIP3      18897           0.0000000000
     78942     19089  TIP3      H1            -34.8872552535       24.9523807649      -25.3063329678  TIP3      18897           0.0000000000
     78943     19089  TIP3      H2            -36.3770587682       24.5556654302      -25.2613788806  TIP3      18897           0.0000000000
     78944     19090  TIP3      OH2           -18.0869530544       20.7672827423      -23.7673279917  TIP3      18898           0.0000000000
     78945     19090  TIP3      H1            -17.7484079475       20.1143340051      -24.3975963242  TIP3      18898           0.0000000000
     78946     19090  TIP3      H2            -17.9283945885       21.6061992668      -24.2377260236  TIP3      18898           0.0000000000
     78947     19091  TIP3      OH2           -20.3630049185       22.7729115276      -37.2960205319  TIP3      18899           0.0000000000
     78948     19091  TIP3      H1            -20.1468746505       22.3325615731      -36.4458667590  TIP3      18899           0.0000000000
     78949     19091  TIP3      H2            -20.9603190560       22.1316079558      -37.7356141573  TIP3      18899           0.0000000000
     78950     19092  TIP3      OH2           -34.8335782280       23.5286767638      -32.7809296700  TIP3      18900           0.0000000000
     78951     19092  TIP3      H1            -34.3743715022       22.7354873046      -32.4537486426  TIP3      18900           0.0000000000
     78952     19092  TIP3      H2            -34.3332976206       24.2362514354      -32.3370523557  TIP3      18900           0.0000000000
     78953     19093  TIP3      OH2           -36.0121723636       27.3315021410      -31.3490366630  TIP3      18901           0.0000000000
     78954     19093  TIP3      H1            -35.9829836885       26.9010436866      -32.2282422565  TIP3      18901           0.0000000000
     78955     19093  TIP3      H2            -35.9395053445       28.2472155553      -31.6260351414  TIP3      18901           0.0000000000
     78956     19094  TIP3      OH2           -18.5523945605       22.8699134362      -25.4017796258  TIP3      18902           0.0000000000
     78957     19094  TIP3      H1            -19.4672697423       23.1872313836      -25.4931965862  TIP3      18902           0.0000000000
     78958     19094  TIP3      H2            -18.4675851308       22.3682032474      -26.2296119759  TIP3      18902           0.0000000000
     78959     19095  TIP3      OH2           -18.5606670049       22.8171016546      -40.7615835227  TIP3      18903           0.0000000000
     78960     19095  TIP3      H1            -18.1215506366       22.0818244383      -41.2556257125  TIP3      18903           0.0000000000
     78961     19095  TIP3      H2            -17.8398183386       23.4560511816      -40.6832584062  TIP3      18903           0.0000000000
     78962     19096  TIP3      OH2           -35.7535126646       22.7874975134      -38.0643525329  TIP3      18904           0.0000000000
     78963     19096  TIP3      H1            -36.6960805760       22.9748535520      -37.9401432880  TIP3      18904           0.0000000000
     78964     19096  TIP3      H2            -35.5300170221       23.5468070152      -38.6404325212  TIP3      18904           0.0000000000
     78965     19097  TIP3      OH2            37.0298242248       21.4637620844      -29.0882463865  TIP3      18905           0.0000000000
     78966     19097  TIP3      H1             36.2238965981       21.2396122383      -28.6012856551  TIP3      18905           0.0000000000
     78967     19097  TIP3      H2             36.5664995006       21.9656092454      -29.7870092829  TIP3      18905           0.0000000000
     78968     19098  TIP3      OH2           -34.0958173599       34.7650117791      -25.1581818028  TIP3      18906           0.0000000000
     78969     19098  TIP3      H1            -34.9519232754       34.9228117476      -25.5771701150  TIP3      18906           0.0000000000
     78970     19098  TIP3      H2            -34.3424267781       34.6049093367      -24.2434824561  TIP3      18906           0.0000000000
     78971     19099  TIP3      OH2           -31.0736234559       35.6859500688      -28.8198847767  TIP3      18907           0.0000000000
     78972     19099  TIP3      H1            -31.5483220826       36.4482894875      -29.1910625247  TIP3      18907           0.0000000000
     78973     19099  TIP3      H2            -30.2090816282       35.6778693644      -29.2413306593  TIP3      18907           0.0000000000
     78974     19100  TIP3      OH2           -19.5294511960       21.0003687389      -27.5750118239  TIP3      18908           0.0000000000
     78975     19100  TIP3      H1            -20.3472051400       21.2915337391      -28.0070754278  TIP3      18908           0.0000000000
     78976     19100  TIP3      H2            -19.3399338712       20.1815042924      -28.0913766535  TIP3      18908           0.0000000000
     78977     19101  TIP3      OH2           -31.8855192415       35.9925386843      -33.5368638208  TIP3      18909           0.0000000000
     78978     19101  TIP3      H1            -32.3734797941       35.3054344841      -33.0484466879  TIP3      18909           0.0000000000
     78979     19101  TIP3      H2            -31.3701265311       36.4159702543      -32.8270820529  TIP3      18909           0.0000000000
     78980     19102  TIP3      OH2           -26.1156392401       22.4239702097      -33.2757743961  TIP3      18910           0.0000000000
     78981     19102  TIP3      H1            -26.8103776886       21.7903980591      -33.0326289822  TIP3      18910           0.0000000000
     78982     19102  TIP3      H2            -25.5753410650       21.8984347886      -33.8803215329  TIP3      18910           0.0000000000
     78983     19103  TIP3      OH2           -20.9964192711       20.4714034316      -33.2172511732  TIP3      18911           0.0000000000
     78984     19103  TIP3      H1            -20.3787225855       21.0585306179      -33.7266280053  TIP3      18911           0.0000000000
     78985     19103  TIP3      H2            -21.8738830966       20.8348731866      -33.4558370527  TIP3      18911           0.0000000000
     78986     19104  TIP3      OH2           -19.3250907055       21.7282807071      -34.9477860668  TIP3      18912           0.0000000000
     78987     19104  TIP3      H1            -18.6350014488       21.1428796194      -35.3550502328  TIP3      18912           0.0000000000
     78988     19104  TIP3      H2            -18.8096575144       22.5592204067      -34.8405005900  TIP3      18912           0.0000000000
     78989     19105  TIP3      OH2           -33.7481360607       21.0414359943      -35.4103435537  TIP3      18913           0.0000000000
     78990     19105  TIP3      H1            -34.5231767214       20.8423558842      -35.9782715754  TIP3      18913           0.0000000000
     78991     19105  TIP3      H2            -33.2482657091       20.2075476820      -35.5165361252  TIP3      18913           0.0000000000
     78992     19106  TIP3      OH2           -34.9695326126       20.7815345636      -39.7660364904  TIP3      18914           0.0000000000
     78993     19106  TIP3      H1            -34.4562629790       21.4536391947      -40.2484287103  TIP3      18914           0.0000000000
     78994     19106  TIP3      H2            -35.5276318551       21.3514145109      -39.2014177497  TIP3      18914           0.0000000000
     78995     19107  TIP3      OH2           -29.2866944946       20.8933169829      -35.6165548507  TIP3      18915           0.0000000000
     78996     19107  TIP3      H1            -28.4286653575       21.3463883441      -35.7597163726  TIP3      18915           0.0000000000
     78997     19107  TIP3      H2            -29.3027148561       20.7606300299      -34.6776336424  TIP3      18915           0.0000000000
     78998     19108  TIP3      OH2           -23.5861721370       21.0029191701      -34.0430176607  TIP3      18916           0.0000000000
     78999     19108  TIP3      H1            -23.6349404586       21.1101481910      -35.0027985632  TIP3      18916           0.0000000000
     79000     19108  TIP3      H2            -23.9372405635       20.0885055697      -33.9063508051  TIP3      18916           0.0000000000
     79001     19109  TIP3      OH2           -22.3116238031       21.0316899881      -38.3461491258  TIP3      18917           0.0000000000
     79002     19109  TIP3      H1            -23.0621529802       21.6248313849      -38.5108997532  TIP3      18917           0.0000000000
     79003     19109  TIP3      H2            -22.7517870002       20.1786660463      -38.1191330838  TIP3      18917           0.0000000000
     79004     19110  TIP3      OH2           -33.1771290364       22.7419933658      -41.1784925800  TIP3      18918           0.0000000000
     79005     19110  TIP3      H1            -32.6125165520       22.1595253385      -41.7207416863  TIP3      18918           0.0000000000
     79006     19110  TIP3      H2            -32.4763697483       23.0611508504      -40.5679581195  TIP3      18918           0.0000000000
     79007     19111  TIP3      OH2           -28.4475668971       22.9625179890      -37.7011905046  TIP3      18919           0.0000000000
     79008     19111  TIP3      H1            -27.7250012299       22.3618441865      -37.9058428681  TIP3      18919           0.0000000000
     79009     19111  TIP3      H2            -28.0917411095       23.7454605504      -38.2076773806  TIP3      18919           0.0000000000
     79010     19112  TIP3      OH2           -33.9441523419       21.6393762630      -25.8981320618  TIP3      18920           0.0000000000
     79011     19112  TIP3      H1            -34.2440922444       20.7669174897      -25.5984414147  TIP3      18920           0.0000000000
     79012     19112  TIP3      H2            -32.9912426763       21.5585394105      -25.6632916851  TIP3      18920           0.0000000000
     79013     19113  TIP3      OH2           -31.8730773208       20.9496914027      -24.3632999695  TIP3      18921           0.0000000000
     79014     19113  TIP3      H1            -30.9669994772       20.6605849370      -24.5980887906  TIP3      18921           0.0000000000
     79015     19113  TIP3      H2            -32.2105750505       20.1638732134      -23.9185506096  TIP3      18921           0.0000000000
     79016     19114  TIP3      OH2           -20.3675065727      -36.7606647579      -25.4376895128  TIP3      18922           0.0000000000
     79017     19114  TIP3      H1            -21.0649510213      -36.8875699462      -26.0857453357  TIP3      18922           0.0000000000
     79018     19114  TIP3      H2            -20.2972134890      -35.7985593129      -25.3898617653  TIP3      18922           0.0000000000
     79019     19115  TIP3      OH2            -5.8138173629       30.1649177269      -35.5972262035  TIP3      18923           0.0000000000
     79020     19115  TIP3      H1             -5.8291585769       31.1502640859      -35.6049025453  TIP3      18923           0.0000000000
     79021     19115  TIP3      H2             -6.5466778768       29.9483121020      -36.1928729854  TIP3      18923           0.0000000000
     79022     19116  TIP3      OH2            -6.9524824671       29.4439602103      -32.0833571894  TIP3      18924           0.0000000000
     79023     19116  TIP3      H1             -6.9673479740       28.7955154787      -31.3651913988  TIP3      18924           0.0000000000
     79024     19116  TIP3      H2             -7.3039216425       28.9349056895      -32.8342961764  TIP3      18924           0.0000000000
     79025     19117  TIP3      OH2           -14.6028439685       29.1229358833      -30.5301626709  TIP3      18925           0.0000000000
     79026     19117  TIP3      H1            -14.5191707610       28.4354609821      -29.8386659611  TIP3      18925           0.0000000000
     79027     19117  TIP3      H2            -13.8518596187       29.6919051730      -30.3081739625  TIP3      18925           0.0000000000
     79028     19118  TIP3      OH2            -3.2712484529       32.3793613671      -33.7871982873  TIP3      18926           0.0000000000
     79029     19118  TIP3      H1             -3.6845804690       31.6649890946      -33.2947638404  TIP3      18926           0.0000000000
     79030     19118  TIP3      H2             -3.2299347100       33.0989393278      -33.1317442303  TIP3      18926           0.0000000000
     79031     19119  TIP3      OH2           -13.6580067170       33.5746069822      -32.0000286255  TIP3      18927           0.0000000000
     79032     19119  TIP3      H1            -13.9910531929       32.7183462590      -32.3389548016  TIP3      18927           0.0000000000
     79033     19119  TIP3      H2            -12.7056256268       33.3817254179      -31.9959840892  TIP3      18927           0.0000000000
     79034     19120  TIP3      OH2           -17.0383348210       27.1251747059      -36.5369189607  TIP3      18928           0.0000000000
     79035     19120  TIP3      H1            -17.4741194660       27.9957484719      -36.6040677020  TIP3      18928           0.0000000000
     79036     19120  TIP3      H2            -17.5990131563       26.5849847821      -37.1100677878  TIP3      18928           0.0000000000
     79037     19121  TIP3      OH2           -16.3253296517       29.3513218201      -34.3903891329  TIP3      18929           0.0000000000
     79038     19121  TIP3      H1            -16.0499273495       28.5297690558      -33.9414684870  TIP3      18929           0.0000000000
     79039     19121  TIP3      H2            -15.6315636076       29.4586676101      -35.0588215267  TIP3      18929           0.0000000000
     79040     19122  TIP3      OH2            -8.5964041160       31.8207509014      -31.5990672925  TIP3      18930           0.0000000000
     79041     19122  TIP3      H1             -8.2439274284       31.2151061741      -32.2703512944  TIP3      18930           0.0000000000
     79042     19122  TIP3      H2             -7.7805841185       32.0207473616      -31.1065564338  TIP3      18930           0.0000000000
     79043     19123  TIP3      OH2             0.0146104929       23.5088648757      -30.8884669651  TIP3      18931           0.0000000000
     79044     19123  TIP3      H1              0.1927669694       24.0933914186      -30.1207117874  TIP3      18931           0.0000000000
     79045     19123  TIP3      H2              0.5848163333       23.9282591952      -31.5485195276  TIP3      18931           0.0000000000
     79046     19124  TIP3      OH2            -5.4117581538       26.3140716995      -31.2965970633  TIP3      18932           0.0000000000
     79047     19124  TIP3      H1             -5.2441961240       25.3552521856      -31.2919289014  TIP3      18932           0.0000000000
     79048     19124  TIP3      H2             -5.5153569073       26.4542277251      -32.2576768746  TIP3      18932           0.0000000000
     79049     19125  TIP3      OH2           -12.3030869020       24.3951253491      -34.0877383940  TIP3      18933           0.0000000000
     79050     19125  TIP3      H1            -12.1934819447       25.2315271448      -34.5780044655  TIP3      18933           0.0000000000
     79051     19125  TIP3      H2            -12.6994767034       23.8135188065      -34.7780478814  TIP3      18933           0.0000000000
     79052     19126  TIP3      OH2            -4.5621893502       24.4788146578      -35.7112134892  TIP3      18934           0.0000000000
     79053     19126  TIP3      H1             -3.9112052304       24.1660815397      -35.0407645803  TIP3      18934           0.0000000000
     79054     19126  TIP3      H2             -3.9977930534       25.0600712920      -36.2417568350  TIP3      18934           0.0000000000
     79055     19127  TIP3      OH2           -15.6737102810       26.8133683514      -33.3486780707  TIP3      18935           0.0000000000
     79056     19127  TIP3      H1            -15.0048020392       26.2691936245      -32.8931971219  TIP3      18935           0.0000000000
     79057     19127  TIP3      H2            -15.5689019183       26.4983734625      -34.2594431752  TIP3      18935           0.0000000000
     79058     19128  TIP3      OH2           -10.5176501497       28.3701574192      -34.0267657000  TIP3      18936           0.0000000000
     79059     19128  TIP3      H1             -9.8442724338       27.7886242683      -33.6339846475  TIP3      18936           0.0000000000
     79060     19128  TIP3      H2            -11.0312626843       27.7139814129      -34.5377899835  TIP3      18936           0.0000000000
     79061     19129  TIP3      OH2             0.4444341257       24.9051857769      -28.6026201678  TIP3      18937           0.0000000000
     79062     19129  TIP3      H1             -0.1459590894       25.6831118644      -28.7257083251  TIP3      18937           0.0000000000
     79063     19129  TIP3      H2              0.4949768708       24.8350358952      -27.6431845451  TIP3      18937           0.0000000000
     79064     19130  TIP3      OH2           -13.3784289245       23.3139169676      -30.0279041381  TIP3      18938           0.0000000000
     79065     19130  TIP3      H1            -13.6698800900       23.8698090830      -30.7834279639  TIP3      18938           0.0000000000
     79066     19130  TIP3      H2            -14.0653115340       23.5346955930      -29.3581107994  TIP3      18938           0.0000000000
     79067     19131  TIP3      OH2            -6.1184981813       32.7560373066      -36.4918818716  TIP3      18939           0.0000000000
     79068     19131  TIP3      H1             -6.3528061985       32.5209326016      -37.3994048889  TIP3      18939           0.0000000000
     79069     19131  TIP3      H2             -6.4049119772       33.6902540532      -36.4296332961  TIP3      18939           0.0000000000
     79070     19132  TIP3      OH2           -10.8834984363       30.9236259166      -29.8077698426  TIP3      18940           0.0000000000
     79071     19132  TIP3      H1            -11.5800159341       31.5704190844      -29.5683286590  TIP3      18940           0.0000000000
     79072     19132  TIP3      H2            -10.1693601130       31.5190935903      -30.0914089368  TIP3      18940           0.0000000000
     79073     19133  TIP3      OH2            -2.7514921015       23.8293867293      -33.7246928495  TIP3      18941           0.0000000000
     79074     19133  TIP3      H1             -2.9688061045       23.0607394904      -33.1893994903  TIP3      18941           0.0000000000
     79075     19133  TIP3      H2             -2.0762299357       24.2651249866      -33.1791743413  TIP3      18941           0.0000000000
     79076     19134  TIP3      OH2           -13.8201670442       25.1573583838      -32.0069698295  TIP3      18942           0.0000000000
     79077     19134  TIP3      H1            -13.1908830527       25.8463633669      -31.6994425475  TIP3      18942           0.0000000000
     79078     19134  TIP3      H2            -13.3057334423       24.7465453128      -32.7459453825  TIP3      18942           0.0000000000
     79079     19135  TIP3      OH2           -12.4128552343       32.9526697473      -28.9866331051  TIP3      18943           0.0000000000
     79080     19135  TIP3      H1            -12.4815828738       33.8549620388      -29.3362480880  TIP3      18943           0.0000000000
     79081     19135  TIP3      H2            -13.3063307177       32.8585636629      -28.5721245776  TIP3      18943           0.0000000000
     79082     19136  TIP3      OH2           -16.3541672982       32.6151667107      -38.1872807669  TIP3      18944           0.0000000000
     79083     19136  TIP3      H1            -16.6150555026       32.9303453086      -39.0703550090  TIP3      18944           0.0000000000
     79084     19136  TIP3      H2            -16.2679014085       33.4425994600      -37.6770460327  TIP3      18944           0.0000000000
     79085     19137  TIP3      OH2            -2.7319987956       34.2533054795      -31.3793444070  TIP3      18945           0.0000000000
     79086     19137  TIP3      H1             -3.7131671710       34.3330789908      -31.2918832058  TIP3      18945           0.0000000000
     79087     19137  TIP3      H2             -2.4500335868       35.1447264262      -31.6516359287  TIP3      18945           0.0000000000
     79088     19138  TIP3      OH2            -2.4182242433       22.5129614771      -30.0469610951  TIP3      18946           0.0000000000
     79089     19138  TIP3      H1             -3.1404183540       23.1477704663      -30.1358284446  TIP3      18946           0.0000000000
     79090     19138  TIP3      H2             -1.7023566583       22.9330725488      -30.5653256755  TIP3      18946           0.0000000000
     79091     19139  TIP3      OH2            -9.4480532700       20.6382825349      -32.5697759046  TIP3      18947           0.0000000000
     79092     19139  TIP3      H1             -9.5923176463       19.6759420510      -32.6532414622  TIP3      18947           0.0000000000
     79093     19139  TIP3      H2            -10.3290560059       20.9426482900      -32.2705495269  TIP3      18947           0.0000000000
     79094     19140  TIP3      OH2            -4.4475075967       35.7083506063      -35.0216129435  TIP3      18948           0.0000000000
     79095     19140  TIP3      H1             -3.8824407429       35.0955702404      -35.5303117268  TIP3      18948           0.0000000000
     79096     19140  TIP3      H2             -4.0497727216       36.5405801327      -35.2637843146  TIP3      18948           0.0000000000
     79097     19141  TIP3      OH2            -3.2295121789       33.8441286729      -36.3326184196  TIP3      18949           0.0000000000
     79098     19141  TIP3      H1             -3.5864411946       33.1836690100      -36.9337754639  TIP3      18949           0.0000000000
     79099     19141  TIP3      H2             -3.2341972009       33.3919670884      -35.4669830971  TIP3      18949           0.0000000000
     79100     19142  TIP3      OH2            -1.6521326494       32.5801398137      -27.8246017181  TIP3      18950           0.0000000000
     79101     19142  TIP3      H1             -1.5153972736       31.8989514308      -28.5202116036  TIP3      18950           0.0000000000
     79102     19142  TIP3      H2             -1.4286537478       33.4024334652      -28.2957694284  TIP3      18950           0.0000000000
     79103     19143  TIP3      OH2            -7.1551211738       29.4211808937      -38.0701365877  TIP3      18951           0.0000000000
     79104     19143  TIP3      H1             -7.8473550767       30.0022503922      -38.4288395241  TIP3      18951           0.0000000000
     79105     19143  TIP3      H2             -6.4433401159       29.5211165382      -38.7313181108  TIP3      18951           0.0000000000
     79106     19144  TIP3      OH2            -7.0729210344       27.9960878037      -41.0590092619  TIP3      18952           0.0000000000
     79107     19144  TIP3      H1             -6.3676802371       27.9771774164      -40.3944750646  TIP3      18952           0.0000000000
     79108     19144  TIP3      H2             -6.7663471066       27.2805200280      -41.6278084906  TIP3      18952           0.0000000000
     79109     19145  TIP3      OH2             0.2198657717       28.8332405838      -29.8184272415  TIP3      18953           0.0000000000
     79110     19145  TIP3      H1             -0.4110395858       29.5767503497      -29.7421685174  TIP3      18953           0.0000000000
     79111     19145  TIP3      H2              0.7330808078       29.0904306928      -30.6069665979  TIP3      18953           0.0000000000
     79112     19146  TIP3      OH2            -3.6975351929       29.6340760612      -37.1459494631  TIP3      18954           0.0000000000
     79113     19146  TIP3      H1             -4.4486479232       29.8764221232      -36.5506072541  TIP3      18954           0.0000000000
     79114     19146  TIP3      H2             -3.2297511000       28.9583593465      -36.6240660262  TIP3      18954           0.0000000000
     79115     19147  TIP3      OH2            -3.7737600858       27.8024116966      -28.0266028576  TIP3      18955           0.0000000000
     79116     19147  TIP3      H1             -3.7638592225       28.6203998172      -27.4992070947  TIP3      18955           0.0000000000
     79117     19147  TIP3      H2             -4.4070535936       28.0940103878      -28.7150477737  TIP3      18955           0.0000000000
     79118     19148  TIP3      OH2           -12.0950415954       30.2957347430      -35.2294843183  TIP3      18956           0.0000000000
     79119     19148  TIP3      H1            -12.4144893486       29.9062532428      -36.0792222105  TIP3      18956           0.0000000000
     79120     19148  TIP3      H2            -11.4796505549       29.6054628929      -34.8959836325  TIP3      18956           0.0000000000
     79121     19149  TIP3      OH2           -10.7702119064       33.6997525901      -32.5617254433  TIP3      18957           0.0000000000
     79122     19149  TIP3      H1            -10.7696037086       33.1540910475      -33.3561116039  TIP3      18957           0.0000000000
     79123     19149  TIP3      H2            -10.0036278316       33.3343926601      -32.0805856230  TIP3      18957           0.0000000000
     79124     19150  TIP3      OH2           -11.7683014646       29.0432111949      -31.5686271272  TIP3      18958           0.0000000000
     79125     19150  TIP3      H1            -11.2168462671       29.1413652306      -32.3694344063  TIP3      18958           0.0000000000
     79126     19150  TIP3      H2            -11.3746449881       29.7065162368      -30.9578659752  TIP3      18958           0.0000000000
     79127     19151  TIP3      OH2            -5.3154088954       34.6130256659      -30.8414672840  TIP3      18959           0.0000000000
     79128     19151  TIP3      H1             -5.6859057117       35.2416583135      -30.2276692018  TIP3      18959           0.0000000000
     79129     19151  TIP3      H2             -5.6114478172       33.7556899403      -30.4476957662  TIP3      18959           0.0000000000
     79130     19152  TIP3      OH2           -10.8288693126       33.4743684137      -26.8275995506  TIP3      18960           0.0000000000
     79131     19152  TIP3      H1            -11.2408790603       34.2447770055      -26.3785682107  TIP3      18960           0.0000000000
     79132     19152  TIP3      H2            -11.4709121393       33.2480486108      -27.5518928897  TIP3      18960           0.0000000000
     79133     19153  TIP3      OH2            -4.8314022844       28.8388408871      -39.4823819734  TIP3      18961           0.0000000000
     79134     19153  TIP3      H1             -4.2738895373       29.0070505342      -38.6827850479  TIP3      18961           0.0000000000
     79135     19153  TIP3      H2             -4.3777537793       29.3281131774      -40.2051982161  TIP3      18961           0.0000000000
     79136     19154  TIP3      OH2           -13.8812366071       29.6354224400      -27.7182517512  TIP3      18962           0.0000000000
     79137     19154  TIP3      H1            -13.8211794325       30.2985262123      -27.0077876757  TIP3      18962           0.0000000000
     79138     19154  TIP3      H2            -14.8168740537       29.7298920682      -27.9524411175  TIP3      18962           0.0000000000
     79139     19155  TIP3      OH2            -7.1606517297       35.5297892289      -36.0010092061  TIP3      18963           0.0000000000
     79140     19155  TIP3      H1             -6.6656144595       35.8515533011      -35.2400553429  TIP3      18963           0.0000000000
     79141     19155  TIP3      H2             -7.6690416494       36.3007728330      -36.2718378088  TIP3      18963           0.0000000000
     79142     19156  TIP3      OH2           -12.5869890358       35.4319894995      -26.1182581041  TIP3      18964           0.0000000000
     79143     19156  TIP3      H1            -12.6499774683       35.4105880533      -27.0977097824  TIP3      18964           0.0000000000
     79144     19156  TIP3      H2            -13.5336340353       35.3593433258      -25.8771402934  TIP3      18964           0.0000000000
     79145     19157  TIP3      OH2            -1.1045490996       20.5705118310      -39.5768207018  TIP3      18965           0.0000000000
     79146     19157  TIP3      H1             -2.0513837745       20.6856304413      -39.3374175844  TIP3      18965           0.0000000000
     79147     19157  TIP3      H2             -0.9022084862       21.4107604789      -40.0216106288  TIP3      18965           0.0000000000
     79148     19158  TIP3      OH2           -13.1341101094       29.3155287820      -37.5982916666  TIP3      18966           0.0000000000
     79149     19158  TIP3      H1            -13.4111257018       30.1001426397      -38.1185712878  TIP3      18966           0.0000000000
     79150     19158  TIP3      H2            -13.7798525078       28.6503183416      -37.8473286452  TIP3      18966           0.0000000000
     79151     19159  TIP3      OH2             0.0526860249       34.8918046446      -41.2375835780  TIP3      18967           0.0000000000
     79152     19159  TIP3      H1              0.1394845519       35.8507535814      -41.0810350717  TIP3      18967           0.0000000000
     79153     19159  TIP3      H2              0.9847749282       34.6124630603      -41.2168999731  TIP3      18967           0.0000000000
     79154     19160  TIP3      OH2           -17.0505648301       31.7512405453      -28.7106980714  TIP3      18968           0.0000000000
     79155     19160  TIP3      H1            -17.4768459164       31.6650261961      -29.5824658655  TIP3      18968           0.0000000000
     79156     19160  TIP3      H2            -16.9552494847       30.8031554115      -28.4990116994  TIP3      18968           0.0000000000
     79157     19161  TIP3      OH2           -17.2457248400       34.4418225059      -31.9027260851  TIP3      18969           0.0000000000
     79158     19161  TIP3      H1            -16.2885004828       34.3949978761      -31.9868576036  TIP3      18969           0.0000000000
     79159     19161  TIP3      H2            -17.3381434647       35.2725290183      -31.4104478401  TIP3      18969           0.0000000000
     79160     19162  TIP3      OH2             0.9215524020       35.1875690353      -26.2270792971  TIP3      18970           0.0000000000
     79161     19162  TIP3      H1              0.8454900921       34.2194502842      -26.2741979138  TIP3      18970           0.0000000000
     79162     19162  TIP3      H2              0.0645459427       35.4408350347      -25.8282153074  TIP3      18970           0.0000000000
     79163     19163  TIP3      OH2            -8.1037192703       34.7591489517      -27.4208378437  TIP3      18971           0.0000000000
     79164     19163  TIP3      H1             -7.9897402567       35.5369985289      -26.8655730450  TIP3      18971           0.0000000000
     79165     19163  TIP3      H2             -8.9263373963       34.3410590863      -27.1060311184  TIP3      18971           0.0000000000
     79166     19164  TIP3      OH2            -1.9204336604       26.6310493491      -25.7986792009  TIP3      18972           0.0000000000
     79167     19164  TIP3      H1             -2.3597612140       27.1196417754      -26.5157007766  TIP3      18972           0.0000000000
     79168     19164  TIP3      H2             -1.8864899162       25.7293800324      -26.1361329319  TIP3      18972           0.0000000000
     79169     19165  TIP3      OH2           -14.7415424124       33.0776557188      -27.7677317378  TIP3      18973           0.0000000000
     79170     19165  TIP3      H1            -14.5341546454       32.6882394610      -26.8933997839  TIP3      18973           0.0000000000
     79171     19165  TIP3      H2            -15.6092050449       32.6882499073      -28.0044448522  TIP3      18973           0.0000000000
     79172     19166  TIP3      OH2           -12.0721364763       21.5378140195      -31.8432732159  TIP3      18974           0.0000000000
     79173     19166  TIP3      H1            -12.9785689255       21.4100848092      -32.1945148150  TIP3      18974           0.0000000000
     79174     19166  TIP3      H2            -12.2040244507       22.3616728952      -31.3481572071  TIP3      18974           0.0000000000
     79175     19167  TIP3      OH2            -7.4139300860       21.2106535618      -28.4400520699  TIP3      18975           0.0000000000
     79176     19167  TIP3      H1             -7.0349014645       20.7789557505      -27.6526896892  TIP3      18975           0.0000000000
     79177     19167  TIP3      H2             -8.3883435671       21.0944548722      -28.3081525381  TIP3      18975           0.0000000000
     79178     19168  TIP3      OH2            -4.1404676598       25.0580714426      -27.5619627858  TIP3      18976           0.0000000000
     79179     19168  TIP3      H1             -4.7241045630       24.8565345500      -26.7938460664  TIP3      18976           0.0000000000
     79180     19168  TIP3      H2             -4.3162487413       25.9862941109      -27.7995449192  TIP3      18976           0.0000000000
     79181     19169  TIP3      OH2            -3.3738869732       29.8616599652      -41.6621226053  TIP3      18977           0.0000000000
     79182     19169  TIP3      H1             -3.4011860189       29.6797679290      -42.6297450548  TIP3      18977           0.0000000000
     79183     19169  TIP3      H2             -2.5206057180       30.3144962868      -41.6132913096  TIP3      18977           0.0000000000
     79184     19170  TIP3      OH2            -7.7839023104       23.7932438033      -41.1559929601  TIP3      18978           0.0000000000
     79185     19170  TIP3      H1             -8.0992159293       23.7302174758      -40.2359094528  TIP3      18978           0.0000000000
     79186     19170  TIP3      H2             -8.0922967546       22.9160224859      -41.4623483084  TIP3      18978           0.0000000000
     79187     19171  TIP3      OH2           -11.9626927227       26.5163011987      -30.5642010725  TIP3      18979           0.0000000000
     79188     19171  TIP3      H1            -12.7048341895       26.5037001196      -29.9341031398  TIP3      18979           0.0000000000
     79189     19171  TIP3      H2            -12.0135091019       27.4221501206      -30.9445480204  TIP3      18979           0.0000000000
     79190     19172  TIP3      OH2           -12.0051947470       26.6279596375      -35.7082895514  TIP3      18980           0.0000000000
     79191     19172  TIP3      H1            -12.9438499234       26.3778520265      -35.8396246959  TIP3      18980           0.0000000000
     79192     19172  TIP3      H2            -11.6293668638       26.3379414771      -36.5636069757  TIP3      18980           0.0000000000
     79193     19173  TIP3      OH2            -6.4865504840       27.1329983412      -36.9299906843  TIP3      18981           0.0000000000
     79194     19173  TIP3      H1             -6.8789251912       27.9559230903      -37.3029478872  TIP3      18981           0.0000000000
     79195     19173  TIP3      H2             -5.7994954043       26.9635542565      -37.5959698939  TIP3      18981           0.0000000000
     79196     19174  TIP3      OH2            -7.3935992281       27.3213704335      -25.4936286926  TIP3      18982           0.0000000000
     79197     19174  TIP3      H1             -7.9631775493       26.5890255964      -25.1556939731  TIP3      18982           0.0000000000
     79198     19174  TIP3      H2             -6.5887346415       27.2359116825      -24.9555006304  TIP3      18982           0.0000000000
     79199     19175  TIP3      OH2            -5.4503269085       26.6251470085      -34.0934786188  TIP3      18983           0.0000000000
     79200     19175  TIP3      H1             -5.7366039995       27.1871553025      -34.8333145568  TIP3      18983           0.0000000000
     79201     19175  TIP3      H2             -5.3569691790       25.7741176755      -34.5618544335  TIP3      18983           0.0000000000
     79202     19176  TIP3      OH2           -14.3454641923       26.7612870576      -28.8940063778  TIP3      18984           0.0000000000
     79203     19176  TIP3      H1            -14.2643287904       27.1726978053      -28.0163202909  TIP3      18984           0.0000000000
     79204     19176  TIP3      H2            -14.7864770548       25.9240203624      -28.6792737547  TIP3      18984           0.0000000000
     79205     19177  TIP3      OH2           -10.9718433088       24.1592423430      -42.0428285322  TIP3      18985           0.0000000000
     79206     19177  TIP3      H1            -11.4256076463       23.7420993161      -41.2803952193  TIP3      18985           0.0000000000
     79207     19177  TIP3      H2            -11.6837493244       24.5910975914      -42.5299168873  TIP3      18985           0.0000000000
     79208     19178  TIP3      OH2           -17.6823361890       23.8664422055      -34.9169223779  TIP3      18986           0.0000000000
     79209     19178  TIP3      H1            -17.0034553708       23.8294217146      -34.2085839175  TIP3      18986           0.0000000000
     79210     19178  TIP3      H2            -17.2363862274       23.4888714000      -35.6951393657  TIP3      18986           0.0000000000
     79211     19179  TIP3      OH2           -16.4287096270       24.6178114539      -39.5672962224  TIP3      18987           0.0000000000
     79212     19179  TIP3      H1            -15.9097857569       25.2238620800      -40.1239446758  TIP3      18987           0.0000000000
     79213     19179  TIP3      H2            -17.1153447443       25.2347958183      -39.2413097587  TIP3      18987           0.0000000000
     79214     19180  TIP3      OH2            -6.2585392913       28.2056575198      -29.5401022422  TIP3      18988           0.0000000000
     79215     19180  TIP3      H1             -5.8749741906       27.5199042666      -30.1242598901  TIP3      18988           0.0000000000
     79216     19180  TIP3      H2             -6.7222473440       27.6774019996      -28.8672921362  TIP3      18988           0.0000000000
     79217     19181  TIP3      OH2            -9.4523211497       24.1890957455      -34.7000426846  TIP3      18989           0.0000000000
     79218     19181  TIP3      H1            -10.3866293979       24.1878590403      -34.4096693906  TIP3      18989           0.0000000000
     79219     19181  TIP3      H2             -8.9698605738       24.0126104532      -33.8790392776  TIP3      18989           0.0000000000
     79220     19182  TIP3      OH2           -14.6397899279       25.7238767044      -35.8394001141  TIP3      18990           0.0000000000
     79221     19182  TIP3      H1            -15.5253376343       25.8875023825      -36.2257664417  TIP3      18990           0.0000000000
     79222     19182  TIP3      H2            -14.3620500698       24.8793882746      -36.2383240100  TIP3      18990           0.0000000000
     79223     19183  TIP3      OH2           -10.9994640899       25.7820611543      -38.2068271709  TIP3      18991           0.0000000000
     79224     19183  TIP3      H1            -10.0431936619       25.8922514511      -38.0477143521  TIP3      18991           0.0000000000
     79225     19183  TIP3      H2            -11.2362202906       26.4636011443      -38.8639217674  TIP3      18991           0.0000000000
     79226     19184  TIP3      OH2            -5.0461762806       23.4189076167      -31.4647899393  TIP3      18992           0.0000000000
     79227     19184  TIP3      H1             -5.7296264566       23.4673155015      -30.7585124294  TIP3      18992           0.0000000000
     79228     19184  TIP3      H2             -5.5571162244       23.1625734147      -32.2469129169  TIP3      18992           0.0000000000
     79229     19185  TIP3      OH2           -12.2931909014       26.9592326395      -40.6187433361  TIP3      18993           0.0000000000
     79230     19185  TIP3      H1            -12.8241254276       26.5696389453      -41.3342740826  TIP3      18993           0.0000000000
     79231     19185  TIP3      H2            -11.4728591101       27.1648248193      -41.0935070923  TIP3      18993           0.0000000000
     79232     19186  TIP3      OH2           -14.1678359662       31.6041181827      -25.5695252119  TIP3      18994           0.0000000000
     79233     19186  TIP3      H1            -13.4616834385       31.7726819227      -24.9417056256  TIP3      18994           0.0000000000
     79234     19186  TIP3      H2            -14.9694235732       31.6045309239      -24.9894989524  TIP3      18994           0.0000000000
     79235     19187  TIP3      OH2            -8.1710015340       26.9404421902      -32.8101965834  TIP3      18995           0.0000000000
     79236     19187  TIP3      H1             -7.5708428407       26.4069527852      -33.3441900026  TIP3      18995           0.0000000000
     79237     19187  TIP3      H2             -8.3158692885       26.3906632745      -32.0276694247  TIP3      18995           0.0000000000
     79238     19188  TIP3      OH2           -13.1505730482       23.0852836104      -36.3582034046  TIP3      18996           0.0000000000
     79239     19188  TIP3      H1            -13.4859446320       22.1668363201      -36.3933323786  TIP3      18996           0.0000000000
     79240     19188  TIP3      H2            -12.3786419204       22.9904629798      -36.9277600706  TIP3      18996           0.0000000000
     79241     19189  TIP3      OH2            -9.5311953591       25.2670878329      -30.3966914522  TIP3      18997           0.0000000000
     79242     19189  TIP3      H1            -10.3563149301       25.7868316095      -30.3072448075  TIP3      18997           0.0000000000
     79243     19189  TIP3      H2             -8.9758470981       25.6206766532      -29.6741948263  TIP3      18997           0.0000000000
     79244     19190  TIP3      OH2            -8.9487200357       31.4743716607      -38.6907268262  TIP3      18998           0.0000000000
     79245     19190  TIP3      H1             -9.7487491438       31.0130518387      -39.0270590394  TIP3      18998           0.0000000000
     79246     19190  TIP3      H2             -9.1684208944       31.6011126389      -37.7473811864  TIP3      18998           0.0000000000
     79247     19191  TIP3      OH2            -1.7510017113       30.6922152034      -29.8924824009  TIP3      18999           0.0000000000
     79248     19191  TIP3      H1             -1.1928070755       31.1875187402      -30.5211862232  TIP3      18999           0.0000000000
     79249     19191  TIP3      H2             -2.6122119204       30.7376574796      -30.3567300156  TIP3      18999           0.0000000000
     79250     19192  TIP3      OH2            -5.1136646485       24.3031580166      -40.5239882738  TIP3      19000           0.0000000000
     79251     19192  TIP3      H1             -6.0652495944       24.4578640916      -40.6584946367  TIP3      19000           0.0000000000
     79252     19192  TIP3      H2             -4.7730540906       25.1544577972      -40.1731776304  TIP3      19000           0.0000000000
     79253     19193  TIP3      OH2            -7.4637987160       31.7731364505      -27.4857371664  TIP3      19001           0.0000000000
     79254     19193  TIP3      H1             -7.7838394246       31.3330192894      -26.6843061628  TIP3      19001           0.0000000000
     79255     19193  TIP3      H2             -7.6998960760       32.6945487522      -27.3451454468  TIP3      19001           0.0000000000
     79256     19194  TIP3      OH2            -4.3764725687       26.2257514909      -38.9002520170  TIP3      19002           0.0000000000
     79257     19194  TIP3      H1             -3.4950005684       26.0920148589      -38.4909492871  TIP3      19002           0.0000000000
     79258     19194  TIP3      H2             -4.2710978073       27.0464426745      -39.4097232771  TIP3      19002           0.0000000000
     79259     19195  TIP3      OH2           -13.8366833980       30.8822570704      -32.8983389978  TIP3      19003           0.0000000000
     79260     19195  TIP3      H1            -13.1497451411       30.8121640599      -33.5922646054  TIP3      19003           0.0000000000
     79261     19195  TIP3      H2            -13.7711253895       30.0239511322      -32.4427022284  TIP3      19003           0.0000000000
     79262     19196  TIP3      OH2            -6.8540191860       32.9401323543      -39.6733553602  TIP3      19004           0.0000000000
     79263     19196  TIP3      H1             -7.1801973230       33.7986545837      -39.3365806567  TIP3      19004           0.0000000000
     79264     19196  TIP3      H2             -7.5834672744       32.3373097272      -39.4320625584  TIP3      19004           0.0000000000
     79265     19197  TIP3      OH2           -16.8329004511       29.2958935904      -27.6289824596  TIP3      19005           0.0000000000
     79266     19197  TIP3      H1            -16.6737430022       28.8468371818      -26.7750215141  TIP3      19005           0.0000000000
     79267     19197  TIP3      H2            -17.4622661598       28.6821106783      -28.0545743415  TIP3      19005           0.0000000000
     79268     19198  TIP3      OH2            -9.8340518681       28.8641028008      -25.4761902660  TIP3      19006           0.0000000000
     79269     19198  TIP3      H1            -10.1314464393       28.5187473936      -26.3309505580  TIP3      19006           0.0000000000
     79270     19198  TIP3      H2             -8.9171727195       28.5308879339      -25.4267241507  TIP3      19006           0.0000000000
     79271     19199  TIP3      OH2            -5.1599736390       34.2459077787      -27.5844425857  TIP3      19007           0.0000000000
     79272     19199  TIP3      H1             -6.1008720979       34.3223697598      -27.7541856770  TIP3      19007           0.0000000000
     79273     19199  TIP3      H2             -5.1748573782       34.4253273924      -26.6126841694  TIP3      19007           0.0000000000
     79274     19200  TIP3      OH2             0.5278360945       26.3559576400      -39.1227634894  TIP3      19008           0.0000000000
     79275     19200  TIP3      H1             -0.0440737994       26.0754349093      -39.8610382006  TIP3      19008           0.0000000000
     79276     19200  TIP3      H2              0.6016388643       27.3062864095      -39.3709148879  TIP3      19008           0.0000000000
     79277     19201  TIP3      OH2             0.5202059492       32.2013434521      -26.3269798993  TIP3      19009           0.0000000000
     79278     19201  TIP3      H1             -0.3663040301       32.4459333090      -26.6780351601  TIP3      19009           0.0000000000
     79279     19201  TIP3      H2              1.0734375271       32.1487356252      -27.1252560734  TIP3      19009           0.0000000000
     79280     19202  TIP3      OH2            -1.0470648479       34.9453033299      -38.5102597851  TIP3      19010           0.0000000000
     79281     19202  TIP3      H1             -1.6138731391       34.2013345503      -38.3830583951  TIP3      19010           0.0000000000
     79282     19202  TIP3      H2             -0.9385672274       35.0304999141      -39.4740285432  TIP3      19010           0.0000000000
     79283     19203  TIP3      OH2            -3.9768427416       30.0043130260      -31.6086574718  TIP3      19011           0.0000000000
     79284     19203  TIP3      H1             -4.9174713286       29.7968582352      -31.7265785065  TIP3      19011           0.0000000000
     79285     19203  TIP3      H2             -3.5452899222       29.2487220108      -32.0498135458  TIP3      19011           0.0000000000
     79286     19204  TIP3      OH2           -11.4192516069       34.3032170310      -35.6049342926  TIP3      19012           0.0000000000
     79287     19204  TIP3      H1            -10.9581959687       35.1465800082      -35.6822276026  TIP3      19012           0.0000000000
     79288     19204  TIP3      H2            -12.3339712443       34.5386390962      -35.7996151464  TIP3      19012           0.0000000000
     79289     19205  TIP3      OH2           -15.6921907514       29.1766159213      -40.9438102098  TIP3      19013           0.0000000000
     79290     19205  TIP3      H1            -15.1123413762       29.8343965306      -40.5254929308  TIP3      19013           0.0000000000
     79291     19205  TIP3      H2            -16.5824260302       29.4906109867      -40.6945366679  TIP3      19013           0.0000000000
     79292     19206  TIP3      OH2           -10.0227359072       31.9924435315      -35.9957342977  TIP3      19014           0.0000000000
     79293     19206  TIP3      H1            -10.3407666992       32.9134454389      -35.9069844880  TIP3      19014           0.0000000000
     79294     19206  TIP3      H2            -10.7528008001       31.5117987055      -35.5563475874  TIP3      19014           0.0000000000
     79295     19207  TIP3      OH2            -9.2836612063       35.8662508471      -29.8975293448  TIP3      19015           0.0000000000
     79296     19207  TIP3      H1             -9.1362971510       36.8171668664      -29.9797270096  TIP3      19015           0.0000000000
     79297     19207  TIP3      H2             -8.9845600854       35.7215121145      -28.9850485344  TIP3      19015           0.0000000000
     79298     19208  TIP3      OH2            -6.0708557998       32.1885318871      -29.9761114490  TIP3      19016           0.0000000000
     79299     19208  TIP3      H1             -6.4068174368       31.9749887214      -29.0804050947  TIP3      19016           0.0000000000
     79300     19208  TIP3      H2             -5.4329023824       31.4776619401      -30.1378723571  TIP3      19016           0.0000000000
     79301     19209  TIP3      OH2            -3.7308280203       33.2393827713      -40.8919584136  TIP3      19017           0.0000000000
     79302     19209  TIP3      H1             -3.4343502856       32.8030318454      -40.0659312441  TIP3      19017           0.0000000000
     79303     19209  TIP3      H2             -4.6857611398       33.0876665629      -40.7950140677  TIP3      19017           0.0000000000
     79304     19210  TIP3      OH2           -15.1870576979       24.0258388888      -28.0749346529  TIP3      19018           0.0000000000
     79305     19210  TIP3      H1            -16.0965580384       24.3698194336      -28.1178553088  TIP3      19018           0.0000000000
     79306     19210  TIP3      H2            -15.3042065462       23.1696134838      -27.6323236769  TIP3      19018           0.0000000000
     79307     19211  TIP3      OH2            -2.9613594556       31.8341175808      -38.6550373096  TIP3      19019           0.0000000000
     79308     19211  TIP3      H1             -3.1895556345       31.0844155206      -38.0696073965  TIP3      19019           0.0000000000
     79309     19211  TIP3      H2             -2.0179266383       31.9533903235      -38.4539084715  TIP3      19019           0.0000000000
     79310     19212  TIP3      OH2           -15.5786608931       35.7722548744      -29.6683296025  TIP3      19020           0.0000000000
     79311     19212  TIP3      H1            -15.2877696138       34.8587806120      -29.6222777253  TIP3      19020           0.0000000000
     79312     19212  TIP3      H2            -15.3917685123       36.1146668547      -28.7836366904  TIP3      19020           0.0000000000
     79313     19213  TIP3      OH2            -9.5971891738       34.3142284889      -42.3994484254  TIP3      19021           0.0000000000
     79314     19213  TIP3      H1             -9.5157979934       33.5403163077      -42.9781575913  TIP3      19021           0.0000000000
     79315     19213  TIP3      H2            -10.0311213661       33.8991245115      -41.6212810459  TIP3      19021           0.0000000000
     79316     19214  TIP3      OH2           -10.8515973537       33.8179185450      -39.9416096414  TIP3      19022           0.0000000000
     79317     19214  TIP3      H1            -10.5726565756       33.3286516404      -39.1565052011  TIP3      19022           0.0000000000
     79318     19214  TIP3      H2            -10.7281174317       34.7537370922      -39.6686239530  TIP3      19022           0.0000000000
     79319     19215  TIP3      OH2           -14.2900876646       31.1133007929      -39.4454295017  TIP3      19023           0.0000000000
     79320     19215  TIP3      H1            -15.0058212127       31.5098012002      -38.9114627830  TIP3      19023           0.0000000000
     79321     19215  TIP3      H2            -13.7870770978       31.8961881621      -39.7396931973  TIP3      19023           0.0000000000
     79322     19216  TIP3      OH2            -6.4674438701       23.7997468704      -29.1175623922  TIP3      19024           0.0000000000
     79323     19216  TIP3      H1             -5.7416516871       23.8490005479      -28.4911864325  TIP3      19024           0.0000000000
     79324     19216  TIP3      H2             -6.8424425291       22.9160309039      -28.9362938939  TIP3      19024           0.0000000000
     79325     19217  TIP3      OH2            -5.7178030817       23.3619850792      -38.0401026793  TIP3      19025           0.0000000000
     79326     19217  TIP3      H1             -5.4856132365       23.8268711478      -38.8686595669  TIP3      19025           0.0000000000
     79327     19217  TIP3      H2             -5.1401311344       23.8059769372      -37.4062682319  TIP3      19025           0.0000000000
     79328     19218  TIP3      OH2            -7.9832390395       35.5566739879      -39.2097552363  TIP3      19026           0.0000000000
     79329     19218  TIP3      H1             -8.8362800582       36.0287569207      -39.1663027148  TIP3      19026           0.0000000000
     79330     19218  TIP3      H2             -7.5120471899       36.0615343141      -39.8888178998  TIP3      19026           0.0000000000
     79331     19219  TIP3      OH2            -8.4841719598       25.1153597492      -37.2192711408  TIP3      19027           0.0000000000
     79332     19219  TIP3      H1             -7.7031036012       25.6995135397      -37.1727267494  TIP3      19027           0.0000000000
     79333     19219  TIP3      H2             -8.7499043690       24.9969144141      -36.2883410053  TIP3      19027           0.0000000000
     79334     19220  TIP3      OH2            -7.9421275478       26.1482427995      -28.0541847741  TIP3      19028           0.0000000000
     79335     19220  TIP3      H1             -7.8702789204       26.7037913024      -27.2517158671  TIP3      19028           0.0000000000
     79336     19220  TIP3      H2             -7.2810891166       25.4519812794      -27.9510225303  TIP3      19028           0.0000000000
     79337     19221  TIP3      OH2            -7.6388779617       22.1724470146      -36.3407204494  TIP3      19029           0.0000000000
     79338     19221  TIP3      H1             -7.9608274924       22.8225312236      -35.6927522668  TIP3      19029           0.0000000000
     79339     19221  TIP3      H2             -6.9432288034       22.7189833225      -36.7800657416  TIP3      19029           0.0000000000
     79340     19222  TIP3      OH2           -10.5783250602      -36.4692536106      -39.1775052125  TIP3      19030           0.0000000000
     79341     19222  TIP3      H1            -10.5497598635      -35.6802323545      -39.7525984654  TIP3      19030           0.0000000000
     79342     19222  TIP3      H2            -10.8714647170      -36.0972001898      -38.3312454885  TIP3      19030           0.0000000000
     79343     19223  TIP3      OH2           -11.9680250956       23.3057468763      -39.6508935147  TIP3      19031           0.0000000000
     79344     19223  TIP3      H1            -12.0329872353       24.1806884126      -39.2262469300  TIP3      19031           0.0000000000
     79345     19223  TIP3      H2            -11.0817080268       23.0243842208      -39.3526455809  TIP3      19031           0.0000000000
     79346     19224  TIP3      OH2            -1.7653970824       24.0010198139      -27.1563549188  TIP3      19032           0.0000000000
     79347     19224  TIP3      H1             -2.6850780571       24.3235258097      -27.3237549103  TIP3      19032           0.0000000000
     79348     19224  TIP3      H2             -1.4394297457       24.0009755684      -28.0768382770  TIP3      19032           0.0000000000
     79349     19225  TIP3      OH2            -3.1378181191       27.7968835966      -33.1802716179  TIP3      19033           0.0000000000
     79350     19225  TIP3      H1             -3.9649475603       27.3493068703      -33.4446439045  TIP3      19033           0.0000000000
     79351     19225  TIP3      H2             -2.6585049274       27.1125980552      -32.6601119966  TIP3      19033           0.0000000000
     79352     19226  TIP3      OH2           -13.7275709272       33.7194375935      -40.5854670208  TIP3      19034           0.0000000000
     79353     19226  TIP3      H1            -13.0544043188       34.3587512592      -40.3101360616  TIP3      19034           0.0000000000
     79354     19226  TIP3      H2            -13.2192729411       33.2478358008      -41.2712097226  TIP3      19034           0.0000000000
     79355     19227  TIP3      OH2           -15.4007996215       26.3958365265      -41.4413893373  TIP3      19035           0.0000000000
     79356     19227  TIP3      H1            -15.3836516647       27.3532238672      -41.2327251915  TIP3      19035           0.0000000000
     79357     19227  TIP3      H2            -16.2935220148       26.2204305853      -41.7485322740  TIP3      19035           0.0000000000
     79358     19228  TIP3      OH2           -14.5975441222       21.1911517701      -32.6747087219  TIP3      19036           0.0000000000
     79359     19228  TIP3      H1            -14.7656798652       21.1923963101      -33.6530813123  TIP3      19036           0.0000000000
     79360     19228  TIP3      H2            -14.9954602721       20.3234208950      -32.4548987184  TIP3      19036           0.0000000000
     79361     19229  TIP3      OH2           -15.6208962127       35.1053346482      -36.5801762336  TIP3      19037           0.0000000000
     79362     19229  TIP3      H1            -16.4892796809       35.5288806069      -36.5872307463  TIP3      19037           0.0000000000
     79363     19229  TIP3      H2            -15.1281913606       35.5909462375      -37.2475152596  TIP3      19037           0.0000000000
     79364     19230  TIP3      OH2           -11.3447893926       36.4801787360      -23.6099910320  TIP3      19038           0.0000000000
     79365     19230  TIP3      H1            -10.6297603865       35.8996972653      -23.3280124312  TIP3      19038           0.0000000000
     79366     19230  TIP3      H2            -11.5140770106       36.1770733117      -24.5225526471  TIP3      19038           0.0000000000
     79367     19231  TIP3      OH2            -7.5838585707       36.1143373909      -42.1525226966  TIP3      19039           0.0000000000
     79368     19231  TIP3      H1             -8.3282435689       35.4923242300      -42.0728609989  TIP3      19039           0.0000000000
     79369     19231  TIP3      H2             -6.8825059115       35.5829800300      -42.5300279799  TIP3      19039           0.0000000000
     79370     19232  TIP3      OH2            -5.1124797292       34.6532595682      -25.0592230087  TIP3      19040           0.0000000000
     79371     19232  TIP3      H1             -5.6362900632       34.0170683595      -24.5392904574  TIP3      19040           0.0000000000
     79372     19232  TIP3      H2             -4.5449511201       35.0591003489      -24.3924412952  TIP3      19040           0.0000000000
     79373     19233  TIP3      OH2            -2.9057590114       35.8751570732      -41.9374009435  TIP3      19041           0.0000000000
     79374     19233  TIP3      H1             -2.6368588913       35.0405348353      -41.5409984501  TIP3      19041           0.0000000000
     79375     19233  TIP3      H2             -2.1837259101       36.0914677967      -42.5601202303  TIP3      19041           0.0000000000
     79376     19234  TIP3      OH2           -16.4732605747       31.5083241675      -24.2921132490  TIP3      19042           0.0000000000
     79377     19234  TIP3      H1            -16.3635633707       30.5910826442      -24.5855857175  TIP3      19042           0.0000000000
     79378     19234  TIP3      H2            -17.2552015527       31.7730201324      -24.8115391814  TIP3      19042           0.0000000000
     79379     19235  TIP3      OH2           -12.1653755756       31.8477715330      -42.2543057180  TIP3      19043           0.0000000000
     79380     19235  TIP3      H1            -12.0153340088       31.0914100360      -41.6628608952  TIP3      19043           0.0000000000
     79381     19235  TIP3      H2            -11.4122534728       31.7436964480      -42.8680824749  TIP3      19043           0.0000000000
     79382     19236  TIP3      OH2            -9.7450816008       31.5152582838      -24.8799966996  TIP3      19044           0.0000000000
     79383     19236  TIP3      H1            -10.1400429696       31.8260483883      -25.7161915214  TIP3      19044           0.0000000000
     79384     19236  TIP3      H2             -9.7261286256       30.5307989183      -24.9869051687  TIP3      19044           0.0000000000
     79385     19237  TIP3      OH2            -6.7196079399       32.9956193259      -42.4765328300  TIP3      19045           0.0000000000
     79386     19237  TIP3      H1             -7.0251820689       33.0829306939      -41.5601323531  TIP3      19045           0.0000000000
     79387     19237  TIP3      H2             -6.9211878125       32.0419511364      -42.6211078999  TIP3      19045           0.0000000000
     79388     19238  TIP3      OH2            -4.0975923139       31.3753207524      -27.5006709033  TIP3      19046           0.0000000000
     79389     19238  TIP3      H1             -3.3054595113       31.9483349084      -27.5747395247  TIP3      19046           0.0000000000
     79390     19238  TIP3      H2             -4.7983302028       32.0401420724      -27.4525236353  TIP3      19046           0.0000000000
     79391     19239  TIP3      OH2           -15.5676487582       28.7711123446      -24.8712765532  TIP3      19047           0.0000000000
     79392     19239  TIP3      H1            -15.2241293421       27.8803447174      -24.9924254147  TIP3      19047           0.0000000000
     79393     19239  TIP3      H2            -15.8706480988       28.7096854904      -23.9499029833  TIP3      19047           0.0000000000
     79394     19240  TIP3      OH2           -10.9628899273       29.8871875515      -39.8242632604  TIP3      19048           0.0000000000
     79395     19240  TIP3      H1            -11.4660134635       29.3477082558      -39.1962473234  TIP3      19048           0.0000000000
     79396     19240  TIP3      H2            -10.6640792579       29.2141395302      -40.4794898050  TIP3      19048           0.0000000000
     79397     19241  TIP3      OH2           -11.7057630598       27.6964684810      -27.5391791689  TIP3      19049           0.0000000000
     79398     19241  TIP3      H1            -12.2878419769       28.4282936538      -27.2793025051  TIP3      19049           0.0000000000
     79399     19241  TIP3      H2            -11.2987380388       28.0654831386      -28.3433596819  TIP3      19049           0.0000000000
     79400     19242  TIP3      OH2            -9.8856516131       28.1106988728      -41.6259254221  TIP3      19050           0.0000000000
     79401     19242  TIP3      H1            -10.0370847029       28.0202220137      -42.5890773766  TIP3      19050           0.0000000000
     79402     19242  TIP3      H2             -8.9093753719       28.1614813268      -41.5595756343  TIP3      19050           0.0000000000
     79403     19243  TIP3      OH2            -6.6336307881       30.2656894364      -24.1978142396  TIP3      19051           0.0000000000
     79404     19243  TIP3      H1             -5.6690503032       30.2277136281      -24.2685389880  TIP3      19051           0.0000000000
     79405     19243  TIP3      H2             -6.8090757799       29.5093456508      -23.6107364047  TIP3      19051           0.0000000000
     79406     19244  TIP3      OH2            -0.5466512254       30.4221919840      -42.2171399238  TIP3      19052           0.0000000000
     79407     19244  TIP3      H1             -0.7473158261       30.0463853597      -43.0884698688  TIP3      19052           0.0000000000
     79408     19244  TIP3      H2             -0.4791007438       31.3891307832      -42.4026115784  TIP3      19052           0.0000000000
     79409     19245  TIP3      OH2           -11.2801296690       25.0763559917      -26.4635851562  TIP3      19053           0.0000000000
     79410     19245  TIP3      H1            -11.1857307549       24.3676077001      -27.1312009465  TIP3      19053           0.0000000000
     79411     19245  TIP3      H2            -11.3307264103       25.8831444188      -27.0166676316  TIP3      19053           0.0000000000
     79412     19246  TIP3      OH2           -10.8791804233       23.4524883168      -28.9199495396  TIP3      19054           0.0000000000
     79413     19246  TIP3      H1            -10.3724467782       23.9130420651      -29.6273262283  TIP3      19054           0.0000000000
     79414     19246  TIP3      H2            -11.7755300996       23.3719632037      -29.3164363972  TIP3      19054           0.0000000000
     79415     19247  TIP3      OH2            -9.3538205957       28.9277373607      -28.6921996156  TIP3      19055           0.0000000000
     79416     19247  TIP3      H1             -8.5882698986       28.7800743360      -29.2565185623  TIP3      19055           0.0000000000
     79417     19247  TIP3      H2             -9.7108419756       29.7753711857      -29.0036073832  TIP3      19055           0.0000000000
     79418     19248  TIP3      OH2            -4.9739110759       26.7383965523      -23.7249499694  TIP3      19056           0.0000000000
     79419     19248  TIP3      H1             -4.7871102576       25.8175183121      -23.8722109272  TIP3      19056           0.0000000000
     79420     19248  TIP3      H2             -4.1100081726       27.1920010553      -23.7089402161  TIP3      19056           0.0000000000
     79421     19249  TIP3      OH2            -3.6112411230       29.4957481079      -25.6065321255  TIP3      19057           0.0000000000
     79422     19249  TIP3      H1             -3.8583261194       30.2347268191      -26.2053961759  TIP3      19057           0.0000000000
     79423     19249  TIP3      H2             -2.6532602466       29.4842994259      -25.7730601054  TIP3      19057           0.0000000000
     79424     19250  TIP3      OH2           -12.8297230427       26.3000861319      -24.4769036260  TIP3      19058           0.0000000000
     79425     19250  TIP3      H1            -13.6108347546       25.7658047505      -24.7297000005  TIP3      19058           0.0000000000
     79426     19250  TIP3      H2            -12.2067143139       26.0035253981      -25.1694581766  TIP3      19058           0.0000000000
     79427     19251  TIP3      OH2           -10.0964361038       20.8864125957      -28.5407204871  TIP3      19059           0.0000000000
     79428     19251  TIP3      H1            -10.2817230642       21.8503337082      -28.6296855350  TIP3      19059           0.0000000000
     79429     19251  TIP3      H2            -10.8503561923       20.5224932270      -29.0382071425  TIP3      19059           0.0000000000
     79430     19252  TIP3      OH2            -8.7927509798       25.1823092397      -24.8893591228  TIP3      19060           0.0000000000
     79431     19252  TIP3      H1             -9.1692118908       25.0115502443      -24.0073083352  TIP3      19060           0.0000000000
     79432     19252  TIP3      H2             -9.5896203178       25.0412872671      -25.4482497822  TIP3      19060           0.0000000000
     79433     19253  TIP3      OH2            -6.0827007066       24.3373363094      -25.8350588697  TIP3      19061           0.0000000000
     79434     19253  TIP3      H1             -7.0552889535       24.4331173862      -25.7391593709  TIP3      19061           0.0000000000
     79435     19253  TIP3      H2             -5.8966124273       23.6806296449      -25.1610812988  TIP3      19061           0.0000000000
     79436     19254  TIP3      OH2           -14.6958323859       24.2539158876      -24.7926098655  TIP3      19062           0.0000000000
     79437     19254  TIP3      H1            -14.4905105335       23.5305709714      -25.4080105727  TIP3      19062           0.0000000000
     79438     19254  TIP3      H2            -14.8207509856       23.7786426906      -23.9517702614  TIP3      19062           0.0000000000
     79439     19255  TIP3      OH2            -9.9387309398       20.2364086525      -25.8328462268  TIP3      19063           0.0000000000
     79440     19255  TIP3      H1             -9.2046678559       19.5919415383      -25.8390628056  TIP3      19063           0.0000000000
     79441     19255  TIP3      H2            -10.0015158367       20.4354770295      -26.7833356123  TIP3      19063           0.0000000000
     79442     19256  TIP3      OH2           -16.4723414921       33.3870906050      -41.1075469196  TIP3      19064           0.0000000000
     79443     19256  TIP3      H1            -15.5221327476       33.4864428160      -40.8784455760  TIP3      19064           0.0000000000
     79444     19256  TIP3      H2            -16.4163204026       32.7146746241      -41.8241475353  TIP3      19064           0.0000000000
     79445     19257  TIP3      OH2            -1.3576057674       33.0654333064      -23.7139008919  TIP3      19065           0.0000000000
     79446     19257  TIP3      H1             -2.2190666564       32.9667937086      -23.2723148351  TIP3      19065           0.0000000000
     79447     19257  TIP3      H2             -0.9427606696       33.7905890400      -23.2351993559  TIP3      19065           0.0000000000
     79448     19258  TIP3      OH2            -0.0189792901       31.3170755962      -38.2706517644  TIP3      19066           0.0000000000
     79449     19258  TIP3      H1              0.8253761985       31.7497122797      -38.0641587598  TIP3      19066           0.0000000000
     79450     19258  TIP3      H2             -0.0368796372       30.6187780151      -37.5828215949  TIP3      19066           0.0000000000
     79451     19259  TIP3      OH2             0.3360467307       29.4233614347      -36.3677908797  TIP3      19067           0.0000000000
     79452     19259  TIP3      H1             -0.4133471227       28.9185283542      -35.9762204568  TIP3      19067           0.0000000000
     79453     19259  TIP3      H2              0.9372939395       29.5485450056      -35.6042999032  TIP3      19067           0.0000000000
     79454     19260  TIP3      OH2             0.1013258682       32.1120532097      -31.3586719894  TIP3      19068           0.0000000000
     79455     19260  TIP3      H1              0.9041807961       31.7413915701      -31.7609420403  TIP3      19068           0.0000000000
     79456     19260  TIP3      H2              0.2395712533       33.0668383164      -31.5377151373  TIP3      19068           0.0000000000
     79457     19261  TIP3      OH2            -1.4119287521       34.9990948707      -29.0676659004  TIP3      19069           0.0000000000
     79458     19261  TIP3      H1             -2.1069116459       35.3799917725      -28.5315171271  TIP3      19069           0.0000000000
     79459     19261  TIP3      H2             -1.9097456982       34.6424434151      -29.8417275970  TIP3      19069           0.0000000000
     79460     19262  TIP3      OH2             0.6462841542       29.2392523690      -39.9808643807  TIP3      19070           0.0000000000
     79461     19262  TIP3      H1              0.0733534478       29.5979413784      -40.6947372267  TIP3      19070           0.0000000000
     79462     19262  TIP3      H2              0.5416887760       29.9531526755      -39.3201181040  TIP3      19070           0.0000000000
     79463     19263  TIP3      OH2            -0.9886701454       26.4742621017      -41.4695722441  TIP3      19071           0.0000000000
     79464     19263  TIP3      H1             -0.9124597564       27.1407231368      -42.1629593611  TIP3      19071           0.0000000000
     79465     19263  TIP3      H2             -1.1752823846       25.6524035750      -41.9641002105  TIP3      19071           0.0000000000
     79466     19264  TIP3      OH2            -1.8431769432       27.8952467711      -35.8009093840  TIP3      19072           0.0000000000
     79467     19264  TIP3      H1             -1.9912947603       26.9408956128      -35.8418083006  TIP3      19072           0.0000000000
     79468     19264  TIP3      H2             -2.1730167971       28.1099128416      -34.9081198829  TIP3      19072           0.0000000000
     79469     19265  TIP3      OH2           -16.8337778346       29.9884141577      -31.7420587212  TIP3      19073           0.0000000000
     79470     19265  TIP3      H1            -16.6597393611       29.8991506004      -32.7056229188  TIP3      19073           0.0000000000
     79471     19265  TIP3      H2            -15.9411035995       29.8058539389      -31.3893733877  TIP3      19073           0.0000000000
     79472     19266  TIP3      OH2            -0.9903486428       29.8416033302      -26.1671944935  TIP3      19074           0.0000000000
     79473     19266  TIP3      H1             -0.3522334790       29.1266981454      -25.9646659095  TIP3      19074           0.0000000000
     79474     19266  TIP3      H2             -0.4001434022       30.6234370232      -26.1567706408  TIP3      19074           0.0000000000
     79475     19267  TIP3      OH2             0.5150046414       27.7311964136      -25.4838539037  TIP3      19075           0.0000000000
     79476     19267  TIP3      H1             -0.3751657981       27.3405145087      -25.6193012428  TIP3      19075           0.0000000000
     79477     19267  TIP3      H2              1.0851545448       26.9473007418      -25.5602279367  TIP3      19075           0.0000000000
     79478     19268  TIP3      OH2            -1.7396248471       23.9515712158      -42.3327455080  TIP3      19076           0.0000000000
     79479     19268  TIP3      H1             -1.1523801117       23.5110528316      -41.6895717331  TIP3      19076           0.0000000000
     79480     19268  TIP3      H2             -2.6050172163       23.5332980134      -42.1802216166  TIP3      19076           0.0000000000
     79481     19269  TIP3      OH2            -2.1984560985       25.4779188428      -37.3889057235  TIP3      19077           0.0000000000
     79482     19269  TIP3      H1             -1.8791230569       24.5591895189      -37.2279361575  TIP3      19077           0.0000000000
     79483     19269  TIP3      H2             -1.3797961509       25.8906787319      -37.6980206331  TIP3      19077           0.0000000000
     79484     19270  TIP3      OH2            -1.5371419611       26.0241740979      -31.9031983391  TIP3      19078           0.0000000000
     79485     19270  TIP3      H1             -0.5764992486       26.2552861029      -31.9209421148  TIP3      19078           0.0000000000
     79486     19270  TIP3      H2             -1.7223881714       26.1656463933      -30.9620943794  TIP3      19078           0.0000000000
     79487     19271  TIP3      OH2            -1.4711379761       26.7509046999      -29.1384342330  TIP3      19079           0.0000000000
     79488     19271  TIP3      H1             -2.3450770961       27.0334133931      -28.7912142550  TIP3      19079           0.0000000000
     79489     19271  TIP3      H2             -1.0355729153       27.6100729944      -29.3488490399  TIP3      19079           0.0000000000
     79490     19272  TIP3      OH2           -17.2139416097       25.2641564999      -25.6271481757  TIP3      19080           0.0000000000
     79491     19272  TIP3      H1            -16.2876926210       25.0800195461      -25.3886705170  TIP3      19080           0.0000000000
     79492     19272  TIP3      H2            -17.6771010724       24.4697024718      -25.2952730825  TIP3      19080           0.0000000000
     79493     19273  TIP3      OH2             0.8330620744       20.7930538050      -23.7778311449  TIP3      19081           0.0000000000
     79494     19273  TIP3      H1              1.1686688662       20.1315017028      -24.3956891912  TIP3      19081           0.0000000000
     79495     19273  TIP3      H2              0.9084435849       21.6186093957      -24.2885620942  TIP3      19081           0.0000000000
     79496     19274  TIP3      OH2            -1.5013592202       22.7684519795      -37.2985866757  TIP3      19082           0.0000000000
     79497     19274  TIP3      H1             -1.2896285194       22.3318021466      -36.4453784781  TIP3      19082           0.0000000000
     79498     19274  TIP3      H2             -2.1023222870       22.1290829060      -37.7356637353  TIP3      19082           0.0000000000
     79499     19275  TIP3      OH2           -16.0209908971       23.5757600250      -32.7403335592  TIP3      19083           0.0000000000
     79500     19275  TIP3      H1            -15.5610843272       22.7465983273      -32.4858814999  TIP3      19083           0.0000000000
     79501     19275  TIP3      H2            -15.4677466399       24.2667429827      -32.3522351379  TIP3      19083           0.0000000000
     79502     19276  TIP3      OH2           -17.7377670864       26.5776825377      -31.7028630034  TIP3      19084           0.0000000000
     79503     19276  TIP3      H1            -17.1724962076       26.3271207391      -32.4623635366  TIP3      19084           0.0000000000
     79504     19276  TIP3      H2            -17.2737442522       27.3813607235      -31.4240338482  TIP3      19084           0.0000000000
     79505     19277  TIP3      OH2             0.3310743043       22.8934123307      -25.4303489314  TIP3      19085           0.0000000000
     79506     19277  TIP3      H1             -0.5965796772       23.1632143645      -25.5124155475  TIP3      19085           0.0000000000
     79507     19277  TIP3      H2              0.3858192693       22.3476897562      -26.2297529529  TIP3      19085           0.0000000000
     79508     19278  TIP3      OH2             0.3128092920       22.8031834292      -40.7447501313  TIP3      19086           0.0000000000
     79509     19278  TIP3      H1              0.7242855531       22.0898436814      -41.2824002191  TIP3      19086           0.0000000000
     79510     19278  TIP3      H2              1.0192863112       23.4639439527      -40.6946319105  TIP3      19086           0.0000000000
     79511     19279  TIP3      OH2           -17.3631111553       22.8772985288      -37.5906730656  TIP3      19087           0.0000000000
     79512     19279  TIP3      H1            -18.3042814527       22.9867086065      -37.7911169855  TIP3      19087           0.0000000000
     79513     19279  TIP3      H2            -16.9400102525       23.2961744097      -38.3565876503  TIP3      19087           0.0000000000
     79514     19280  TIP3      OH2           -17.4250098092       21.4881435430      -29.3349786511  TIP3      19088           0.0000000000
     79515     19280  TIP3      H1            -18.0923193788       21.2955799998      -28.6551991925  TIP3      19088           0.0000000000
     79516     19280  TIP3      H2            -17.8809228258       22.1609966097      -29.8789287305  TIP3      19088           0.0000000000
     79517     19281  TIP3      OH2           -15.1980549450       34.7523154789      -25.1497157814  TIP3      19089           0.0000000000
     79518     19281  TIP3      H1            -16.0510160310       34.8523289743      -25.6151759819  TIP3      19089           0.0000000000
     79519     19281  TIP3      H2            -15.4913753899       34.5964542774      -24.2447162344  TIP3      19089           0.0000000000
     79520     19282  TIP3      OH2           -12.2457013764       35.6896326892      -28.8293282485  TIP3      19090           0.0000000000
     79521     19282  TIP3      H1            -12.6889680504       36.4682550199      -29.1968554923  TIP3      19090           0.0000000000
     79522     19282  TIP3      H2            -11.3858385548       35.6675950043      -29.2729320863  TIP3      19090           0.0000000000
     79523     19283  TIP3      OH2            -0.6659203463       21.0114335240      -27.5765607656  TIP3      19091           0.0000000000
     79524     19283  TIP3      H1             -1.4927922871       21.2848186181      -28.0041488381  TIP3      19091           0.0000000000
     79525     19283  TIP3      H2             -0.4884222620       20.1788563827      -28.0710442460  TIP3      19091           0.0000000000
     79526     19284  TIP3      OH2           -13.0839879714       36.0348543877      -33.5290732731  TIP3      19092           0.0000000000
     79527     19284  TIP3      H1            -13.4679889180       35.2746423321      -33.0649915893  TIP3      19092           0.0000000000
     79528     19284  TIP3      H2            -12.5048988906       36.4002511693      -32.8372392858  TIP3      19092           0.0000000000
     79529     19285  TIP3      OH2            -7.2676701336       22.4241145526      -33.2870193024  TIP3      19093           0.0000000000
     79530     19285  TIP3      H1             -7.9441896114       21.7840403111      -33.0072110037  TIP3      19093           0.0000000000
     79531     19285  TIP3      H2             -6.7158087310       21.8910036860      -33.8717038067  TIP3      19093           0.0000000000
     79532     19286  TIP3      OH2            -2.1315541259       20.4747235707      -33.2288143577  TIP3      19094           0.0000000000
     79533     19286  TIP3      H1             -1.5193479418       21.0672570496      -33.7340383410  TIP3      19094           0.0000000000
     79534     19286  TIP3      H2             -3.0142619854       20.8352577361      -33.4563081703  TIP3      19094           0.0000000000
     79535     19287  TIP3      OH2            -0.4648969862       21.7229256924      -34.9480595505  TIP3      19095           0.0000000000
     79536     19287  TIP3      H1              0.2237961985       21.1472881109      -35.3629567879  TIP3      19095           0.0000000000
     79537     19287  TIP3      H2              0.0440287003       22.5589809286      -34.8410341667  TIP3      19095           0.0000000000
     79538     19288  TIP3      OH2           -14.9377534495       21.0460810119      -35.3386224631  TIP3      19096           0.0000000000
     79539     19288  TIP3      H1            -15.6310075584       20.8699492733      -36.0086382922  TIP3      19096           0.0000000000
     79540     19288  TIP3      H2            -14.4281664600       20.2315840669      -35.5317312351  TIP3      19096           0.0000000000
     79541     19289  TIP3      OH2           -16.3319025463       20.8882101998      -39.9644277811  TIP3      19097           0.0000000000
     79542     19289  TIP3      H1            -15.6016174191       21.4629288929      -40.2382894115  TIP3      19097           0.0000000000
     79543     19289  TIP3      H2            -16.6462957369       21.3375496827      -39.1640107394  TIP3      19097           0.0000000000
     79544     19290  TIP3      OH2           -10.4078534847       20.9932356987      -35.6527191082  TIP3      19098           0.0000000000
     79545     19290  TIP3      H1             -9.5085092002       21.3455967656      -35.7238084169  TIP3      19098           0.0000000000
     79546     19290  TIP3      H2            -10.4694192975       20.7558685690      -34.7287804945  TIP3      19098           0.0000000000
     79547     19291  TIP3      OH2            -4.7104449063       20.9950171581      -34.0310841519  TIP3      19099           0.0000000000
     79548     19291  TIP3      H1             -4.7628701847       21.1083815180      -34.9888316064  TIP3      19099           0.0000000000
     79549     19291  TIP3      H2             -5.0906297492       20.0911769830      -33.9021697520  TIP3      19099           0.0000000000
     79550     19292  TIP3      OH2            -3.4444138229       21.0248814588      -38.3461753855  TIP3      19100           0.0000000000
     79551     19292  TIP3      H1             -4.1936281239       21.6184201104      -38.5043733596  TIP3      19100           0.0000000000
     79552     19292  TIP3      H2             -3.8840361886       20.1724272517      -38.1120842429  TIP3      19100           0.0000000000
     79553     19293  TIP3      OH2           -14.2951901938       22.7710181979      -41.2296312365  TIP3      19101           0.0000000000
     79554     19293  TIP3      H1            -13.7808419282       22.1099144340      -41.7167201029  TIP3      19101           0.0000000000
     79555     19293  TIP3      H2            -13.6469347259       23.0453281981      -40.5555124811  TIP3      19101           0.0000000000
     79556     19294  TIP3      OH2            -9.2756311582       22.9888014751      -38.8033289815  TIP3      19102           0.0000000000
     79557     19294  TIP3      H1             -9.0219140749       22.4131970935      -38.0633989608  TIP3      19102           0.0000000000
     79558     19294  TIP3      H2             -9.2037627546       23.8560021193      -38.3468190457  TIP3      19102           0.0000000000
     79559     19295  TIP3      OH2           -15.0052719293       21.6177638261      -25.9572787016  TIP3      19103           0.0000000000
     79560     19295  TIP3      H1            -15.3897523991       20.8052536112      -25.5804222943  TIP3      19103           0.0000000000
     79561     19295  TIP3      H2            -14.0820550732       21.5561091767      -25.6344927328  TIP3      19103           0.0000000000
     79562     19296  TIP3      OH2           -13.0044763938       20.9468059847      -24.3259378265  TIP3      19104           0.0000000000
     79563     19296  TIP3      H1            -12.1228970167       20.6361659763      -24.6195069030  TIP3      19104           0.0000000000
     79564     19296  TIP3      H2            -13.3673805455       20.1345158364      -23.9581846403  TIP3      19104           0.0000000000
     79565     19297  TIP3      OH2            -4.5851367871       20.3080109367      -24.2381524912  TIP3      19105           0.0000000000
     79566     19297  TIP3      H1             -4.5230115531       19.8236688426      -23.4046848809  TIP3      19105           0.0000000000
     79567     19297  TIP3      H2             -3.6694103829       20.2325347875      -24.5637271500  TIP3      19105           0.0000000000
     79568     19298  TIP3      OH2            -1.6160043938      -36.7661594920      -25.3956163240  TIP3      19106           0.0000000000
     79569     19298  TIP3      H1             -2.2243698511      -36.8746579502      -26.1252838478  TIP3      19106           0.0000000000
     79570     19298  TIP3      H2             -1.4103335219      -35.8120533474      -25.3574317508  TIP3      19106           0.0000000000
     79571     19299  TIP3      OH2            13.0509395320       30.1647474164      -35.6048343181  TIP3      19107           0.0000000000
     79572     19299  TIP3      H1             13.0226556212       31.1498283097      -35.6013622506  TIP3      19107           0.0000000000
     79573     19299  TIP3      H2             12.3103557441       29.9479161039      -36.1917754179  TIP3      19107           0.0000000000
     79574     19300  TIP3      OH2            11.9036806296       29.4438210634      -32.0838395581  TIP3      19108           0.0000000000
     79575     19300  TIP3      H1             11.8891325947       28.7949815080      -31.3643400562  TIP3      19108           0.0000000000
     79576     19300  TIP3      H2             11.5524461261       28.9344836509      -32.8345946594  TIP3      19108           0.0000000000
     79577     19301  TIP3      OH2             4.2529696697       29.1234944892      -30.5275533276  TIP3      19109           0.0000000000
     79578     19301  TIP3      H1              4.3340847591       28.4368659594      -29.8328781476  TIP3      19109           0.0000000000
     79579     19301  TIP3      H2              5.0045829800       29.6926397225      -30.3090477854  TIP3      19109           0.0000000000
     79580     19302  TIP3      OH2            15.5799898293       32.3855412904      -33.7884566404  TIP3      19110           0.0000000000
     79581     19302  TIP3      H1             15.1816254597       31.6617627471      -33.2977810339  TIP3      19110           0.0000000000
     79582     19302  TIP3      H2             15.6226233465       33.0998956496      -33.1262105841  TIP3      19110           0.0000000000
     79583     19303  TIP3      OH2             5.1978977045       33.5748629550      -32.0006078564  TIP3      19111           0.0000000000
     79584     19303  TIP3      H1              4.8648849890       32.7183074586      -32.3388002434  TIP3      19111           0.0000000000
     79585     19303  TIP3      H2              6.1502600096       33.3817721830      -31.9956470726  TIP3      19111           0.0000000000
     79586     19304  TIP3      OH2             1.8176835346       27.1249768085      -36.5377618410  TIP3      19112           0.0000000000
     79587     19304  TIP3      H1              1.3821807396       27.9958696190      -36.6040562795  TIP3      19112           0.0000000000
     79588     19304  TIP3      H2              1.2566953838       26.5846843121      -37.1097067106  TIP3      19112           0.0000000000
     79589     19305  TIP3      OH2             2.5308752268       29.3513514732      -34.3903349028  TIP3      19113           0.0000000000
     79590     19305  TIP3      H1              2.8060713428       28.5297251659      -33.9412899915  TIP3      19113           0.0000000000
     79591     19305  TIP3      H2              3.2245768799       29.4585925275      -35.0588350543  TIP3      19113           0.0000000000
     79592     19306  TIP3      OH2            10.2592628483       31.8204405441      -31.5990178282  TIP3      19114           0.0000000000
     79593     19306  TIP3      H1             10.6116457197       31.2159236956      -32.2697932069  TIP3      19114           0.0000000000
     79594     19306  TIP3      H2             11.0745044255       32.0212135162      -31.1064703321  TIP3      19114           0.0000000000
     79595     19307  TIP3      OH2            18.8532891833       23.5394829562      -30.8942937190  TIP3      19115           0.0000000000
     79596     19307  TIP3      H1             19.0524592661       24.0905929867      -30.1123635675  TIP3      19115           0.0000000000
     79597     19307  TIP3      H2             19.4479972323       23.9153089715      -31.5482928427  TIP3      19115           0.0000000000
     79598     19308  TIP3      OH2            13.4435533019       26.3225644964      -31.2946380643  TIP3      19116           0.0000000000
     79599     19308  TIP3      H1             13.6117364480       25.3621089739      -31.2882477193  TIP3      19116           0.0000000000
     79600     19308  TIP3      H2             13.3401441954       26.4555549649      -32.2565480739  TIP3      19116           0.0000000000
     79601     19309  TIP3      OH2             6.5566779179       24.4039589689      -34.0830437523  TIP3      19117           0.0000000000
     79602     19309  TIP3      H1              6.6651613934       25.2377745312      -34.5762544523  TIP3      19117           0.0000000000
     79603     19309  TIP3      H2              6.1594230360       23.8292363808      -34.7723445926  TIP3      19117           0.0000000000
     79604     19310  TIP3      OH2            14.2928339724       24.4804142431      -35.7122158031  TIP3      19118           0.0000000000
     79605     19310  TIP3      H1             14.9433364514       24.1673895290      -35.0411798134  TIP3      19118           0.0000000000
     79606     19310  TIP3      H2             14.8591169212       25.0602143485      -36.2427691936  TIP3      19118           0.0000000000
     79607     19311  TIP3      OH2             3.1822060488       26.8137730035      -33.3484998483  TIP3      19119           0.0000000000
     79608     19311  TIP3      H1              3.8513778310       26.2696449407      -32.8932560526  TIP3      19119           0.0000000000
     79609     19311  TIP3      H2              3.2875900335       26.4990227216      -34.2595186700  TIP3      19119           0.0000000000
     79610     19312  TIP3      OH2             8.3382392665       28.3702997864      -34.0264993845  TIP3      19120           0.0000000000
     79611     19312  TIP3      H1              9.0117455878       27.7885875271      -33.6341771132  TIP3      19120           0.0000000000
     79612     19312  TIP3      H2              7.8246898811       27.7141817418      -34.5376481499  TIP3      19120           0.0000000000
     79613     19313  TIP3      OH2            19.3458342967       24.9354156948      -28.6190316202  TIP3      19121           0.0000000000
     79614     19313  TIP3      H1             18.7039031498       25.6700125509      -28.7098882780  TIP3      19121           0.0000000000
     79615     19313  TIP3      H2             19.3467842550       24.7962742920      -27.6670055641  TIP3      19121           0.0000000000
     79616     19314  TIP3      OH2             5.4626839378       23.3042850343      -30.0511516241  TIP3      19122           0.0000000000
     79617     19314  TIP3      H1              5.1806399082       23.8798670859      -30.7929022678  TIP3      19122           0.0000000000
     79618     19314  TIP3      H2              4.7943580763       23.5283543709      -29.3591905515  TIP3      19122           0.0000000000
     79619     19315  TIP3      OH2            12.7418490108       32.7582066432      -36.4953479775  TIP3      19123           0.0000000000
     79620     19315  TIP3      H1             12.5022370274       32.5206592451      -37.3993420626  TIP3      19123           0.0000000000
     79621     19315  TIP3      H2             12.4490074252       33.6906524712      -36.4294823878  TIP3      19123           0.0000000000
     79622     19316  TIP3      OH2             7.9731776374       30.9196033803      -29.8055742452  TIP3      19124           0.0000000000
     79623     19316  TIP3      H1              7.2768985556       31.5687711383      -29.5685030745  TIP3      19124           0.0000000000
     79624     19316  TIP3      H2              8.6850009568       31.5169944853      -30.0914907293  TIP3      19124           0.0000000000
     79625     19317  TIP3      OH2            16.0932007568       23.8462174092      -33.7275581140  TIP3      19125           0.0000000000
     79626     19317  TIP3      H1             15.8866066676       23.0685501395      -33.1973707689  TIP3      19125           0.0000000000
     79627     19317  TIP3      H2             16.7865083342       24.2517949989      -33.1799926062  TIP3      19125           0.0000000000
     79628     19318  TIP3      OH2             5.0338353092       25.1584822924      -32.0075931740  TIP3      19126           0.0000000000
     79629     19318  TIP3      H1              5.6628806369       25.8471181460      -31.6961192819  TIP3      19126           0.0000000000
     79630     19318  TIP3      H2              5.5496731297       24.7477103255      -32.7464565803  TIP3      19126           0.0000000000
     79631     19319  TIP3      OH2             6.4442811295       32.9424871062      -28.9900443113  TIP3      19127           0.0000000000
     79632     19319  TIP3      H1              6.3845682510       33.8487450152      -29.3361128412  TIP3      19127           0.0000000000
     79633     19319  TIP3      H2              5.5533547302       32.8652131476      -28.5660382226  TIP3      19127           0.0000000000
     79634     19320  TIP3      OH2             2.5019972381       32.6152398972      -38.1872020507  TIP3      19128           0.0000000000
     79635     19320  TIP3      H1              2.2417888792       32.9310547621      -39.0697357507  TIP3      19128           0.0000000000
     79636     19320  TIP3      H2              2.5869437306       33.4426182199      -37.6767170797  TIP3      19128           0.0000000000
     79637     19321  TIP3      OH2            16.1278478852       34.2472611348      -31.3810596333  TIP3      19129           0.0000000000
     79638     19321  TIP3      H1             15.1494298770       34.3316711796      -31.2858460969  TIP3      19129           0.0000000000
     79639     19321  TIP3      H2             16.4210295549       35.1366320694      -31.6408852522  TIP3      19129           0.0000000000
     79640     19322  TIP3      OH2            16.3793408273       22.6261489651      -29.9438830603  TIP3      19130           0.0000000000
     79641     19322  TIP3      H1             15.6666687516       23.2150063571      -30.1797380075  TIP3      19130           0.0000000000
     79642     19322  TIP3      H2             17.1271639399       22.8661259118      -30.5456358731  TIP3      19130           0.0000000000
     79643     19323  TIP3      OH2             9.4002857274       20.6384471833      -32.5938812746  TIP3      19131           0.0000000000
     79644     19323  TIP3      H1              9.2606191274       19.6731975886      -32.6441223382  TIP3      19131           0.0000000000
     79645     19323  TIP3      H2              8.5304453338       20.9426477752      -32.2615131568  TIP3      19131           0.0000000000
     79646     19324  TIP3      OH2            14.4091142703       35.7010957015      -35.0266193292  TIP3      19132           0.0000000000
     79647     19324  TIP3      H1             14.9789752192       35.0947440569      -35.5299203829  TIP3      19132           0.0000000000
     79648     19324  TIP3      H2             14.8031566024       36.5374980035      -35.2610791701  TIP3      19132           0.0000000000
     79649     19325  TIP3      OH2            15.6866341033       33.8181879935      -36.3412233966  TIP3      19133           0.0000000000
     79650     19325  TIP3      H1             15.2425422486       33.1938282556      -36.9259734973  TIP3      19133           0.0000000000
     79651     19325  TIP3      H2             15.6217385021       33.3934849804      -35.4657663780  TIP3      19133           0.0000000000
     79652     19326  TIP3      OH2            17.1520730602       32.5819716626      -27.8282170642  TIP3      19134           0.0000000000
     79653     19326  TIP3      H1             17.3831968248       31.8877311153      -28.4905357927  TIP3      19134           0.0000000000
     79654     19326  TIP3      H2             17.4764986521       33.3787293218      -28.2828358388  TIP3      19134           0.0000000000
     79655     19327  TIP3      OH2            11.7022480838       29.4217558050      -38.0691386841  TIP3      19135           0.0000000000
     79656     19327  TIP3      H1             11.0091256901       30.0015270510      -38.4281736222  TIP3      19135           0.0000000000
     79657     19327  TIP3      H2             12.4125639981       29.5207538237      -38.7319716096  TIP3      19135           0.0000000000
     79658     19328  TIP3      OH2            11.7832477996       27.9963190529      -41.0590175217  TIP3      19136           0.0000000000
     79659     19328  TIP3      H1             12.4883039968       27.9767438033      -40.3944388018  TIP3      19136           0.0000000000
     79660     19328  TIP3      H2             12.0895250772       27.2805325523      -41.6277409752  TIP3      19136           0.0000000000
     79661     19329  TIP3      OH2            19.0205467349       28.7885771522      -29.8904525173  TIP3      19137           0.0000000000
     79662     19329  TIP3      H1             18.4608771255       29.5785231231      -29.7319216524  TIP3      19137           0.0000000000
     79663     19329  TIP3      H2             19.5991720975       29.1017304143      -30.6050873827  TIP3      19137           0.0000000000
     79664     19330  TIP3      OH2            15.1864468049       29.6521379660      -37.1388606741  TIP3      19138           0.0000000000
     79665     19330  TIP3      H1             14.4156892729       29.8819311988      -36.5589279490  TIP3      19138           0.0000000000
     79666     19330  TIP3      H2             15.6135889679       28.9489121104      -36.6231347302  TIP3      19138           0.0000000000
     79667     19331  TIP3      OH2            15.0352827483       27.7938638175      -28.0131757114  TIP3      19139           0.0000000000
     79668     19331  TIP3      H1             15.0870181182       28.6174439976      -27.4970710597  TIP3      19139           0.0000000000
     79669     19331  TIP3      H2             14.4443531481       28.1011619710      -28.7270478529  TIP3      19139           0.0000000000
     79670     19332  TIP3      OH2             6.7620992428       30.2989329725      -35.2333448947  TIP3      19140           0.0000000000
     79671     19332  TIP3      H1              6.4411903303       29.9061855466      -36.0800222768  TIP3      19140           0.0000000000
     79672     19332  TIP3      H2              7.3754940327       29.6065724122      -34.8964388275  TIP3      19140           0.0000000000
     79673     19333  TIP3      OH2             8.0857247829       33.6996412783      -32.5622774421  TIP3      19141           0.0000000000
     79674     19333  TIP3      H1              8.0859737808       33.1540889132      -33.3565488431  TIP3      19141           0.0000000000
     79675     19333  TIP3      H2              8.8524617774       33.3335624676      -32.0821263136  TIP3      19141           0.0000000000
     79676     19334  TIP3      OH2             7.0879311613       29.0428644533      -31.5680542273  TIP3      19142           0.0000000000
     79677     19334  TIP3      H1              7.6389374400       29.1413652290      -32.3694455920  TIP3      19142           0.0000000000
     79678     19334  TIP3      H2              7.4802472688       29.7078602107      -30.9585438123  TIP3      19142           0.0000000000
     79679     19335  TIP3      OH2            13.5363323658       34.6190410137      -30.8425242185  TIP3      19143           0.0000000000
     79680     19335  TIP3      H1             13.1721446660       35.2401770497      -30.2222548950  TIP3      19143           0.0000000000
     79681     19335  TIP3      H2             13.2583217472       33.7554152269      -30.4482404458  TIP3      19143           0.0000000000
     79682     19336  TIP3      OH2             8.0409145742       33.4890930018      -26.8549984222  TIP3      19144           0.0000000000
     79683     19336  TIP3      H1              7.5990669537       34.2326795409      -26.3977250883  TIP3      19144           0.0000000000
     79684     19336  TIP3      H2              7.3810536260       33.2372632601      -27.5479579700  TIP3      19144           0.0000000000
     79685     19337  TIP3      OH2            14.0235398058       28.8395176392      -39.4794975916  TIP3      19145           0.0000000000
     79686     19337  TIP3      H1             14.5858066813       29.0085311272      -38.6848278440  TIP3      19145           0.0000000000
     79687     19337  TIP3      H2             14.4705369817       29.3258626196      -40.2084157199  TIP3      19145           0.0000000000
     79688     19338  TIP3      OH2             4.9724590311       29.6323628543      -27.6871515298  TIP3      19146           0.0000000000
     79689     19338  TIP3      H1              5.0160560965       30.3069863223      -26.9847674814  TIP3      19146           0.0000000000
     79690     19338  TIP3      H2              4.0435023549       29.7278629483      -27.9532322806  TIP3      19146           0.0000000000
     79691     19339  TIP3      OH2            11.6960018928       35.5301968635      -36.0009787497  TIP3      19147           0.0000000000
     79692     19339  TIP3      H1             12.1900764574       35.8509280130      -35.2395397114  TIP3      19147           0.0000000000
     79693     19339  TIP3      H2             11.1869130442       36.3002962732      -36.2718607625  TIP3      19147           0.0000000000
     79694     19340  TIP3      OH2             6.2304951123       35.4045374402      -26.1374263513  TIP3      19148           0.0000000000
     79695     19340  TIP3      H1              6.1829405158       35.4078295893      -27.1167966462  TIP3      19148           0.0000000000
     79696     19340  TIP3      H2              5.2884607172       35.3514410706      -25.8775330192  TIP3      19148           0.0000000000
     79697     19341  TIP3      OH2            17.7515250974       20.5704559602      -39.5759292242  TIP3      19149           0.0000000000
     79698     19341  TIP3      H1             16.8053127072       20.6841582531      -39.3303426345  TIP3      19149           0.0000000000
     79699     19341  TIP3      H2             17.9528441382       21.4107462943      -40.0214113912  TIP3      19149           0.0000000000
     79700     19342  TIP3      OH2             5.7220041621       29.3154493303      -37.5983883342  TIP3      19150           0.0000000000
     79701     19342  TIP3      H1              5.4448917560       30.1001498345      -38.1184899774  TIP3      19150           0.0000000000
     79702     19342  TIP3      H2              5.0760686244       28.6503840932      -37.8472179563  TIP3      19150           0.0000000000
     79703     19343  TIP3      OH2            18.9176635874       34.8821755935      -41.2064618627  TIP3      19151           0.0000000000
     79704     19343  TIP3      H1             18.9899431949       35.8484124360      -41.0885320260  TIP3      19151           0.0000000000
     79705     19343  TIP3      H2             19.8529035065       34.6334241955      -41.2411611921  TIP3      19151           0.0000000000
     79706     19344  TIP3      OH2             1.8168781227       31.7511790379      -28.7278507450  TIP3      19152           0.0000000000
     79707     19344  TIP3      H1              1.3749707846       31.6580221247      -29.5895325981  TIP3      19152           0.0000000000
     79708     19344  TIP3      H2              1.8994059862       30.8084299910      -28.4893752944  TIP3      19152           0.0000000000
     79709     19345  TIP3      OH2             1.6115620454       34.4427572459      -31.9015943808  TIP3      19153           0.0000000000
     79710     19345  TIP3      H1              2.5673177861       34.3947272565      -31.9827971736  TIP3      19153           0.0000000000
     79711     19345  TIP3      H2              1.5171349057       35.2727633521      -31.4100481766  TIP3      19153           0.0000000000
     79712     19346  TIP3      OH2            19.7794243913       35.1976558326      -26.1666460361  TIP3      19154           0.0000000000
     79713     19346  TIP3      H1             19.7113471937       34.2323166990      -26.3118331136  TIP3      19154           0.0000000000
     79714     19346  TIP3      H2             18.8901286029       35.4415835423      -25.8455932212  TIP3      19154           0.0000000000
     79715     19347  TIP3      OH2            10.7613354226       34.7622022938      -27.4171767908  TIP3      19155           0.0000000000
     79716     19347  TIP3      H1             10.8611595635       35.5519253270      -26.8796545631  TIP3      19155           0.0000000000
     79717     19347  TIP3      H2              9.9259007448       34.3427197333      -27.1311171333  TIP3      19155           0.0000000000
     79718     19348  TIP3      OH2            16.9419123869       26.6519382649      -25.7980824358  TIP3      19156           0.0000000000
     79719     19348  TIP3      H1             16.4968260013       27.1174595457      -26.5172955682  TIP3      19156           0.0000000000
     79720     19348  TIP3      H2             16.9743446674       25.7304210586      -26.0952390793  TIP3      19156           0.0000000000
     79721     19349  TIP3      OH2             4.1176232114       33.0695455240      -27.7784749967  TIP3      19157           0.0000000000
     79722     19349  TIP3      H1              4.3029852706       32.7126292765      -26.8838805127  TIP3      19157           0.0000000000
     79723     19349  TIP3      H2              3.2433984968       32.6857816899      -28.0068258840  TIP3      19157           0.0000000000
     79724     19350  TIP3      OH2             6.7859800174       21.5507473661      -31.8508738673  TIP3      19158           0.0000000000
     79725     19350  TIP3      H1              5.8773697934       21.4171242399      -32.1964619775  TIP3      19158           0.0000000000
     79726     19350  TIP3      H2              6.6546505926       22.3630903441      -31.3336440125  TIP3      19158           0.0000000000
     79727     19351  TIP3      OH2            11.4182477891       21.2336724855      -28.4376035875  TIP3      19159           0.0000000000
     79728     19351  TIP3      H1             11.8232622060       20.7838874280      -27.6771001583  TIP3      19159           0.0000000000
     79729     19351  TIP3      H2             10.4472635352       21.0831357569      -28.3054528963  TIP3      19159           0.0000000000
     79730     19352  TIP3      OH2            14.6617634235       25.0407585241      -27.6057639636  TIP3      19160           0.0000000000
     79731     19352  TIP3      H1             14.1663970221       24.8523936292      -26.7739069775  TIP3      19160           0.0000000000
     79732     19352  TIP3      H2             14.5675280742       25.9973465096      -27.7631949897  TIP3      19160           0.0000000000
     79733     19353  TIP3      OH2            15.4694396715       29.8667627888      -41.6718844618  TIP3      19161           0.0000000000
     79734     19353  TIP3      H1             15.4501710672       29.6763574213      -42.6378007824  TIP3      19161           0.0000000000
     79735     19353  TIP3      H2             16.3231555517       30.3162851555      -41.6233515067  TIP3      19161           0.0000000000
     79736     19354  TIP3      OH2            11.0718775434       23.7939359532      -41.1558523170  TIP3      19162           0.0000000000
     79737     19354  TIP3      H1             10.7570832019       23.7302275117      -40.2357406157  TIP3      19162           0.0000000000
     79738     19354  TIP3      H2             10.7660360536       22.9162838393      -41.4606806510  TIP3      19162           0.0000000000
     79739     19355  TIP3      OH2             6.8888588819       26.5147875596      -30.5748400878  TIP3      19163           0.0000000000
     79740     19355  TIP3      H1              6.1615961927       26.5018543129      -29.9279124742  TIP3      19163           0.0000000000
     79741     19355  TIP3      H2              6.8400170355       27.4250075165      -30.9470187018  TIP3      19163           0.0000000000
     79742     19356  TIP3      OH2             6.8512283853       26.6275770848      -35.7081400525  TIP3      19164           0.0000000000
     79743     19356  TIP3      H1              5.9125822797       26.3784022402      -35.8394925083  TIP3      19164           0.0000000000
     79744     19356  TIP3      H2              7.2267237550       26.3380401560      -36.5619249028  TIP3      19164           0.0000000000
     79745     19357  TIP3      OH2            12.3691700815       27.1333943523      -36.9304389189  TIP3      19165           0.0000000000
     79746     19357  TIP3      H1             11.9763041854       27.9562226076      -37.3032028476  TIP3      19165           0.0000000000
     79747     19357  TIP3      H2             13.0558551731       26.9634665675      -37.5964773143  TIP3      19165           0.0000000000
     79748     19358  TIP3      OH2            13.4057872473       26.6253261101      -34.0934326131  TIP3      19166           0.0000000000
     79749     19358  TIP3      H1             13.1195132972       27.1869309453      -34.8328113770  TIP3      19166           0.0000000000
     79750     19358  TIP3      H2             13.4989096892       25.7739508352      -34.5614129319  TIP3      19166           0.0000000000
     79751     19359  TIP3      OH2             4.5156201153       26.7668335036      -28.8856435153  TIP3      19167           0.0000000000
     79752     19359  TIP3      H1              4.5998874909       27.1826738946      -28.0076496133  TIP3      19167           0.0000000000
     79753     19359  TIP3      H2              4.0717311811       25.9282244342      -28.6766103420  TIP3      19167           0.0000000000
     79754     19360  TIP3      OH2             7.8826859280       24.1595313300      -42.0382533143  TIP3      19168           0.0000000000
     79755     19360  TIP3      H1              7.4286843431       23.7383023063      -41.2802342768  TIP3      19168           0.0000000000
     79756     19360  TIP3      H2              7.1729894136       24.5911875862      -42.5294765727  TIP3      19168           0.0000000000
     79757     19361  TIP3      OH2             1.1696614844       23.8715614785      -34.9035877409  TIP3      19169           0.0000000000
     79758     19361  TIP3      H1              1.8542512291       23.8321574914      -34.2032948136  TIP3      19169           0.0000000000
     79759     19361  TIP3      H2              1.6171983221       23.4978928959      -35.6847656169  TIP3      19169           0.0000000000
     79760     19362  TIP3      OH2             2.4330373209       24.5901663337      -39.5588452176  TIP3      19170           0.0000000000
     79761     19362  TIP3      H1              2.9472879761       25.2026429430      -40.1157186817  TIP3      19170           0.0000000000
     79762     19362  TIP3      H2              1.7468249299       25.2136365167      -39.2377207833  TIP3      19170           0.0000000000
     79763     19363  TIP3      OH2            12.5922430257       28.2082362495      -29.5441282090  TIP3      19171           0.0000000000
     79764     19363  TIP3      H1             12.9862110706       27.5228635569      -30.1258643185  TIP3      19171           0.0000000000
     79765     19363  TIP3      H2             12.1329959073       27.6680642300      -28.8850148957  TIP3      19171           0.0000000000
     79766     19364  TIP3      OH2             9.4032899245       24.1893092712      -34.6988822869  TIP3      19172           0.0000000000
     79767     19364  TIP3      H1              8.4693165331       24.1878156019      -34.4092802177  TIP3      19172           0.0000000000
     79768     19364  TIP3      H2              9.8866598162       24.0123484576      -33.8788293037  TIP3      19172           0.0000000000
     79769     19365  TIP3      OH2             4.2138760762       25.7327237913      -35.8335066237  TIP3      19173           0.0000000000
     79770     19365  TIP3      H1              3.3301371680       25.8888000023      -36.2260780641  TIP3      19173           0.0000000000
     79771     19365  TIP3      H2              4.5003573960       24.8938382193      -36.2335472201  TIP3      19173           0.0000000000
     79772     19366  TIP3      OH2             7.8569310975       25.7811234268      -38.2084284747  TIP3      19174           0.0000000000
     79773     19366  TIP3      H1              8.8127880887       25.8924386399      -38.0474848099  TIP3      19174           0.0000000000
     79774     19366  TIP3      H2              7.6197395480       26.4642676137      -38.8635147210  TIP3      19174           0.0000000000
     79775     19367  TIP3      OH2            13.8080038864       23.4275096186      -31.4716327953  TIP3      19175           0.0000000000
     79776     19367  TIP3      H1             13.1277992230       23.4682202667      -30.7630531317  TIP3      19175           0.0000000000
     79777     19367  TIP3      H2             13.3078159359       23.1474202115      -32.2496733745  TIP3      19175           0.0000000000
     79778     19368  TIP3      OH2             6.5632198163       26.9579050908      -40.6187321286  TIP3      19176           0.0000000000
     79779     19368  TIP3      H1              6.0317135657       26.5703819318      -41.3347196525  TIP3      19176           0.0000000000
     79780     19368  TIP3      H2              7.3831665144       27.1653600597      -41.0934786323  TIP3      19176           0.0000000000
     79781     19369  TIP3      OH2             4.6470557657       31.5686962668      -25.5427919151  TIP3      19177           0.0000000000
     79782     19369  TIP3      H1              5.3946528708       31.7979472252      -24.9742202850  TIP3      19177           0.0000000000
     79783     19369  TIP3      H2              3.8796298887       31.6069056794      -24.9506506269  TIP3      19177           0.0000000000
     79784     19370  TIP3      OH2            10.6842319362       26.9401114126      -32.8091626435  TIP3      19178           0.0000000000
     79785     19370  TIP3      H1             11.2829778896       26.4043799960      -33.3424540505  TIP3      19178           0.0000000000
     79786     19370  TIP3      H2             10.5402926759       26.3913655965      -32.0266562163  TIP3      19178           0.0000000000
     79787     19371  TIP3      OH2             5.6963380260       23.0853503838      -36.3734391669  TIP3      19179           0.0000000000
     79788     19371  TIP3      H1              5.3870377464       22.1611806156      -36.3805767354  TIP3      19179           0.0000000000
     79789     19371  TIP3      H2              6.4871320440       23.0173072663      -36.9221940270  TIP3      19179           0.0000000000
     79790     19372  TIP3      OH2             9.3234870509       25.2663379053      -30.3881505116  TIP3      19180           0.0000000000
     79791     19372  TIP3      H1              8.4962053150       25.7838090726      -30.3178189567  TIP3      19180           0.0000000000
     79792     19372  TIP3      H2              9.8793551494       25.6203252858      -29.6717882208  TIP3      19180           0.0000000000
     79793     19373  TIP3      OH2             9.9085869669       31.4739657905      -38.6902930209  TIP3      19181           0.0000000000
     79794     19373  TIP3      H1              9.1085434699       31.0133051558      -39.0271944743  TIP3      19181           0.0000000000
     79795     19373  TIP3      H2              9.6857630896       31.6016406056      -37.7476533747  TIP3      19181           0.0000000000
     79796     19374  TIP3      OH2            17.0765055355       30.6859837874      -29.9106055516  TIP3      19182           0.0000000000
     79797     19374  TIP3      H1             17.6707607876       31.1811406060      -30.5060948147  TIP3      19182           0.0000000000
     79798     19374  TIP3      H2             16.2275496968       30.7515493572      -30.3858883661  TIP3      19182           0.0000000000
     79799     19375  TIP3      OH2            13.7408156331       24.3038794490      -40.5208581404  TIP3      19183           0.0000000000
     79800     19375  TIP3      H1             12.7906460057       24.4582872170      -40.6584934740  TIP3      19183           0.0000000000
     79801     19375  TIP3      H2             14.0832413039       25.1556051042      -40.1734854124  TIP3      19183           0.0000000000
     79802     19376  TIP3      OH2            11.3807405977       31.7923494978      -27.5023365942  TIP3      19184           0.0000000000
     79803     19376  TIP3      H1             11.0627230131       31.3425054908      -26.7061171550  TIP3      19184           0.0000000000
     79804     19376  TIP3      H2             11.1451334795       32.7076247308      -27.3300645162  TIP3      19184           0.0000000000
     79805     19377  TIP3      OH2            14.4883172631       26.2330249391      -38.9044301286  TIP3      19185           0.0000000000
     79806     19377  TIP3      H1             15.3674416717       26.0907598083      -38.4893853680  TIP3      19185           0.0000000000
     79807     19377  TIP3      H2             14.5986316062       27.0586466073      -39.4067907881  TIP3      19185           0.0000000000
     79808     19378  TIP3      OH2             5.0190858270       30.8821237194      -32.8990515737  TIP3      19186           0.0000000000
     79809     19378  TIP3      H1              5.7063984148       30.8121602573      -33.5925392027  TIP3      19186           0.0000000000
     79810     19378  TIP3      H2              5.0846783453       30.0240585267      -32.4431471451  TIP3      19186           0.0000000000
     79811     19379  TIP3      OH2            12.0023522667       32.9398819732      -39.6730328387  TIP3      19187           0.0000000000
     79812     19379  TIP3      H1             11.6757986768       33.7984445690      -39.3366936796  TIP3      19187           0.0000000000
     79813     19379  TIP3      H2             11.2724328818       32.3371607292      -39.4326865144  TIP3      19187           0.0000000000
     79814     19380  TIP3      OH2             2.0258211401       29.2775557326      -27.6473223847  TIP3      19188           0.0000000000
     79815     19380  TIP3      H1              2.1781695847       28.8741022302      -26.7709444900  TIP3      19188           0.0000000000
     79816     19380  TIP3      H2              1.3863754115       28.6716671559      -28.0575250903  TIP3      19188           0.0000000000
     79817     19381  TIP3      OH2             9.0123873646       28.8042892698      -25.4494402203  TIP3      19189           0.0000000000
     79818     19381  TIP3      H1              8.7024665483       28.5539212631      -26.3321492805  TIP3      19189           0.0000000000
     79819     19381  TIP3      H2              9.9499175422       28.6151815228      -25.4750863802  TIP3      19189           0.0000000000
     79820     19382  TIP3      OH2            13.7063191167       34.2456661322      -27.5798290987  TIP3      19190           0.0000000000
     79821     19382  TIP3      H1             12.7624055030       34.3061914165      -27.7575709475  TIP3      19190           0.0000000000
     79822     19382  TIP3      H2             13.6738130890       34.4201212794      -26.6077003494  TIP3      19190           0.0000000000
     79823     19383  TIP3      OH2            19.3830739902       26.3573709738      -39.1186681320  TIP3      19191           0.0000000000
     79824     19383  TIP3      H1             18.8148373209       26.0516572716      -39.8539004964  TIP3      19191           0.0000000000
     79825     19383  TIP3      H2             19.4496961214       27.2937998107      -39.3935474787  TIP3      19191           0.0000000000
     79826     19384  TIP3      OH2            19.3942637096       32.2137441140      -26.2899703020  TIP3      19192           0.0000000000
     79827     19384  TIP3      H1             18.5148145058       32.4245531941      -26.6716806511  TIP3      19192           0.0000000000
     79828     19384  TIP3      H2             19.9035307929       32.1243426461      -27.1243903052  TIP3      19192           0.0000000000
     79829     19385  TIP3      OH2            17.9005514882       34.8662399973      -38.5194152958  TIP3      19193           0.0000000000
     79830     19385  TIP3      H1             17.1920398420       34.2480579326      -38.3944615686  TIP3      19193           0.0000000000
     79831     19385  TIP3      H2             17.9032276143       35.0554847319      -39.4793344285  TIP3      19193           0.0000000000
     79832     19386  TIP3      OH2            14.8758088099       30.0035775521      -31.6102180379  TIP3      19194           0.0000000000
     79833     19386  TIP3      H1             13.9365159921       29.7954144225      -31.7304089630  TIP3      19194           0.0000000000
     79834     19386  TIP3      H2             15.3071448560       29.2477434657      -32.0512074089  TIP3      19194           0.0000000000
     79835     19387  TIP3      OH2             7.4367753285       34.3032069782      -35.6049911396  TIP3      19195           0.0000000000
     79836     19387  TIP3      H1              7.8977860111       35.1466046424      -35.6821723412  TIP3      19195           0.0000000000
     79837     19387  TIP3      H2              6.5220348134       34.5386255934      -35.7995842479  TIP3      19195           0.0000000000
     79838     19388  TIP3      OH2             3.1636045468       29.1758653917      -40.9434133016  TIP3      19196           0.0000000000
     79839     19388  TIP3      H1              3.7436107938       29.8322153660      -40.5229076563  TIP3      19196           0.0000000000
     79840     19388  TIP3      H2              2.2735325533       29.4906678595      -40.6946749959  TIP3      19196           0.0000000000
     79841     19389  TIP3      OH2             8.8334176954       31.9924698565      -35.9956772094  TIP3      19197           0.0000000000
     79842     19389  TIP3      H1              8.5151505989       32.9134154530      -35.9069769463  TIP3      19197           0.0000000000
     79843     19389  TIP3      H2              8.1035507688       31.5115318825      -35.5559054874  TIP3      19197           0.0000000000
     79844     19390  TIP3      OH2             9.5671669841       35.8696316256      -29.9050610398  TIP3      19198           0.0000000000
     79845     19390  TIP3      H1              9.7150208319       36.8208191962      -29.9741615963  TIP3      19198           0.0000000000
     79846     19390  TIP3      H2              9.8843659367       35.7135031966      -29.0037632775  TIP3      19198           0.0000000000
     79847     19391  TIP3      OH2            12.7956116811       32.1917646559      -29.9728027892  TIP3      19199           0.0000000000
     79848     19391  TIP3      H1             12.4449090135       31.9772669596      -29.0861597872  TIP3      19199           0.0000000000
     79849     19391  TIP3      H2             13.4237960082       31.4741970793      -30.1395689512  TIP3      19199           0.0000000000
     79850     19392  TIP3      OH2            15.1210708345       33.2406600080      -40.8935170917  TIP3      19200           0.0000000000
     79851     19392  TIP3      H1             15.4153147790       32.8019936423      -40.0685116718  TIP3      19200           0.0000000000
     79852     19392  TIP3      H2             14.1640172197       33.0889917365      -40.8014396438  TIP3      19200           0.0000000000
     79853     19393  TIP3      OH2             3.6644102215       24.0243650065      -28.0847887390  TIP3      19201           0.0000000000
     79854     19393  TIP3      H1              2.7572350420       24.3737890557      -28.1105049301  TIP3      19201           0.0000000000
     79855     19393  TIP3      H2              3.5519055401       23.1760597546      -27.6286458483  TIP3      19201           0.0000000000
     79856     19394  TIP3      OH2            15.8919801764       31.8376972326      -38.6587280985  TIP3      19202           0.0000000000
     79857     19394  TIP3      H1             15.6355865460       31.0906275466      -38.0783580029  TIP3      19202           0.0000000000
     79858     19394  TIP3      H2             16.8295637530       31.9441681723      -38.4469681288  TIP3      19202           0.0000000000
     79859     19395  TIP3      OH2             3.2756708622       35.7699210568      -29.6729111482  TIP3      19203           0.0000000000
     79860     19395  TIP3      H1              3.5715002716       34.8577324217      -29.6296189659  TIP3      19203           0.0000000000
     79861     19395  TIP3      H2              3.4792046282       36.1149953276      -28.7913018909  TIP3      19203           0.0000000000
     79862     19396  TIP3      OH2             9.2541289754       34.3155436407      -42.4013947079  TIP3      19204           0.0000000000
     79863     19396  TIP3      H1              9.3418256880       33.5400038486      -42.9780840669  TIP3      19204           0.0000000000
     79864     19396  TIP3      H2              8.8290829509       33.8962025325      -41.6208714980  TIP3      19204           0.0000000000
     79865     19397  TIP3      OH2             8.0050926198       33.8189420906      -39.9424180027  TIP3      19205           0.0000000000
     79866     19397  TIP3      H1              8.2832271824       33.3286216065      -39.1573454625  TIP3      19205           0.0000000000
     79867     19397  TIP3      H2              8.1286799483       34.7539296011      -39.6670480474  TIP3      19205           0.0000000000
     79868     19398  TIP3      OH2             4.5652771305       31.1124092665      -39.4451360527  TIP3      19206           0.0000000000
     79869     19398  TIP3      H1              3.8500517420       31.5097188276      -38.9113120569  TIP3      19206           0.0000000000
     79870     19398  TIP3      H2              5.0683884575       31.8945064121      -39.7380652997  TIP3      19206           0.0000000000
     79871     19399  TIP3      OH2            12.3878773159       23.8022534277      -29.1225156565  TIP3      19207           0.0000000000
     79872     19399  TIP3      H1             13.1133245622       23.8288753106      -28.4875630072  TIP3      19207           0.0000000000
     79873     19399  TIP3      H2             12.0127433803       22.9167855081      -28.9521497291  TIP3      19207           0.0000000000
     79874     19400  TIP3      OH2            13.1381304362       23.3619926417      -38.0397180101  TIP3      19208           0.0000000000
     79875     19400  TIP3      H1             13.3699687910       23.8260211727      -38.8688910023  TIP3      19208           0.0000000000
     79876     19400  TIP3      H2             13.7158004591       23.8060115732      -37.4059637008  TIP3      19208           0.0000000000
     79877     19401  TIP3      OH2            10.8725158033       35.5568119610      -39.2107168881  TIP3      19209           0.0000000000
     79878     19401  TIP3      H1             10.0198279712       36.0289379383      -39.1656945849  TIP3      19209           0.0000000000
     79879     19401  TIP3      H2             11.3402043304       36.0633066203      -39.8916024946  TIP3      19209           0.0000000000
     79880     19402  TIP3      OH2            10.3716276920       25.1159840800      -37.2191924705  TIP3      19210           0.0000000000
     79881     19402  TIP3      H1             11.1540168660       25.6994662469      -37.1723372314  TIP3      19210           0.0000000000
     79882     19402  TIP3      H2             10.1062117091       24.9970793007      -36.2881857721  TIP3      19210           0.0000000000
     79883     19403  TIP3      OH2            10.9392581592       26.1369216386      -28.0752345370  TIP3      19211           0.0000000000
     79884     19403  TIP3      H1             10.9780141623       26.6962017524      -27.2911193212  TIP3      19211           0.0000000000
     79885     19403  TIP3      H2             11.5918526607       25.4321524530      -27.9542449678  TIP3      19211           0.0000000000
     79886     19404  TIP3      OH2            11.2107148918       22.1750750110      -36.3442283901  TIP3      19212           0.0000000000
     79887     19404  TIP3      H1             10.8952682549       22.8202260640      -35.6873374382  TIP3      19212           0.0000000000
     79888     19404  TIP3      H2             11.9114669621       22.7187828352      -36.7789921221  TIP3      19212           0.0000000000
     79889     19405  TIP3      OH2             8.2776638826      -36.4682479801      -39.1789132006  TIP3      19213           0.0000000000
     79890     19405  TIP3      H1              8.3044488711      -35.6786881304      -39.7536286128  TIP3      19213           0.0000000000
     79891     19405  TIP3      H2              7.9850166747      -36.0970679198      -38.3314997820  TIP3      19213           0.0000000000
     79892     19406  TIP3      OH2             6.8762660687       23.2793643306      -39.6265863503  TIP3      19214           0.0000000000
     79893     19406  TIP3      H1              6.8263962904       24.1777819315      -39.2422922607  TIP3      19214           0.0000000000
     79894     19406  TIP3      H2              7.7856472612       23.0351343428      -39.3637570233  TIP3      19214           0.0000000000
     79895     19407  TIP3      OH2            17.0976710932       24.0469303199      -27.1558492475  TIP3      19215           0.0000000000
     79896     19407  TIP3      H1             16.1613964602       24.3023124430      -27.3204998877  TIP3      19215           0.0000000000
     79897     19407  TIP3      H2             17.4061516475       23.9839215759      -28.0794368266  TIP3      19215           0.0000000000
     79898     19408  TIP3      OH2            15.7164142839       27.7961139490      -33.1889810589  TIP3      19216           0.0000000000
     79899     19408  TIP3      H1             14.8897679800       27.3497994225      -33.4462436351  TIP3      19216           0.0000000000
     79900     19408  TIP3      H2             16.1895163854       27.1168709900      -32.6529506583  TIP3      19216           0.0000000000
     79901     19409  TIP3      OH2             5.1279508758       33.7197478182      -40.5861022462  TIP3      19217           0.0000000000
     79902     19409  TIP3      H1              5.8001248207       34.3581257395      -40.3079586497  TIP3      19217           0.0000000000
     79903     19409  TIP3      H2              5.6365154981       33.2470601477      -41.2707224717  TIP3      19217           0.0000000000
     79904     19410  TIP3      OH2             3.4532325004       26.3952096666      -41.4420696198  TIP3      19218           0.0000000000
     79905     19410  TIP3      H1              3.4720115837       27.3529248449      -41.2331109942  TIP3      19218           0.0000000000
     79906     19410  TIP3      H2              2.5617012657       26.2211648176      -41.7482192283  TIP3      19218           0.0000000000
     79907     19411  TIP3      OH2             4.2674779075       21.1797185471      -32.6950877995  TIP3      19219           0.0000000000
     79908     19411  TIP3      H1              4.0766873815       21.1969978412      -33.6592220308  TIP3      19219           0.0000000000
     79909     19411  TIP3      H2              3.8557482129       20.3259670909      -32.4453682241  TIP3      19219           0.0000000000
     79910     19412  TIP3      OH2             3.2350327374       35.1052263338      -36.5801554397  TIP3      19220           0.0000000000
     79911     19412  TIP3      H1              2.3667258711       35.5289098429      -36.5872058925  TIP3      19220           0.0000000000
     79912     19412  TIP3      H2              3.7278603550       35.5908012769      -37.2474092748  TIP3      19220           0.0000000000
     79913     19413  TIP3      OH2             7.3977301059       36.3477763615      -23.4120339928  TIP3      19221           0.0000000000
     79914     19413  TIP3      H1              8.2397898816       35.9348788530      -23.2506356652  TIP3      19221           0.0000000000
     79915     19413  TIP3      H2              7.2961894961       36.2114623618      -24.3821002526  TIP3      19221           0.0000000000
     79916     19414  TIP3      OH2            11.2731192414       36.1153139734      -42.1522573905  TIP3      19222           0.0000000000
     79917     19414  TIP3      H1             10.5276488663       35.4921922581      -42.0721578055  TIP3      19222           0.0000000000
     79918     19414  TIP3      H2             11.9739964993       35.5831438009      -42.5293052192  TIP3      19222           0.0000000000
     79919     19415  TIP3      OH2            13.6956070249       34.6785401573      -25.0473305246  TIP3      19223           0.0000000000
     79920     19415  TIP3      H1             13.2582501344       34.0038900496      -24.5241614491  TIP3      19223           0.0000000000
     79921     19415  TIP3      H2             14.3028862194       35.1084402795      -24.4192861576  TIP3      19223           0.0000000000
     79922     19416  TIP3      OH2            15.9510375047       35.8757138403      -41.9351725141  TIP3      19224           0.0000000000
     79923     19416  TIP3      H1             16.2185895114       35.0390013879      -41.5417464326  TIP3      19224           0.0000000000
     79924     19416  TIP3      H2             16.6709039682       36.0924858878      -42.5602561586  TIP3      19224           0.0000000000
     79925     19417  TIP3      OH2             6.6907902811       31.8520378798      -42.2555412747  TIP3      19225           0.0000000000
     79926     19417  TIP3      H1              6.8388743865       31.0955405737      -41.6635458609  TIP3      19225           0.0000000000
     79927     19417  TIP3      H2              7.4441343288       31.7432811217      -42.8680340069  TIP3      19225           0.0000000000
     79928     19418  TIP3      OH2             9.0701833622       31.4932684045      -24.9405944553  TIP3      19226           0.0000000000
     79929     19418  TIP3      H1              8.7058202334       31.8301405025      -25.7688406298  TIP3      19226           0.0000000000
     79930     19418  TIP3      H2              9.1166915562       30.5209086290      -25.0154715553  TIP3      19226           0.0000000000
     79931     19419  TIP3      OH2            12.1288574208       32.9982857137      -42.4810636862  TIP3      19227           0.0000000000
     79932     19419  TIP3      H1             11.8318194298       33.0832622135      -41.5605543288  TIP3      19227           0.0000000000
     79933     19419  TIP3      H2             11.9357572006       32.0435054600      -42.6213685102  TIP3      19227           0.0000000000
     79934     19420  TIP3      OH2            14.7436211021       31.3818051676      -27.4477135541  TIP3      19228           0.0000000000
     79935     19420  TIP3      H1             15.5399201289       31.9418877184      -27.6005659559  TIP3      19228           0.0000000000
     79936     19420  TIP3      H2             14.0534845715       32.0542941940      -27.4598668923  TIP3      19228           0.0000000000
     79937     19421  TIP3      OH2             3.3011001637       28.7698413519      -24.8678192337  TIP3      19229           0.0000000000
     79938     19421  TIP3      H1              3.6538693282       27.8833939628      -24.9988212418  TIP3      19229           0.0000000000
     79939     19421  TIP3      H2              2.9269994288       28.7482758758      -23.9923598476  TIP3      19229           0.0000000000
     79940     19422  TIP3      OH2             7.8946461344       29.8866116984      -39.8232765572  TIP3      19230           0.0000000000
     79941     19422  TIP3      H1              7.3899707694       29.3475919480      -39.1961332649  TIP3      19230           0.0000000000
     79942     19422  TIP3      H2              8.1919882077       29.2139457400      -40.4795343417  TIP3      19230           0.0000000000
     79943     19423  TIP3      OH2             7.1770348644       27.7146584968      -27.5158167064  TIP3      19231           0.0000000000
     79944     19423  TIP3      H1              6.5474245778       28.4151612422      -27.2814199607  TIP3      19231           0.0000000000
     79945     19423  TIP3      H2              7.5446485087       28.0638843153      -28.3455221924  TIP3      19231           0.0000000000
     79946     19424  TIP3      OH2             8.9705263977       28.1105775133      -41.6259247830  TIP3      19232           0.0000000000
     79947     19424  TIP3      H1              8.8191422788       28.0203319245      -42.5889027292  TIP3      19232           0.0000000000
     79948     19424  TIP3      H2              9.9467281136       28.1623526166      -41.5598619818  TIP3      19232           0.0000000000
     79949     19425  TIP3      OH2            12.2497427724       30.2024003531      -24.2627884238  TIP3      19233           0.0000000000
     79950     19425  TIP3      H1             13.2059147380       30.2736773003      -24.3338905940  TIP3      19233           0.0000000000
     79951     19425  TIP3      H2             12.0578375434       29.5430838167      -23.6061924385  TIP3      19233           0.0000000000
     79952     19426  TIP3      OH2            18.3266932891       30.4260153844      -42.2042222874  TIP3      19234           0.0000000000
     79953     19426  TIP3      H1             18.1119043970       30.0452652845      -43.0704382196  TIP3      19234           0.0000000000
     79954     19426  TIP3      H2             18.3707378873       31.3921054620      -42.4070669626  TIP3      19234           0.0000000000
     79955     19427  TIP3      OH2             7.5688547902       25.0896402185      -26.4966125707  TIP3      19235           0.0000000000
     79956     19427  TIP3      H1              7.6626670345       24.3769400692      -27.1532391101  TIP3      19235           0.0000000000
     79957     19427  TIP3      H2              7.5171888349       25.8988344159      -27.0406497580  TIP3      19235           0.0000000000
     79958     19428  TIP3      OH2             7.9667628501       23.4498318448      -28.9205278995  TIP3      19236           0.0000000000
     79959     19428  TIP3      H1              8.4854849275       23.9150039548      -29.6159928602  TIP3      19236           0.0000000000
     79960     19428  TIP3      H2              7.0752597901       23.3684724737      -29.3281453626  TIP3      19236           0.0000000000
     79961     19429  TIP3      OH2             9.5344954434       28.9327977453      -28.6659860587  TIP3      19237           0.0000000000
     79962     19429  TIP3      H1             10.2598141488       28.7846203758      -29.2813092212  TIP3      19237           0.0000000000
     79963     19429  TIP3      H2              9.1377144025       29.7589264229      -28.9936128423  TIP3      19237           0.0000000000
     79964     19430  TIP3      OH2            15.2157855978       29.5197696032      -25.5705706372  TIP3      19238           0.0000000000
     79965     19430  TIP3      H1             15.0405078479       30.2470673676      -26.2046689121  TIP3      19238           0.0000000000
     79966     19430  TIP3      H2             16.1883200524       29.4871555835      -25.7182658335  TIP3      19238           0.0000000000
     79967     19431  TIP3      OH2             6.0646308731       26.3086777197      -24.5373053361  TIP3      19239           0.0000000000
     79968     19431  TIP3      H1              5.2655687285       25.7742308584      -24.7274019555  TIP3      19239           0.0000000000
     79969     19431  TIP3      H2              6.6889037609       25.9595656097      -25.2001085970  TIP3      19239           0.0000000000
     79970     19432  TIP3      OH2             8.7644081129       20.8966990064      -28.5168755240  TIP3      19240           0.0000000000
     79971     19432  TIP3      H1              8.5786809031       21.8555087476      -28.6253921701  TIP3      19240           0.0000000000
     79972     19432  TIP3      H2              8.0187712271       20.5253615338      -29.0163754597  TIP3      19240           0.0000000000
     79973     19433  TIP3      OH2            12.7404289749       24.3939311897      -25.7932247011  TIP3      19241           0.0000000000
     79974     19433  TIP3      H1             11.7836677827       24.3383159845      -25.7581481144  TIP3      19241           0.0000000000
     79975     19433  TIP3      H2             13.0460575813       23.7156669456      -25.1600957627  TIP3      19241           0.0000000000
     79976     19434  TIP3      OH2            14.2860595069       23.0475966190      -23.8649801691  TIP3      19242           0.0000000000
     79977     19434  TIP3      H1             14.3025852647       22.0656486978      -23.9201357716  TIP3      19242           0.0000000000
     79978     19434  TIP3      H2             14.0566857301       23.2300261846      -22.9580965482  TIP3      19242           0.0000000000
     79979     19435  TIP3      OH2             4.1499897906       24.2727318758      -24.8005921228  TIP3      19243           0.0000000000
     79980     19435  TIP3      H1              4.3658493721       23.5399864145      -25.4000451476  TIP3      19243           0.0000000000
     79981     19435  TIP3      H2              4.0650612759       23.7905823994      -23.9511935399  TIP3      19243           0.0000000000
     79982     19436  TIP3      OH2             2.3832055076       33.3869566597      -41.1086636021  TIP3      19244           0.0000000000
     79983     19436  TIP3      H1              3.3330497455       33.4809246549      -40.8757663236  TIP3      19244           0.0000000000
     79984     19436  TIP3      H2              2.4364876546       32.7108282665      -41.8218419149  TIP3      19244           0.0000000000
     79985     19437  TIP3      OH2            17.4610459033       33.1355479441      -23.7605829832  TIP3      19245           0.0000000000
     79986     19437  TIP3      H1             16.6744600980       32.9394239420      -23.2454485982  TIP3      19245           0.0000000000
     79987     19437  TIP3      H2             17.9241410380       33.7852240288      -23.2239468019  TIP3      19245           0.0000000000
     79988     19438  TIP3      OH2            18.6230504247       31.1968647381      -38.3100996874  TIP3      19246           0.0000000000
     79989     19438  TIP3      H1             19.1451821740       31.9605723232      -38.0557957863  TIP3      19246           0.0000000000
     79990     19438  TIP3      H2             18.6140598943       30.5541633051      -37.5541057290  TIP3      19246           0.0000000000
     79991     19439  TIP3      OH2            19.2189524113       29.4742885788      -36.3734101418  TIP3      19247           0.0000000000
     79992     19439  TIP3      H1             18.4582867236       28.9306799513      -36.0240745465  TIP3      19247           0.0000000000
     79993     19439  TIP3      H2             19.7795101239       29.5132197561      -35.5675166469  TIP3      19247           0.0000000000
     79994     19440  TIP3      OH2            18.9033156502       32.1151929746      -31.4697986106  TIP3      19248           0.0000000000
     79995     19440  TIP3      H1             19.7560916359       31.7372644789      -31.7471910507  TIP3      19248           0.0000000000
     79996     19440  TIP3      H2             19.1019820769       33.0703335416      -31.5228690595  TIP3      19248           0.0000000000
     79997     19441  TIP3      OH2            17.4467644255       35.0114533946      -29.0719472591  TIP3      19249           0.0000000000
     79998     19441  TIP3      H1             16.7467498056       35.3773855689      -28.5306164276  TIP3      19249           0.0000000000
     79999     19441  TIP3      H2             16.9483227802       34.6380266540      -29.8380301014  TIP3      19249           0.0000000000
     80000     19442  TIP3      OH2            19.5387006135       29.2879838835      -39.9828013098  TIP3      19250           0.0000000000
     80001     19442  TIP3      H1             18.9358357359       29.5630365761      -40.7157321590  TIP3      19250           0.0000000000
     80002     19442  TIP3      H2             19.2775437370       29.9455095573      -39.3297584538  TIP3      19250           0.0000000000
     80003     19443  TIP3      OH2            17.8723966646       26.4766575112      -41.4622007487  TIP3      19251           0.0000000000
     80004     19443  TIP3      H1             17.9425568009       27.1405994051      -42.1592039957  TIP3      19251           0.0000000000
     80005     19443  TIP3      H2             17.6820763576       25.6543331702      -41.9583111779  TIP3      19251           0.0000000000
     80006     19444  TIP3      OH2            17.0513837656       27.9104343127      -35.8005654715  TIP3      19252           0.0000000000
     80007     19444  TIP3      H1             16.8722956873       26.9581546128      -35.8520571675  TIP3      19252           0.0000000000
     80008     19444  TIP3      H2             16.6749034714       28.1176497875      -34.9201017790  TIP3      19252           0.0000000000
     80009     19445  TIP3      OH2             2.0189554782       29.9856682657      -31.7424067089  TIP3      19253           0.0000000000
     80010     19445  TIP3      H1              2.1946394974       29.8987748050      -32.7059652455  TIP3      19253           0.0000000000
     80011     19445  TIP3      H2              2.9120688267       29.8061695841      -31.3897961247  TIP3      19253           0.0000000000
     80012     19446  TIP3      OH2            17.8428508656       29.8642856843      -26.0750157904  TIP3      19254           0.0000000000
     80013     19446  TIP3      H1             18.4920559366       29.1378538484      -25.9789956841  TIP3      19254           0.0000000000
     80014     19446  TIP3      H2             18.4539153037       30.6244438991      -26.1181503984  TIP3      19254           0.0000000000
     80015     19447  TIP3      OH2            19.3316159632       27.6874775648      -25.2831269288  TIP3      19255           0.0000000000
     80016     19447  TIP3      H1             18.4735279013       27.3551803060      -25.6242883587  TIP3      19255           0.0000000000
     80017     19447  TIP3      H2             19.9307908179       26.9868186737      -25.5824057381  TIP3      19255           0.0000000000
     80018     19448  TIP3      OH2            17.1161544672       23.9523261915      -42.3323316641  TIP3      19256           0.0000000000
     80019     19448  TIP3      H1             17.7037253144       23.5109368123      -41.6899432031  TIP3      19256           0.0000000000
     80020     19448  TIP3      H2             16.2509762032       23.5334367401      -42.1803113551  TIP3      19256           0.0000000000
     80021     19449  TIP3      OH2            16.6571361418       25.4745218381      -37.3863895376  TIP3      19257           0.0000000000
     80022     19449  TIP3      H1             16.9661046551       24.5509588639      -37.2209621255  TIP3      19257           0.0000000000
     80023     19449  TIP3      H2             17.4811169021       25.8814604205      -37.6905579437  TIP3      19257           0.0000000000
     80024     19450  TIP3      OH2            17.3169758526       26.0409125940      -31.9024922394  TIP3      19258           0.0000000000
     80025     19450  TIP3      H1             18.2805410875       26.2576672502      -31.9169320797  TIP3      19258           0.0000000000
     80026     19450  TIP3      H2             17.1360123770       26.1612278043      -30.9573364946  TIP3      19258           0.0000000000
     80027     19451  TIP3      OH2            17.3656698684       26.7531979243      -29.1331870185  TIP3      19259           0.0000000000
     80028     19451  TIP3      H1             16.5088316456       27.0541113291      -28.7653199588  TIP3      19259           0.0000000000
     80029     19451  TIP3      H2             17.8331740162       27.6108616595      -29.3269268074  TIP3      19259           0.0000000000
     80030     19452  TIP3      OH2             1.6314773014       25.2766946335      -25.5752495115  TIP3      19260           0.0000000000
     80031     19452  TIP3      H1              2.5716663895       25.0674581602      -25.4156225672  TIP3      19260           0.0000000000
     80032     19452  TIP3      H2              1.1895201216       24.4498151251      -25.2874572400  TIP3      19260           0.0000000000
     80033     19453  TIP3      OH2            19.6822567547       20.7571849721      -23.7761193678  TIP3      19261           0.0000000000
     80034     19453  TIP3      H1             20.0004428461       20.1118587827      -24.4210170540  TIP3      19261           0.0000000000
     80035     19453  TIP3      H2             19.7365884914       21.5887118637      -24.2915945672  TIP3      19261           0.0000000000
     80036     19454  TIP3      OH2            17.3531897701       22.7725913048      -37.2995431833  TIP3      19262           0.0000000000
     80037     19454  TIP3      H1             17.5678546938       22.3327347408      -36.4470436644  TIP3      19262           0.0000000000
     80038     19454  TIP3      H2             16.7538722169       22.1289095920      -37.7360061230  TIP3      19262           0.0000000000
     80039     19455  TIP3      OH2             2.8354237989       23.5740904754      -32.7397361744  TIP3      19263           0.0000000000
     80040     19455  TIP3      H1              3.2961128900       22.7474013499      -32.4844305800  TIP3      19263           0.0000000000
     80041     19455  TIP3      H2              3.3874508880       24.2663126695      -32.3524254330  TIP3      19263           0.0000000000
     80042     19456  TIP3      OH2             1.1188941902       26.5753232798      -31.7044719435  TIP3      19264           0.0000000000
     80043     19456  TIP3      H1              1.6823920439       26.3253035394      -32.4645746717  TIP3      19264           0.0000000000
     80044     19456  TIP3      H2              1.5850748858       27.3797026399      -31.4343201335  TIP3      19264           0.0000000000
     80045     19457  TIP3      OH2            19.2088156786       22.8815224804      -25.4086472632  TIP3      19265           0.0000000000
     80046     19457  TIP3      H1             18.2750753192       23.1783988123      -25.4782007525  TIP3      19265           0.0000000000
     80047     19457  TIP3      H2             19.2210341537       22.3558770342      -26.2279315142  TIP3      19265           0.0000000000
     80048     19458  TIP3      OH2            19.1682474479       22.8043393582      -40.7496259337  TIP3      19266           0.0000000000
     80049     19458  TIP3      H1             19.5807742632       22.0889928765      -41.2816191377  TIP3      19266           0.0000000000
     80050     19458  TIP3      H2             19.8768217583       23.4634517278      -40.6957326495  TIP3      19266           0.0000000000
     80051     19459  TIP3      OH2             1.4876816559       22.8527719599      -37.6190420940  TIP3      19267           0.0000000000
     80052     19459  TIP3      H1              0.5439892944       23.0095728609      -37.7846903687  TIP3      19267           0.0000000000
     80053     19459  TIP3      H2              1.9041976748       23.3272742465      -38.3569071388  TIP3      19267           0.0000000000
     80054     19460  TIP3      OH2             1.4324692338       21.4878241389      -29.3367861713  TIP3      19268           0.0000000000
     80055     19460  TIP3      H1              0.7638772723       21.2953154347      -28.6559411579  TIP3      19268           0.0000000000
     80056     19460  TIP3      H2              0.9743217197       22.1618378037      -29.8769915627  TIP3      19268           0.0000000000
     80057     19461  TIP3      OH2             3.6620771265       34.7523467584      -25.1450974466  TIP3      19269           0.0000000000
     80058     19461  TIP3      H1              2.8196008658       34.8945767137      -25.6160761629  TIP3      19269           0.0000000000
     80059     19461  TIP3      H2              3.3291158960       34.6443083483      -24.2400328598  TIP3      19269           0.0000000000
     80060     19462  TIP3      OH2             6.6069812754       35.6877757809      -28.8259808189  TIP3      19270           0.0000000000
     80061     19462  TIP3      H1              6.1699751227       36.4675459573      -29.1972909286  TIP3      19270           0.0000000000
     80062     19462  TIP3      H2              7.4754025223       35.6652500792      -29.2562047697  TIP3      19270           0.0000000000
     80063     19463  TIP3      OH2            18.1724717762       20.9862817431      -27.5382657883  TIP3      19271           0.0000000000
     80064     19463  TIP3      H1             17.3889115870       21.3037737165      -28.0121320742  TIP3      19271           0.0000000000
     80065     19463  TIP3      H2             18.3794205236       20.2167267544      -28.1265169629  TIP3      19271           0.0000000000
     80066     19464  TIP3      OH2             5.7720001490       36.0349067703      -33.5290265585  TIP3      19272           0.0000000000
     80067     19464  TIP3      H1              5.3880693223       35.2746107151      -33.0649745441  TIP3      19272           0.0000000000
     80068     19464  TIP3      H2              6.3511476243       36.4002478856      -32.8371650013  TIP3      19272           0.0000000000
     80069     19465  TIP3      OH2            11.5878415427       22.4240921591      -33.2865317779  TIP3      19273           0.0000000000
     80070     19465  TIP3      H1             10.9112365818       21.7830157712      -33.0103221937  TIP3      19273           0.0000000000
     80071     19465  TIP3      H2             12.1468927295       21.8897382441      -33.8664973163  TIP3      19273           0.0000000000
     80072     19466  TIP3      OH2            16.6755648606       20.3843542858      -33.3908195146  TIP3      19274           0.0000000000
     80073     19466  TIP3      H1             17.3336667636       21.0568565369      -33.7012084418  TIP3      19274           0.0000000000
     80074     19466  TIP3      H2             15.8282962316       20.8571644612      -33.4514917917  TIP3      19274           0.0000000000
     80075     19467  TIP3      OH2            18.3864017241       21.7441351913      -34.9654690788  TIP3      19275           0.0000000000
     80076     19467  TIP3      H1             19.0730360230       21.1483451858      -35.3471878793  TIP3      19275           0.0000000000
     80077     19467  TIP3      H2             18.9076831705       22.5606546461      -34.8186692530  TIP3      19275           0.0000000000
     80078     19468  TIP3      OH2             3.9622848829       21.0501210033      -35.4403491930  TIP3      19276           0.0000000000
     80079     19468  TIP3      H1              3.1643498839       20.8568923949      -35.9686582014  TIP3      19276           0.0000000000
     80080     19468  TIP3      H2              4.4197975988       20.1890058435      -35.5010718875  TIP3      19276           0.0000000000
     80081     19469  TIP3      OH2             2.7265609414       20.8030013422      -39.7196039197  TIP3      19277           0.0000000000
     80082     19469  TIP3      H1              3.2192024565       21.4534919395      -40.2540113054  TIP3      19277           0.0000000000
     80083     19469  TIP3      H2              2.1593560693       21.3786854084      -39.1811319790  TIP3      19277           0.0000000000
     80084     19470  TIP3      OH2             8.4291425692       20.9760741307      -35.6529996974  TIP3      19278           0.0000000000
     80085     19470  TIP3      H1              9.3301163423       21.3340547160      -35.7317570699  TIP3      19278           0.0000000000
     80086     19470  TIP3      H2              8.3961486281       20.7617063522      -34.7204500989  TIP3      19278           0.0000000000
     80087     19471  TIP3      OH2            14.0811638824       21.0166035393      -34.0303741159  TIP3      19279           0.0000000000
     80088     19471  TIP3      H1             14.1179284756       21.0936825864      -34.9868943333  TIP3      19279           0.0000000000
     80089     19471  TIP3      H2             13.7876899043       20.0841664474      -33.8945435946  TIP3      19279           0.0000000000
     80090     19472  TIP3      OH2            15.4113005830       21.0247286826      -38.3473576696  TIP3      19280           0.0000000000
     80091     19472  TIP3      H1             14.6618478112       21.6182770947      -38.5039528313  TIP3      19280           0.0000000000
     80092     19472  TIP3      H2             14.9725376955       20.1723317174      -38.1114807118  TIP3      19280           0.0000000000
     80093     19473  TIP3      OH2             4.5549240974       22.7474826610      -41.2075364322  TIP3      19281           0.0000000000
     80094     19473  TIP3      H1              5.0868574284       22.1298228578      -41.7358627433  TIP3      19281           0.0000000000
     80095     19473  TIP3      H2              5.2209202431       23.0695662077      -40.5726008826  TIP3      19281           0.0000000000
     80096     19474  TIP3      OH2             9.5811926071       22.9904905856      -38.8048785889  TIP3      19282           0.0000000000
     80097     19474  TIP3      H1              9.8323330532       22.4132209732      -38.0648645639  TIP3      19282           0.0000000000
     80098     19474  TIP3      H2              9.6523084538       23.8567544252      -38.3466183186  TIP3      19282           0.0000000000
     80099     19475  TIP3      OH2             3.8653911263       21.5685167573      -25.9706730365  TIP3      19283           0.0000000000
     80100     19475  TIP3      H1              3.4429274103       20.7894394069      -25.5659585543  TIP3      19283           0.0000000000
     80101     19475  TIP3      H2              4.7701595128       21.5447152939      -25.5959299272  TIP3      19283           0.0000000000
     80102     19476  TIP3      OH2             5.8745339985       20.9601585514      -24.2873017780  TIP3      19284           0.0000000000
     80103     19476  TIP3      H1              6.6969661042       20.6069922810      -24.6484707694  TIP3      19284           0.0000000000
     80104     19476  TIP3      H2              5.4292707216       20.1586358687      -23.9543127945  TIP3      19284           0.0000000000
     80105     19477  TIP3      OH2            14.2505667073       20.2807403661      -24.2008989067  TIP3      19285           0.0000000000
     80106     19477  TIP3      H1             14.3425525309       19.8300444171      -23.3375497698  TIP3      19285           0.0000000000
     80107     19477  TIP3      H2             15.1634945632       20.2465384145      -24.5661505823  TIP3      19285           0.0000000000
     80108     19478  TIP3      OH2            17.2980191366      -36.7460653680      -25.4072095723  TIP3      19286           0.0000000000
     80109     19478  TIP3      H1             16.6499602159      -36.8856232167      -26.1029348979  TIP3      19286           0.0000000000
     80110     19478  TIP3      H2             17.4133615875      -35.7830052937      -25.3715427272  TIP3      19286           0.0000000000
     80111     19479  TIP3      OH2            31.8985986927       30.1718322670      -35.5839129763  TIP3      19287           0.0000000000
     80112     19479  TIP3      H1             31.9040866941       31.1569848574      -35.6066047723  TIP3      19287           0.0000000000
     80113     19479  TIP3      H2             31.1707171794       29.9518321879      -36.1869823936  TIP3      19287           0.0000000000
     80114     19480  TIP3      OH2            30.7634209387       29.4428324779      -32.0848611222  TIP3      19288           0.0000000000
     80115     19480  TIP3      H1             30.7397282855       28.7975401031      -31.3637736718  TIP3      19288           0.0000000000
     80116     19480  TIP3      H2             30.4287443996       28.9304467624      -32.8427303550  TIP3      19288           0.0000000000
     80117     19481  TIP3      OH2            23.2753607929       28.9404005690      -30.7241458162  TIP3      19289           0.0000000000
     80118     19481  TIP3      H1             23.1551870896       28.4605863698      -29.8775917581  TIP3      19289           0.0000000000
     80119     19481  TIP3      H2             23.7430147610       29.7048863627      -30.3274929948  TIP3      19289           0.0000000000
     80120     19482  TIP3      OH2            34.4609569124       32.3700251442      -33.7964348801  TIP3      19290           0.0000000000
     80121     19482  TIP3      H1             34.0429571317       31.6622930364      -33.2999785930  TIP3      19290           0.0000000000
     80122     19482  TIP3      H2             34.4844312743       33.0883678860      -33.1450026031  TIP3      19290           0.0000000000
     80123     19483  TIP3      OH2            24.0632274175       33.5888947150      -32.0326599416  TIP3      19291           0.0000000000
     80124     19483  TIP3      H1             23.7144506282       32.7218773100      -32.3321904442  TIP3      19291           0.0000000000
     80125     19483  TIP3      H2             25.0117991391       33.3788361650      -31.9969545625  TIP3      19291           0.0000000000
     80126     19484  TIP3      OH2            20.6964744584       27.1597573668      -36.5882338466  TIP3      19292           0.0000000000
     80127     19484  TIP3      H1             20.2013669438       27.9845813104      -36.5847138746  TIP3      19292           0.0000000000
     80128     19484  TIP3      H2             20.1166672236       26.5697018895      -37.0944425433  TIP3      19292           0.0000000000
     80129     19485  TIP3      OH2            21.3786877118       29.3429484454      -34.4330862532  TIP3      19293           0.0000000000
     80130     19485  TIP3      H1             21.6449991716       28.5497988746      -33.9155478766  TIP3      19293           0.0000000000
     80131     19485  TIP3      H2             22.1310078715       29.4335700385      -35.0276275120  TIP3      19293           0.0000000000
     80132     19486  TIP3      OH2            29.1256054638       31.8188746884      -31.5995336432  TIP3      19294           0.0000000000
     80133     19486  TIP3      H1             29.4706025142       31.2131657675      -32.2712642812  TIP3      19294           0.0000000000
     80134     19486  TIP3      H2             29.9397380570       32.0202469921      -31.1062469158  TIP3      19294           0.0000000000
     80135     19487  TIP3      OH2            32.3108542906       26.3205624798      -31.3009538744  TIP3      19295           0.0000000000
     80136     19487  TIP3      H1             32.4756269183       25.3602699800      -31.3092365576  TIP3      19295           0.0000000000
     80137     19487  TIP3      H2             32.2103163475       26.4645140153      -32.2617001883  TIP3      19295           0.0000000000
     80138     19488  TIP3      OH2            25.4014642675       24.4104073614      -34.0813520271  TIP3      19296           0.0000000000
     80139     19488  TIP3      H1             25.5100520368       25.2504350826      -34.5645344184  TIP3      19296           0.0000000000
     80140     19488  TIP3      H2             25.0146739494       23.8329737283      -34.7749180484  TIP3      19296           0.0000000000
     80141     19489  TIP3      OH2            33.1676125996       24.5254594498      -35.6901454348  TIP3      19297           0.0000000000
     80142     19489  TIP3      H1             33.8123622620       24.1616012428      -35.0349224379  TIP3      19297           0.0000000000
     80143     19489  TIP3      H2             33.7654153603       25.0458799491      -36.2351263292  TIP3      19297           0.0000000000
     80144     19490  TIP3      OH2            22.0338197108       26.8066714525      -33.3440584903  TIP3      19298           0.0000000000
     80145     19490  TIP3      H1             22.7099600436       26.2654815859      -32.8976554647  TIP3      19298           0.0000000000
     80146     19490  TIP3      H2             22.1454260266       26.4963202050      -34.2549949218  TIP3      19298           0.0000000000
     80147     19491  TIP3      OH2            27.1972393172       28.3711596852      -34.0307036967  TIP3      19299           0.0000000000
     80148     19491  TIP3      H1             27.8666471073       27.7885700319      -33.6303908763  TIP3      19299           0.0000000000
     80149     19491  TIP3      H2             26.6790107030       27.7140040937      -34.5350797528  TIP3      19299           0.0000000000
     80150     19492  TIP3      OH2            24.3215460210       23.2993903500      -30.0426372635  TIP3      19300           0.0000000000
     80151     19492  TIP3      H1             24.0363040829       23.8704829580      -30.7880476960  TIP3      19300           0.0000000000
     80152     19492  TIP3      H2             23.6446172253       23.5198468231      -29.3612001690  TIP3      19300           0.0000000000
     80153     19493  TIP3      OH2            31.6147119524       32.7661612927      -36.5034311953  TIP3      19301           0.0000000000
     80154     19493  TIP3      H1             31.3515534203       32.5165933401      -37.3960920855  TIP3      19301           0.0000000000
     80155     19493  TIP3      H2             31.2980670343       33.6890529444      -36.4276635273  TIP3      19301           0.0000000000
     80156     19494  TIP3      OH2            26.8518633255       30.9167268052      -29.8127402731  TIP3      19302           0.0000000000
     80157     19494  TIP3      H1             26.1325418698       31.5434346774      -29.5736542278  TIP3      19302           0.0000000000
     80158     19494  TIP3      H2             27.5370384754       31.5414974915      -30.0823848922  TIP3      19302           0.0000000000
     80159     19495  TIP3      OH2            34.6614290112       23.8036480903      -33.6047846434  TIP3      19303           0.0000000000
     80160     19495  TIP3      H1             34.6903134540       22.9834808655      -33.1043643099  TIP3      19303           0.0000000000
     80161     19495  TIP3      H2             35.4285229659       24.2679618914      -33.2045545880  TIP3      19303           0.0000000000
     80162     19496  TIP3      OH2            23.8918574495       25.1622229574      -31.9986349581  TIP3      19304           0.0000000000
     80163     19496  TIP3      H1             24.5233900487       25.8514071024      -31.6953239695  TIP3      19304           0.0000000000
     80164     19496  TIP3      H2             24.4060679916       24.7527141562      -32.7406975127  TIP3      19304           0.0000000000
     80165     19497  TIP3      OH2            25.2782621013       32.9470773597      -28.9903834664  TIP3      19305           0.0000000000
     80166     19497  TIP3      H1             25.2040942225       33.8589750361      -29.3115475920  TIP3      19305           0.0000000000
     80167     19497  TIP3      H2             24.3935825391       32.8226862660      -28.5700540483  TIP3      19305           0.0000000000
     80168     19498  TIP3      OH2            21.7470472258       32.9518084882      -38.3105835685  TIP3      19306           0.0000000000
     80169     19498  TIP3      H1             21.2359284552       33.1558647316      -39.1254420196  TIP3      19306           0.0000000000
     80170     19498  TIP3      H2             21.4849124120       33.6628086344      -37.6814005469  TIP3      19306           0.0000000000
     80171     19499  TIP3      OH2            34.7819628453       34.1697796570      -31.2948641575  TIP3      19307           0.0000000000
     80172     19499  TIP3      H1             33.8161104869       34.3481510879      -31.2690822326  TIP3      19307           0.0000000000
     80173     19499  TIP3      H2             35.1695834627       34.9947054642      -31.6418601066  TIP3      19307           0.0000000000
     80174     19500  TIP3      OH2            35.0994011702       22.6370887689      -30.2725328938  TIP3      19308           0.0000000000
     80175     19500  TIP3      H1             34.4052118422       23.3149430857      -30.1683838031  TIP3      19308           0.0000000000
     80176     19500  TIP3      H2             35.8615077288       23.1311503425      -30.5928631753  TIP3      19308           0.0000000000
     80177     19501  TIP3      OH2            28.2573448889       20.6331824001      -32.5777056895  TIP3      19309           0.0000000000
     80178     19501  TIP3      H1             28.1166181462       19.6690095025      -32.6471915943  TIP3      19309           0.0000000000
     80179     19501  TIP3      H2             27.3805163628       20.9428152088      -32.2694996588  TIP3      19309           0.0000000000
     80180     19502  TIP3      OH2            33.2896194551       35.7225025490      -35.0222957360  TIP3      19310           0.0000000000
     80181     19502  TIP3      H1             33.8384888031       35.0919257051      -35.5273060117  TIP3      19310           0.0000000000
     80182     19502  TIP3      H2             33.6710734153       36.5636415767      -35.2623699971  TIP3      19310           0.0000000000
     80183     19503  TIP3      OH2            34.5027110754       33.8675719036      -36.3373564239  TIP3      19311           0.0000000000
     80184     19503  TIP3      H1             34.1600920923       33.1917910005      -36.9333340037  TIP3      19311           0.0000000000
     80185     19503  TIP3      H2             34.4935079219       33.3970300714      -35.4770351326  TIP3      19311           0.0000000000
     80186     19504  TIP3      OH2            35.8135225571       32.6902999156      -27.7083689226  TIP3      19312           0.0000000000
     80187     19504  TIP3      H1             36.0737442712       31.9775385115      -28.3242071376  TIP3      19312           0.0000000000
     80188     19504  TIP3      H2             36.2468302478       33.4318264341      -28.1749896632  TIP3      19312           0.0000000000
     80189     19505  TIP3      OH2            30.5378222077       29.4163217953      -38.0745617005  TIP3      19313           0.0000000000
     80190     19505  TIP3      H1             29.8582873523       30.0093757761      -38.4350281623  TIP3      19313           0.0000000000
     80191     19505  TIP3      H2             31.2617085724       29.5168155030      -38.7230503897  TIP3      19313           0.0000000000
     80192     19506  TIP3      OH2            30.6362398505       27.9974457395      -41.0576125342  TIP3      19314           0.0000000000
     80193     19506  TIP3      H1             31.3531116086       27.9741562468      -40.4045629274  TIP3      19314           0.0000000000
     80194     19506  TIP3      H2             30.9408252164       27.2816463232      -41.6287574575  TIP3      19314           0.0000000000
     80195     19507  TIP3      OH2            33.9754122628       29.6431086814      -37.1772379118  TIP3      19315           0.0000000000
     80196     19507  TIP3      H1             33.2504575020       29.8944278826      -36.5587015365  TIP3      19315           0.0000000000
     80197     19507  TIP3      H2             34.4571055201       29.0019357964      -36.6111613295  TIP3      19315           0.0000000000
     80198     19508  TIP3      OH2            33.9523216394       27.8309738980      -28.0647673121  TIP3      19316           0.0000000000
     80199     19508  TIP3      H1             33.8917392378       28.6075890310      -27.4797538458  TIP3      19316           0.0000000000
     80200     19508  TIP3      H2             33.3034968063       28.0976916265      -28.7414105675  TIP3      19316           0.0000000000
     80201     19509  TIP3      OH2            25.6172060963       30.3069005370      -35.2257804001  TIP3      19317           0.0000000000
     80202     19509  TIP3      H1             25.3018890922       29.8995689244      -36.0655143773  TIP3      19317           0.0000000000
     80203     19509  TIP3      H2             26.2303466380       29.6151684644      -34.8894827010  TIP3      19317           0.0000000000
     80204     19510  TIP3      OH2            26.9376287944       33.6967845897      -32.5521769033  TIP3      19318           0.0000000000
     80205     19510  TIP3      H1             26.9401161566       33.1593412229      -33.3532367317  TIP3      19318           0.0000000000
     80206     19510  TIP3      H2             27.7131294582       33.3329968298      -32.0853516959  TIP3      19318           0.0000000000
     80207     19511  TIP3      OH2            25.9781361493       29.0191330701      -31.5778130984  TIP3      19319           0.0000000000
     80208     19511  TIP3      H1             26.5082051396       29.1570062378      -32.3776492551  TIP3      19319           0.0000000000
     80209     19511  TIP3      H2             26.3123009799       29.7020735163      -30.9573504157  TIP3      19319           0.0000000000
     80210     19512  TIP3      OH2            32.3061514096       34.6176911752      -30.8641510269  TIP3      19320           0.0000000000
     80211     19512  TIP3      H1             32.0527298305       35.2410033651      -30.1970838813  TIP3      19320           0.0000000000
     80212     19512  TIP3      H2             32.0851628543       33.7480840548      -30.4471555217  TIP3      19320           0.0000000000
     80213     19513  TIP3      OH2            26.9465543223       33.5071786675      -26.8765608925  TIP3      19321           0.0000000000
     80214     19513  TIP3      H1             26.4564344075       34.2030196214      -26.3651446658  TIP3      19321           0.0000000000
     80215     19513  TIP3      H2             26.2565847602       33.2500857998      -27.5400228266  TIP3      19321           0.0000000000
     80216     19514  TIP3      OH2            32.8724970456       28.8179766316      -39.4701597509  TIP3      19322           0.0000000000
     80217     19514  TIP3      H1             33.4286149416       29.0375071781      -38.6812214867  TIP3      19322           0.0000000000
     80218     19514  TIP3      H2             33.2747891497       29.3459242899      -40.1900528283  TIP3      19322           0.0000000000
     80219     19515  TIP3      OH2            24.3137447024       29.2613478204      -27.2146825899  TIP3      19323           0.0000000000
     80220     19515  TIP3      H1             24.0721419406       30.1777575348      -26.9700835356  TIP3      19323           0.0000000000
     80221     19515  TIP3      H2             23.5198528067       29.2553782486      -27.8020734606  TIP3      19323           0.0000000000
     80222     19516  TIP3      OH2            30.5480179669       35.5349181557      -35.9866601676  TIP3      19324           0.0000000000
     80223     19516  TIP3      H1             31.0711864469       35.8700684318      -35.2487911746  TIP3      19324           0.0000000000
     80224     19516  TIP3      H2             30.0520295901       36.3079286254      -36.2734312768  TIP3      19324           0.0000000000
     80225     19517  TIP3      OH2            25.1403590897       35.3592346058      -26.1838621351  TIP3      19325           0.0000000000
     80226     19517  TIP3      H1             25.0363967041       35.4092700135      -27.1467150448  TIP3      19325           0.0000000000
     80227     19517  TIP3      H2             24.2152354159       35.3561134018      -25.8678349788  TIP3      19325           0.0000000000
     80228     19518  TIP3      OH2            24.5505507507       29.3315108999      -37.5646916954  TIP3      19326           0.0000000000
     80229     19518  TIP3      H1             24.3328047952       30.0910474910      -38.1427636723  TIP3      19326           0.0000000000
     80230     19518  TIP3      H2             23.9651037642       28.6300342967      -37.8626488599  TIP3      19326           0.0000000000
     80231     19519  TIP3      OH2            19.9498945745       31.8769265186      -28.8820681407  TIP3      19327           0.0000000000
     80232     19519  TIP3      H1             20.1319549897       31.6918253015      -29.8081703602  TIP3      19327           0.0000000000
     80233     19519  TIP3      H2             20.5878176447       31.1830452245      -28.5597367916  TIP3      19327           0.0000000000
     80234     19520  TIP3      OH2            20.4707068856       34.4682829556      -31.9337204632  TIP3      19328           0.0000000000
     80235     19520  TIP3      H1             21.4265395564       34.3775070437      -31.9689752599  TIP3      19328           0.0000000000
     80236     19520  TIP3      H2             20.3804202207       35.2646679680      -31.3917532286  TIP3      19328           0.0000000000
     80237     19521  TIP3      OH2            29.6249867786       34.7408223487      -27.3630829201  TIP3      19329           0.0000000000
     80238     19521  TIP3      H1             29.6914190477       35.5726355674      -26.8811056626  TIP3      19329           0.0000000000
     80239     19521  TIP3      H2             28.7559060335       34.3637132140      -27.1229827478  TIP3      19329           0.0000000000
     80240     19522  TIP3      OH2            35.3592162615       26.8258214541      -25.7649337216  TIP3      19330           0.0000000000
     80241     19522  TIP3      H1             35.2735076133       27.1877857795      -26.6515658545  TIP3      19330           0.0000000000
     80242     19522  TIP3      H2             35.8591445129       25.9916386574      -25.9486670631  TIP3      19330           0.0000000000
     80243     19523  TIP3      OH2            22.9253777293       33.4311174686      -27.6256875545  TIP3      19331           0.0000000000
     80244     19523  TIP3      H1             23.2155919936       32.7818918538      -26.9448728552  TIP3      19331           0.0000000000
     80245     19523  TIP3      H2             22.2685666740       32.8033819191      -28.0204678586  TIP3      19331           0.0000000000
     80246     19524  TIP3      OH2            25.6483772445       21.5421489838      -31.8276928163  TIP3      19332           0.0000000000
     80247     19524  TIP3      H1             24.7427435633       21.4158926866      -32.1939066102  TIP3      19332           0.0000000000
     80248     19524  TIP3      H2             25.5101632431       22.3700761288      -31.3393386071  TIP3      19332           0.0000000000
     80249     19525  TIP3      OH2            30.2757056798       21.2064394887      -28.4792965959  TIP3      19333           0.0000000000
     80250     19525  TIP3      H1             30.6792157129       20.8058443940      -27.6930177979  TIP3      19333           0.0000000000
     80251     19525  TIP3      H2             29.3043161883       21.0891641750      -28.3167678622  TIP3      19333           0.0000000000
     80252     19526  TIP3      OH2            33.5100834530       25.0277928237      -27.6128781634  TIP3      19334           0.0000000000
     80253     19526  TIP3      H1             32.9906488736       24.8631356398      -26.7901535417  TIP3      19334           0.0000000000
     80254     19526  TIP3      H2             33.4143897192       25.9820404779      -27.7583343224  TIP3      19334           0.0000000000
     80255     19527  TIP3      OH2            34.3768627616       29.7754730761      -41.6634924803  TIP3      19335           0.0000000000
     80256     19527  TIP3      H1             34.3036369945       29.6272045967      -42.6336518753  TIP3      19335           0.0000000000
     80257     19527  TIP3      H2             35.1451860975       30.3462225059      -41.6341552436  TIP3      19335           0.0000000000
     80258     19528  TIP3      OH2            29.9346694461       23.7930843124      -41.1544542011  TIP3      19336           0.0000000000
     80259     19528  TIP3      H1             29.6129791006       23.7303990534      -40.2363525694  TIP3      19336           0.0000000000
     80260     19528  TIP3      H2             29.6182129683       22.9206635845      -41.4643067634  TIP3      19336           0.0000000000
     80261     19529  TIP3      OH2            25.7521680906       26.5130891062      -30.5716394166  TIP3      19337           0.0000000000
     80262     19529  TIP3      H1             25.0090794125       26.5119455852      -29.9384176026  TIP3      19337           0.0000000000
     80263     19529  TIP3      H2             25.6896320703       27.4268180963      -30.9385039616  TIP3      19337           0.0000000000
     80264     19530  TIP3      OH2            25.7056707317       26.6276695204      -35.7080422428  TIP3      19338           0.0000000000
     80265     19530  TIP3      H1             24.7656570937       26.3810778904      -35.8370098148  TIP3      19338           0.0000000000
     80266     19530  TIP3      H2             26.0839180711       26.3366946528      -36.5608539890  TIP3      19338           0.0000000000
     80267     19531  TIP3      OH2            31.2414412080       27.1406178757      -36.9271077933  TIP3      19339           0.0000000000
     80268     19531  TIP3      H1             30.8330544533       27.9536493470      -37.3041050349  TIP3      19339           0.0000000000
     80269     19531  TIP3      H2             31.9244067102       26.9687251946      -37.5942947280  TIP3      19339           0.0000000000
     80270     19532  TIP3      OH2            30.3187146609       27.3270075583      -25.5445710550  TIP3      19340           0.0000000000
     80271     19532  TIP3      H1             29.7784160540       26.5891815421      -25.1804713943  TIP3      19340           0.0000000000
     80272     19532  TIP3      H2             31.1237642449       27.2416214570      -24.9986407578  TIP3      19340           0.0000000000
     80273     19533  TIP3      OH2            32.2287411801       26.6401887592      -34.0745667530  TIP3      19341           0.0000000000
     80274     19533  TIP3      H1             31.9954704106       27.1868486965      -34.8438497612  TIP3      19341           0.0000000000
     80275     19533  TIP3      H2             32.3565506790       25.7827247285      -34.5309412542  TIP3      19341           0.0000000000
     80276     19534  TIP3      OH2            23.3558647506       26.7776975476      -28.8882063258  TIP3      19342           0.0000000000
     80277     19534  TIP3      H1             23.4610158981       27.1683927734      -28.0068478122  TIP3      19342           0.0000000000
     80278     19534  TIP3      H2             22.9225215196       25.9344478759      -28.6750544632  TIP3      19342           0.0000000000
     80279     19535  TIP3      OH2            26.7386908812       24.1593777015      -42.0381203501  TIP3      19343           0.0000000000
     80280     19535  TIP3      H1             26.2844430332       23.7383022920      -41.2801513102  TIP3      19343           0.0000000000
     80281     19535  TIP3      H2             26.0290997858       24.5912031269      -42.5294721277  TIP3      19343           0.0000000000
     80282     19536  TIP3      OH2            20.0371460518       23.9033736514      -34.9209387331  TIP3      19344           0.0000000000
     80283     19536  TIP3      H1             20.7021460205       23.8341249634      -34.2045211442  TIP3      19344           0.0000000000
     80284     19536  TIP3      H2             20.4778754043       23.4956505113      -35.6894932752  TIP3      19344           0.0000000000
     80285     19537  TIP3      OH2            21.2870094777       24.5899548651      -39.5600761440  TIP3      19345           0.0000000000
     80286     19537  TIP3      H1             21.8035718033       25.2025757742      -40.1151459849  TIP3      19345           0.0000000000
     80287     19537  TIP3      H2             20.6047792195       25.2160152481      -39.2360630524  TIP3      19345           0.0000000000
     80288     19538  TIP3      OH2            31.4425727076       28.2000051357      -29.5323819826  TIP3      19346           0.0000000000
     80289     19538  TIP3      H1             31.8341842132       27.5123833115      -30.1150149572  TIP3      19346           0.0000000000
     80290     19538  TIP3      H2             30.9765039868       27.6704609876      -28.8626408290  TIP3      19346           0.0000000000
     80291     19539  TIP3      OH2            28.2595401454       24.1896851686      -34.6999519161  TIP3      19347           0.0000000000
     80292     19539  TIP3      H1             27.3247729362       24.1894845515      -34.4018123047  TIP3      19347           0.0000000000
     80293     19539  TIP3      H2             28.7545365518       24.0127882213      -33.8832207795  TIP3      19347           0.0000000000
     80294     19540  TIP3      OH2            23.0698330224       25.7296830404      -35.8320729808  TIP3      19348           0.0000000000
     80295     19540  TIP3      H1             22.1856621005       25.8749631797      -36.2230138066  TIP3      19348           0.0000000000
     80296     19540  TIP3      H2             23.3570928001       24.8978697296      -36.2425973632  TIP3      19348           0.0000000000
     80297     19541  TIP3      OH2            26.7129561907       25.7816987451      -38.2081192838  TIP3      19349           0.0000000000
     80298     19541  TIP3      H1             27.6688658973       25.8923381313      -38.0474812038  TIP3      19349           0.0000000000
     80299     19541  TIP3      H2             26.4761478550       26.4637519193      -38.8641449174  TIP3      19349           0.0000000000
     80300     19542  TIP3      OH2            32.5959774036       23.3888794390      -31.4494025144  TIP3      19350           0.0000000000
     80301     19542  TIP3      H1             31.9269241538       23.4605759804      -30.7446941093  TIP3      19350           0.0000000000
     80302     19542  TIP3      H2             32.0993837912       23.1764655294      -32.2542897578  TIP3      19350           0.0000000000
     80303     19543  TIP3      OH2            25.4195032332       26.9591815377      -40.6186873155  TIP3      19351           0.0000000000
     80304     19543  TIP3      H1             24.8877698230       26.5700855121      -41.3339807622  TIP3      19351           0.0000000000
     80305     19543  TIP3      H2             26.2396031812       27.1646301578      -41.0943023830  TIP3      19351           0.0000000000
     80306     19544  TIP3      OH2            23.5699990301       31.6114541346      -25.5628987932  TIP3      19352           0.0000000000
     80307     19544  TIP3      H1             24.2609196011       31.7701820401      -24.9042483406  TIP3      19352           0.0000000000
     80308     19544  TIP3      H2             22.7768928097       31.6301179296      -24.9945326023  TIP3      19352           0.0000000000
     80309     19545  TIP3      OH2            29.5396581418       26.9380988067      -32.8103568468  TIP3      19353           0.0000000000
     80310     19545  TIP3      H1             30.1454549688       26.4075295682      -33.3427384426  TIP3      19353           0.0000000000
     80311     19545  TIP3      H2             29.3962150681       26.3909718686      -32.0265734847  TIP3      19353           0.0000000000
     80312     19546  TIP3      OH2            24.5517580487       23.0855173999      -36.3731520159  TIP3      19354           0.0000000000
     80313     19546  TIP3      H1             24.2429968433       22.1612339391      -36.3796310754  TIP3      19354           0.0000000000
     80314     19546  TIP3      H2             25.3434185419       23.0182003138      -36.9202646846  TIP3      19354           0.0000000000
     80315     19547  TIP3      OH2            28.1846998254       25.2634426398      -30.3970510852  TIP3      19355           0.0000000000
     80316     19547  TIP3      H1             27.3600414430       25.7824592345      -30.3092290129  TIP3      19355           0.0000000000
     80317     19547  TIP3      H2             28.7379447542       25.6186037002      -29.6739049599  TIP3      19355           0.0000000000
     80318     19548  TIP3      OH2            28.7688053229       31.4732026677      -38.6899002002  TIP3      19356           0.0000000000
     80319     19548  TIP3      H1             27.9684389948       31.0146335346      -39.0268164223  TIP3      19356           0.0000000000
     80320     19548  TIP3      H2             28.5471596370       31.6009684484      -37.7475320080  TIP3      19356           0.0000000000
     80321     19549  TIP3      OH2            35.6395339115       30.7148091766      -29.8998113424  TIP3      19357           0.0000000000
     80322     19549  TIP3      H1             36.3655357603       30.8435108232      -30.5518758765  TIP3      19357           0.0000000000
     80323     19549  TIP3      H2             34.8767874396       30.7169001886      -30.5081874623  TIP3      19357           0.0000000000
     80324     19550  TIP3      OH2            32.6312395310       24.3159084039      -40.5301693871  TIP3      19358           0.0000000000
     80325     19550  TIP3      H1             31.6724596444       24.4358117487      -40.6708361013  TIP3      19358           0.0000000000
     80326     19550  TIP3      H2             32.9123215238       25.1771968233      -40.1591346350  TIP3      19358           0.0000000000
     80327     19551  TIP3      OH2            30.2407014428       31.7828168641      -27.4789356831  TIP3      19359           0.0000000000
     80328     19551  TIP3      H1             29.9219973933       31.3507263318      -26.6771605181  TIP3      19359           0.0000000000
     80329     19551  TIP3      H2             30.0398159968       32.7094013692      -27.3328075900  TIP3      19359           0.0000000000
     80330     19552  TIP3      OH2            33.3323088369       26.2417182660      -38.9273761523  TIP3      19360           0.0000000000
     80331     19552  TIP3      H1             34.2009446665       26.1004810503      -38.4951976358  TIP3      19360           0.0000000000
     80332     19552  TIP3      H2             33.4354711620       27.0808074179      -39.4072405586  TIP3      19360           0.0000000000
     80333     19553  TIP3      OH2            23.8580107966       30.8775199110      -32.9379531695  TIP3      19361           0.0000000000
     80334     19553  TIP3      H1             24.5913755600       30.8024203990      -33.5672181549  TIP3      19361           0.0000000000
     80335     19553  TIP3      H2             23.9315421971       30.0397872841      -32.4357465819  TIP3      19361           0.0000000000
     80336     19554  TIP3      OH2            30.8395196978       32.9396746530      -39.6722458302  TIP3      19362           0.0000000000
     80337     19554  TIP3      H1             30.5330723874       33.8045023070      -39.3308164211  TIP3      19362           0.0000000000
     80338     19554  TIP3      H2             30.1134271952       32.3370467242      -39.4234735882  TIP3      19362           0.0000000000
     80339     19555  TIP3      OH2            20.3210247870       29.1286776707      -27.3598392066  TIP3      19363           0.0000000000
     80340     19555  TIP3      H1             21.0669030541       28.7984563447      -26.8390908300  TIP3      19363           0.0000000000
     80341     19555  TIP3      H2             20.2534761039       28.5338170612      -28.1118214867  TIP3      19363           0.0000000000
     80342     19556  TIP3      OH2            27.8764824165       28.8580302995      -25.4778903115  TIP3      19364           0.0000000000
     80343     19556  TIP3      H1             27.5474392255       28.5381285533      -26.3350061534  TIP3      19364           0.0000000000
     80344     19556  TIP3      H2             28.7956079496       28.5192337816      -25.4520170082  TIP3      19364           0.0000000000
     80345     19557  TIP3      OH2            32.5724142107       34.2148284375      -27.5555700042  TIP3      19365           0.0000000000
     80346     19557  TIP3      H1             31.6406855558       34.3253344905      -27.7662554311  TIP3      19365           0.0000000000
     80347     19557  TIP3      H2             32.5241025648       34.4034723310      -26.5908317833  TIP3      19365           0.0000000000
     80348     19558  TIP3      OH2            33.6764590744       29.9807508153      -31.6060474472  TIP3      19366           0.0000000000
     80349     19558  TIP3      H1             32.7393707682       29.7643575681      -31.7526215278  TIP3      19366           0.0000000000
     80350     19558  TIP3      H2             34.1565494030       29.2465003849      -32.0306780616  TIP3      19366           0.0000000000
     80351     19559  TIP3      OH2            26.2905680972       34.3028233201      -35.6006341334  TIP3      19367           0.0000000000
     80352     19559  TIP3      H1             26.7481801349       35.1465878794      -35.6886378823  TIP3      19367           0.0000000000
     80353     19559  TIP3      H2             25.3755224618       34.5323889709      -35.8026043852  TIP3      19367           0.0000000000
     80354     19560  TIP3      OH2            22.0279046120       29.1618355738      -40.9082730771  TIP3      19368           0.0000000000
     80355     19560  TIP3      H1             22.6200573077       29.8499038844      -40.5614842610  TIP3      19368           0.0000000000
     80356     19560  TIP3      H2             21.1260717897       29.4905974482      -40.7356078157  TIP3      19368           0.0000000000
     80357     19561  TIP3      OH2            27.6874075514       31.9933037350      -35.9967697040  TIP3      19369           0.0000000000
     80358     19561  TIP3      H1             27.3724405624       32.9147556373      -35.9061797193  TIP3      19369           0.0000000000
     80359     19561  TIP3      H2             26.9529245602       31.5174686803      -35.5599434764  TIP3      19369           0.0000000000
     80360     19562  TIP3      OH2            28.4331513154       35.8514431582      -29.9113040383  TIP3      19370           0.0000000000
     80361     19562  TIP3      H1             28.5610284476       36.8109467077      -29.9630306570  TIP3      19370           0.0000000000
     80362     19562  TIP3      H2             28.7187015548       35.7093386692      -28.9951320308  TIP3      19370           0.0000000000
     80363     19563  TIP3      OH2            31.6791868834       32.1939907685      -29.9721897455  TIP3      19371           0.0000000000
     80364     19563  TIP3      H1             31.3002639814       31.9714541725      -29.0982427836  TIP3      19371           0.0000000000
     80365     19563  TIP3      H2             32.2901454177       31.4623691193      -30.1337872538  TIP3      19371           0.0000000000
     80366     19564  TIP3      OH2            33.9640536290       33.1967936791      -40.8939602677  TIP3      19372           0.0000000000
     80367     19564  TIP3      H1             34.2865986499       32.8197925593      -40.0510319933  TIP3      19372           0.0000000000
     80368     19564  TIP3      H2             33.0093815397       33.0717152743      -40.7913494376  TIP3      19372           0.0000000000
     80369     19565  TIP3      OH2            22.5211657099       24.0419592383      -28.0375572685  TIP3      19373           0.0000000000
     80370     19565  TIP3      H1             21.6033430373       24.3522642651      -28.1360937780  TIP3      19373           0.0000000000
     80371     19565  TIP3      H2             22.3933262904       23.1514025861      -27.6715147608  TIP3      19373           0.0000000000
     80372     19566  TIP3      OH2            34.7612200602       31.8152465318      -38.6680183238  TIP3      19374           0.0000000000
     80373     19566  TIP3      H1             34.5406050393       31.0759957722      -38.0612646967  TIP3      19374           0.0000000000
     80374     19566  TIP3      H2             35.6848508200       32.0018975595      -38.4293561588  TIP3      19374           0.0000000000
     80375     19567  TIP3      OH2            22.1533156108       35.7966448389      -29.6735961042  TIP3      19375           0.0000000000
     80376     19567  TIP3      H1             22.4116038946       34.8729179038      -29.6312013731  TIP3      19375           0.0000000000
     80377     19567  TIP3      H2             22.3398311449       36.0946764171      -28.7728981466  TIP3      19375           0.0000000000
     80378     19568  TIP3      OH2            28.1150170456       34.3120858569      -42.4011107546  TIP3      19376           0.0000000000
     80379     19568  TIP3      H1             28.1865577113       33.5359222688      -42.9793739163  TIP3      19376           0.0000000000
     80380     19568  TIP3      H2             27.6821127657       33.9003238294      -41.6209498490  TIP3      19376           0.0000000000
     80381     19569  TIP3      OH2            26.8603084255       33.8156199670      -39.9414928104  TIP3      19377           0.0000000000
     80382     19569  TIP3      H1             27.1475943870       33.3306236218      -39.1564742759  TIP3      19377           0.0000000000
     80383     19569  TIP3      H2             26.9685240776       34.7525457298      -39.6668619758  TIP3      19377           0.0000000000
     80384     19570  TIP3      OH2            23.4012638928       31.1096638593      -39.4537610278  TIP3      19378           0.0000000000
     80385     19570  TIP3      H1             22.7834249451       31.6201453461      -38.9242294719  TIP3      19378           0.0000000000
     80386     19570  TIP3      H2             23.9611977057       31.8538319649      -39.7686316819  TIP3      19378           0.0000000000
     80387     19571  TIP3      OH2            31.2211553340       23.7867331698      -29.1121473921  TIP3      19379           0.0000000000
     80388     19571  TIP3      H1             31.9738001127       23.8487273822      -28.5099193734  TIP3      19379           0.0000000000
     80389     19571  TIP3      H2             30.8514577039       22.9075798123      -28.9122171841  TIP3      19379           0.0000000000
     80390     19572  TIP3      OH2            32.0563803423       23.3463728082      -38.0349079234  TIP3      19380           0.0000000000
     80391     19572  TIP3      H1             32.2331711159       23.8309419205      -38.8630829340  TIP3      19380           0.0000000000
     80392     19572  TIP3      H2             32.6048993979       23.8189172011      -37.3963580452  TIP3      19380           0.0000000000
     80393     19573  TIP3      OH2            29.7318037309       35.5582155273      -39.2091613656  TIP3      19381           0.0000000000
     80394     19573  TIP3      H1             28.8775849959       36.0293529888      -39.1685499430  TIP3      19381           0.0000000000
     80395     19573  TIP3      H2             30.2097230299       36.0635871900      -39.8841646690  TIP3      19381           0.0000000000
     80396     19574  TIP3      OH2            29.2304126853       25.1162477988      -37.2195219057  TIP3      19382           0.0000000000
     80397     19574  TIP3      H1             30.0113855954       25.7022192582      -37.1712961584  TIP3      19382           0.0000000000
     80398     19574  TIP3      H2             28.9619289194       24.9969998157      -36.2890176059  TIP3      19382           0.0000000000
     80399     19575  TIP3      OH2            29.7977063156       26.1402705234      -28.0437812284  TIP3      19383           0.0000000000
     80400     19575  TIP3      H1             29.8805545884       26.7032147089      -27.2448021393  TIP3      19383           0.0000000000
     80401     19575  TIP3      H2             30.4560897389       25.4425843031      -27.9256956282  TIP3      19383           0.0000000000
     80402     19576  TIP3      OH2            30.0331236712       22.1827567767      -36.3580705342  TIP3      19384           0.0000000000
     80403     19576  TIP3      H1             29.7572399725       22.8293670618      -35.6895394533  TIP3      19384           0.0000000000
     80404     19576  TIP3      H2             30.7522004532       22.7112836692      -36.7842182988  TIP3      19384           0.0000000000
     80405     19577  TIP3      OH2            27.1372678773      -36.4677342499      -39.1773130081  TIP3      19385           0.0000000000
     80406     19577  TIP3      H1             27.1624463158      -35.6799184156      -39.7525109382  TIP3      19385           0.0000000000
     80407     19577  TIP3      H2             26.8398358208      -36.1001609477      -38.3312173108  TIP3      19385           0.0000000000
     80408     19578  TIP3      OH2            25.7322947129       23.2794919955      -39.6268683012  TIP3      19386           0.0000000000
     80409     19578  TIP3      H1             25.6823636543       24.1775666922      -39.2420555604  TIP3      19386           0.0000000000
     80410     19578  TIP3      H2             26.6410402952       23.0352834202      -39.3636033657  TIP3      19386           0.0000000000
     80411     19579  TIP3      OH2            35.8274737383       23.7851234936      -27.3726186548  TIP3      19387           0.0000000000
     80412     19579  TIP3      H1             34.9965232235       24.3206537115      -27.3634061370  TIP3      19387           0.0000000000
     80413     19579  TIP3      H2             36.2345178790       24.0738801391      -28.1922680536  TIP3      19387           0.0000000000
     80414     19580  TIP3      OH2            34.5667232671       27.7982810448      -33.1307858350  TIP3      19388           0.0000000000
     80415     19580  TIP3      H1             33.7464973855       27.3622260350      -33.4401663318  TIP3      19388           0.0000000000
     80416     19580  TIP3      H2             34.9969026422       27.0855768875      -32.6486655486  TIP3      19388           0.0000000000
     80417     19581  TIP3      OH2            23.9816130445       33.7071496584      -40.5820403546  TIP3      19389           0.0000000000
     80418     19581  TIP3      H1             24.6512243199       34.3589476222      -40.3170093187  TIP3      19389           0.0000000000
     80419     19581  TIP3      H2             24.4931420717       33.2550549179      -41.2776178423  TIP3      19389           0.0000000000
     80420     19582  TIP3      OH2            22.3113046070       26.3839357371      -41.4449836750  TIP3      19390           0.0000000000
     80421     19582  TIP3      H1             22.3398624082       27.3404750218      -41.2434138568  TIP3      19390           0.0000000000
     80422     19582  TIP3      H2             21.4159820995       26.2199879971      -41.7485004423  TIP3      19390           0.0000000000
     80423     19583  TIP3      OH2            23.1478779165       21.2124223881      -32.7152217051  TIP3      19391           0.0000000000
     80424     19583  TIP3      H1             22.9231112938       21.1979988736      -33.6676098464  TIP3      19391           0.0000000000
     80425     19583  TIP3      H2             22.7357562651       20.3519994199      -32.4371109950  TIP3      19391           0.0000000000
     80426     19584  TIP3      OH2            22.0653608566       35.0962894603      -36.5903375919  TIP3      19392           0.0000000000
     80427     19584  TIP3      H1             21.2267769830       35.5759152331      -36.5744346890  TIP3      19392           0.0000000000
     80428     19584  TIP3      H2             22.6006729714       35.5994081539      -37.2230062876  TIP3      19392           0.0000000000
     80429     19585  TIP3      OH2            30.1288998017       36.1180049070      -42.1576085361  TIP3      19393           0.0000000000
     80430     19585  TIP3      H1             29.3843075822       35.4936646779      -42.0759674193  TIP3      19393           0.0000000000
     80431     19585  TIP3      H2             30.8343490378       35.5775364144      -42.5239284845  TIP3      19393           0.0000000000
     80432     19586  TIP3      OH2            32.5672352891       34.7123082473      -25.0234111294  TIP3      19394           0.0000000000
     80433     19586  TIP3      H1             32.1263376020       34.0099431922      -24.5314017214  TIP3      19394           0.0000000000
     80434     19586  TIP3      H2             33.1816915587       35.1022056976      -24.3809321648  TIP3      19394           0.0000000000
     80435     19587  TIP3      OH2            34.8821287832       35.9244145113      -41.8593809805  TIP3      19395           0.0000000000
     80436     19587  TIP3      H1             35.0465060669       35.0233030240      -41.5414078423  TIP3      19395           0.0000000000
     80437     19587  TIP3      H2             35.5262366281       36.0661695752      -42.5766511519  TIP3      19395           0.0000000000
     80438     19588  TIP3      OH2            21.1998460630       31.4981101305      -24.2638386957  TIP3      19396           0.0000000000
     80439     19588  TIP3      H1             21.3809367084       30.6068772509      -24.5917973503  TIP3      19396           0.0000000000
     80440     19588  TIP3      H2             20.4792004474       31.7911061538      -24.8598400633  TIP3      19396           0.0000000000
     80441     19589  TIP3      OH2            25.5402363724       31.8421216033      -42.2619899442  TIP3      19397           0.0000000000
     80442     19589  TIP3      H1             25.6961630439       31.0930204438      -41.6630972960  TIP3      19397           0.0000000000
     80443     19589  TIP3      H2             26.2996470292       31.7428635526      -42.8687652076  TIP3      19397           0.0000000000
     80444     19590  TIP3      OH2            27.9401657763       31.5257921898      -24.9175468555  TIP3      19398           0.0000000000
     80445     19590  TIP3      H1             27.5595975183       31.8076862687      -25.7622600703  TIP3      19398           0.0000000000
     80446     19590  TIP3      H2             27.9540873634       30.5380811880      -24.9858468570  TIP3      19398           0.0000000000
     80447     19591  TIP3      OH2            30.9859371561       32.9961451916      -42.4778255899  TIP3      19399           0.0000000000
     80448     19591  TIP3      H1             30.6810791863       33.0826267207      -41.5600107519  TIP3      19399           0.0000000000
     80449     19591  TIP3      H2             30.7818520733       32.0420949211      -42.6210820332  TIP3      19399           0.0000000000
     80450     19592  TIP3      OH2            33.5997358257       31.3462027665      -27.5153483651  TIP3      19400           0.0000000000
     80451     19592  TIP3      H1             34.3818124128       31.9458506852      -27.5865082766  TIP3      19400           0.0000000000
     80452     19592  TIP3      H2             32.9083895606       32.0123130093      -27.4493688015  TIP3      19400           0.0000000000
     80453     19593  TIP3      OH2            22.1073482801       28.7367163345      -24.8367212445  TIP3      19401           0.0000000000
     80454     19593  TIP3      H1             22.5582775493       27.9043153608      -25.0077088841  TIP3      19401           0.0000000000
     80455     19593  TIP3      H2             21.8514459778       28.7216771338      -23.9201615357  TIP3      19401           0.0000000000
     80456     19594  TIP3      OH2            26.7606554455       29.8843845635      -39.8206646178  TIP3      19402           0.0000000000
     80457     19594  TIP3      H1             26.2608959866       29.3410586874      -39.1988519614  TIP3      19402           0.0000000000
     80458     19594  TIP3      H2             27.0513972664       29.2136141520      -40.4810944859  TIP3      19402           0.0000000000
     80459     19595  TIP3      OH2            26.1635128751       27.5926168078      -27.5567696141  TIP3      19403           0.0000000000
     80460     19595  TIP3      H1             25.5233074550       28.2879139082      -27.2462875035  TIP3      19403           0.0000000000
     80461     19595  TIP3      H2             26.4495512039       28.0469779592      -28.3643252440  TIP3      19403           0.0000000000
     80462     19596  TIP3      OH2            27.8201575627       28.1120422351      -41.6294168437  TIP3      19404           0.0000000000
     80463     19596  TIP3      H1             27.6785305251       28.0178736519      -42.5936097406  TIP3      19404           0.0000000000
     80464     19596  TIP3      H2             28.7975178845       28.1623120566      -41.5587009142  TIP3      19404           0.0000000000
     80465     19597  TIP3      OH2            26.3709127523       25.0791706934      -26.4561102452  TIP3      19405           0.0000000000
     80466     19597  TIP3      H1             26.5416143547       24.3743794751      -27.1079770633  TIP3      19405           0.0000000000
     80467     19597  TIP3      H2             26.3807827699       25.8909082398      -27.0133748590  TIP3      19405           0.0000000000
     80468     19598  TIP3      OH2            26.8268211448       23.4562958768      -28.9269746177  TIP3      19406           0.0000000000
     80469     19598  TIP3      H1             27.3355509061       23.9203398912      -29.6339108345  TIP3      19406           0.0000000000
     80470     19598  TIP3      H2             25.9331845146       23.3773175319      -29.3319448217  TIP3      19406           0.0000000000
     80471     19599  TIP3      OH2            28.3699699631       28.9602583261      -28.6665241581  TIP3      19407           0.0000000000
     80472     19599  TIP3      H1             29.1145895401       28.7818785843      -29.2551487873  TIP3      19407           0.0000000000
     80473     19599  TIP3      H2             27.9668811840       29.7661927190      -29.0387652923  TIP3      19407           0.0000000000
     80474     19600  TIP3      OH2            32.8094941913       26.6512073102      -23.6998497600  TIP3      19408           0.0000000000
     80475     19600  TIP3      H1             33.0539128113       25.7401203916      -23.8573430352  TIP3      19408           0.0000000000
     80476     19600  TIP3      H2             33.6186599082       27.1704912654      -23.7891620629  TIP3      19408           0.0000000000
     80477     19601  TIP3      OH2            34.1112224075       29.5142888359      -25.6252780400  TIP3      19409           0.0000000000
     80478     19601  TIP3      H1             33.8319911881       30.2526821356      -26.2026220352  TIP3      19409           0.0000000000
     80479     19601  TIP3      H2             35.0525648068       29.4293858819      -25.7576349980  TIP3      19409           0.0000000000
     80480     19602  TIP3      OH2            24.8222207201       26.3188898850      -24.5626594706  TIP3      19410           0.0000000000
     80481     19602  TIP3      H1             24.1150795723       25.7045553499      -24.7946315391  TIP3      19410           0.0000000000
     80482     19602  TIP3      H2             25.5385914918       25.9866200239      -25.1413231306  TIP3      19410           0.0000000000
     80483     19603  TIP3      OH2            27.6073234411       20.8977452650      -28.5286319818  TIP3      19411           0.0000000000
     80484     19603  TIP3      H1             27.4284535136       21.8623853332      -28.6362287152  TIP3      19411           0.0000000000
     80485     19603  TIP3      H2             26.8613649329       20.5201266904      -29.0306535482  TIP3      19411           0.0000000000
     80486     19604  TIP3      OH2            28.8815474718       25.2092546750      -24.9104186953  TIP3      19412           0.0000000000
     80487     19604  TIP3      H1             28.5820998138       24.9864236559      -24.0054611427  TIP3      19412           0.0000000000
     80488     19604  TIP3      H2             28.0743650469       25.0304656175      -25.4247456362  TIP3      19412           0.0000000000
     80489     19605  TIP3      OH2            31.5679715947       24.3364178610      -25.8388666935  TIP3      19413           0.0000000000
     80490     19605  TIP3      H1             30.6114797037       24.4219902284      -25.6812676166  TIP3      19413           0.0000000000
     80491     19605  TIP3      H2             31.8728543561       23.7203097273      -25.1536122076  TIP3      19413           0.0000000000
     80492     19606  TIP3      OH2            33.2743047755       22.9845901283      -23.8690355295  TIP3      19414           0.0000000000
     80493     19606  TIP3      H1             33.0512549914       22.0286682648      -23.9184416164  TIP3      19414           0.0000000000
     80494     19606  TIP3      H2             32.8585628487       23.2795307445      -23.0258594356  TIP3      19414           0.0000000000
     80495     19607  TIP3      OH2            22.9496893440       24.2475606375      -24.7894912769  TIP3      19415           0.0000000000
     80496     19607  TIP3      H1             23.2430521348       23.5515253285      -25.4193428656  TIP3      19415           0.0000000000
     80497     19607  TIP3      H2             22.9209020715       23.7142809962      -24.0004008416  TIP3      19415           0.0000000000
     80498     19608  TIP3      OH2            27.8094488384       20.2501071678      -25.8302198339  TIP3      19416           0.0000000000
     80499     19608  TIP3      H1             28.5107230229       19.5751809421      -25.8659521956  TIP3      19416           0.0000000000
     80500     19608  TIP3      H2             27.7034422181       20.4433009178      -26.7774448116  TIP3      19416           0.0000000000
     80501     19609  TIP3      OH2            28.2802654305       21.9544468217      -23.8157714370  TIP3      19417           0.0000000000
     80502     19609  TIP3      H1             28.0057003251       21.3730869903      -24.5569692263  TIP3      19417           0.0000000000
     80503     19609  TIP3      H2             27.5912158152       22.6415219082      -23.7935030112  TIP3      19417           0.0000000000
     80504     19610  TIP3      OH2            21.2320091169       33.3231263733      -41.0544915348  TIP3      19418           0.0000000000
     80505     19610  TIP3      H1             22.1877335322       33.4996913700      -40.8882813743  TIP3      19418           0.0000000000
     80506     19610  TIP3      H2             21.3000381781       32.7348907431      -41.8455545173  TIP3      19418           0.0000000000
     80507     19611  TIP3      OH2            36.2450463512       34.9590316498      -29.0369841601  TIP3      19419           0.0000000000
     80508     19611  TIP3      H1             35.5631647843       35.3933843349      -28.5256013874  TIP3      19419           0.0000000000
     80509     19611  TIP3      H2             35.7563952705       34.5825810269      -29.8028111633  TIP3      19419           0.0000000000
     80510     19612  TIP3      OH2            35.3630281355       27.9639036935      -35.7125565914  TIP3      19420           0.0000000000
     80511     19612  TIP3      H1             35.6212641532       27.0390113404      -35.6731666371  TIP3      19420           0.0000000000
     80512     19612  TIP3      H2             35.4729393261       28.2248290845      -34.7750333499  TIP3      19420           0.0000000000
     80513     19613  TIP3      OH2            20.8732200995       29.9708017567      -31.7453030293  TIP3      19421           0.0000000000
     80514     19613  TIP3      H1             21.0621233443       29.9007982494      -32.7025251500  TIP3      19421           0.0000000000
     80515     19613  TIP3      H2             21.7603829946       29.8237958026      -31.3662970697  TIP3      19421           0.0000000000
     80516     19614  TIP3      OH2            35.9454755738       23.9061691625      -42.3328727027  TIP3      19422           0.0000000000
     80517     19614  TIP3      H1             36.5385976791       23.4914639988      -41.7027625209  TIP3      19422           0.0000000000
     80518     19614  TIP3      H2             35.0848299756       23.4984664424      -42.1432900679  TIP3      19422           0.0000000000
     80519     19615  TIP3      OH2            35.5024291332       25.4156986688      -37.5089268781  TIP3      19423           0.0000000000
     80520     19615  TIP3      H1             35.7893385358       24.5755138931      -37.1067317963  TIP3      19423           0.0000000000
     80521     19615  TIP3      H2             36.3520193481       25.7666100682      -37.8014234528  TIP3      19423           0.0000000000
     80522     19616  TIP3      OH2           -37.0507368317       25.1895821274      -31.9014181083  TIP3      19424           0.0000000000
     80523     19616  TIP3      H1            -36.1637926168       25.5394302169      -32.0427272253  TIP3      19424           0.0000000000
     80524     19616  TIP3      H2            -37.2701411072       25.8318289810      -31.2046094237  TIP3      19424           0.0000000000
     80525     19617  TIP3      OH2            36.2507302743       26.8022213966      -28.8939293363  TIP3      19425           0.0000000000
     80526     19617  TIP3      H1             35.3179415258       27.0629239003      -28.7573292545  TIP3      19425           0.0000000000
     80527     19617  TIP3      H2             36.6036841477       27.5106498533      -29.4610134763  TIP3      19425           0.0000000000
     80528     19618  TIP3      OH2            20.4990607737       25.2776508181      -25.5408921831  TIP3      19426           0.0000000000
     80529     19618  TIP3      H1             21.4350661748       25.0296457927      -25.4428305650  TIP3      19426           0.0000000000
     80530     19618  TIP3      H2             20.0219600755       24.4459052536      -25.3383475114  TIP3      19426           0.0000000000
     80531     19619  TIP3      OH2            35.3102859533       22.4624099870      -36.6485652182  TIP3      19427           0.0000000000
     80532     19619  TIP3      H1             36.2411732176       22.2853861084      -36.4271135718  TIP3      19427           0.0000000000
     80533     19619  TIP3      H2             35.3269867007       22.0391166331      -37.5329524659  TIP3      19427           0.0000000000
     80534     19620  TIP3      OH2            21.7015769593       23.5768403550      -32.7699376116  TIP3      19428           0.0000000000
     80535     19620  TIP3      H1             22.1331914079       22.7459710518      -32.4768867132  TIP3      19428           0.0000000000
     80536     19620  TIP3      H2             22.2379030593       24.2583714075      -32.3443511215  TIP3      19428           0.0000000000
     80537     19621  TIP3      OH2            19.9680106582       26.5657246984      -31.7180193471  TIP3      19429           0.0000000000
     80538     19621  TIP3      H1             20.5445057680       26.3270116375      -32.4690927823  TIP3      19429           0.0000000000
     80539     19621  TIP3      H2             20.4231228453       27.3775714563      -31.4374100787  TIP3      19429           0.0000000000
     80540     19622  TIP3      OH2            20.3428308764       22.8548529542      -37.6193695241  TIP3      19430           0.0000000000
     80541     19622  TIP3      H1             19.4000394317       23.0091660458      -37.7845472013  TIP3      19430           0.0000000000
     80542     19622  TIP3      H2             20.7602918356       23.3279567401      -38.3577589106  TIP3      19430           0.0000000000
     80543     19623  TIP3      OH2            20.3879421583       21.6322872825      -29.2257122462  TIP3      19431           0.0000000000
     80544     19623  TIP3      H1             19.6432612733       21.2492110546      -28.7218954427  TIP3      19431           0.0000000000
     80545     19623  TIP3      H2             19.8361144819       22.0892353179      -29.9014008619  TIP3      19431           0.0000000000
     80546     19624  TIP3      OH2            22.5182859999       34.7765713667      -25.1200920534  TIP3      19432           0.0000000000
     80547     19624  TIP3      H1             21.6879501493       34.8185247747      -25.6314955072  TIP3      19432           0.0000000000
     80548     19624  TIP3      H2             22.2458203680       34.5788674630      -24.2190282742  TIP3      19432           0.0000000000
     80549     19625  TIP3      OH2            25.4678968444       35.6984827212      -28.8461691775  TIP3      19433           0.0000000000
     80550     19625  TIP3      H1             25.0285778238       36.4835812512      -29.1952076159  TIP3      19433           0.0000000000
     80551     19625  TIP3      H2             26.3395174318       35.6818007103      -29.2661063758  TIP3      19433           0.0000000000
     80552     19626  TIP3      OH2            24.6287835061       36.0384994071      -33.5321951136  TIP3      19434           0.0000000000
     80553     19626  TIP3      H1             24.2448200970       35.2751180978      -33.0735376007  TIP3      19434           0.0000000000
     80554     19626  TIP3      H2             25.2067915008       36.3996279908      -32.8372310535  TIP3      19434           0.0000000000
     80555     19627  TIP3      OH2            30.4242879288       22.4257382196      -33.2846783417  TIP3      19435           0.0000000000
     80556     19627  TIP3      H1             29.7603218466       21.7755732053      -33.0054926640  TIP3      19435           0.0000000000
     80557     19627  TIP3      H2             30.9912943264       21.9011485002      -33.8653851665  TIP3      19435           0.0000000000
     80558     19628  TIP3      OH2            35.5901253940       20.4631933499      -33.2111984986  TIP3      19436           0.0000000000
     80559     19628  TIP3      H1             36.1682752674       21.0877632057      -33.6575684062  TIP3      19436           0.0000000000
     80560     19628  TIP3      H2             34.6985622979       20.8221278303      -33.4270098626  TIP3      19436           0.0000000000
     80561     19629  TIP3      OH2            22.8157362961       21.0495117130      -35.4442939293  TIP3      19437           0.0000000000
     80562     19629  TIP3      H1             22.0206599000       20.8526519722      -35.9735343464  TIP3      19437           0.0000000000
     80563     19629  TIP3      H2             23.2772253197       20.1902001986      -35.4976351149  TIP3      19437           0.0000000000
     80564     19630  TIP3      OH2            21.5804826259       20.8081743330      -39.7196956078  TIP3      19438           0.0000000000
     80565     19630  TIP3      H1             22.0755554253       21.4559264607      -40.2546261305  TIP3      19438           0.0000000000
     80566     19630  TIP3      H2             21.0150741183       21.3806885333      -39.1809124717  TIP3      19438           0.0000000000
     80567     19631  TIP3      OH2            27.2812260819       20.9736419143      -35.6525132643  TIP3      19439           0.0000000000
     80568     19631  TIP3      H1             28.1831287612       21.3329732099      -35.7273680628  TIP3      19439           0.0000000000
     80569     19631  TIP3      H2             27.2344140450       20.7522537002      -34.7217956550  TIP3      19439           0.0000000000
     80570     19632  TIP3      OH2            33.0215375934       20.9534147689      -34.0267123906  TIP3      19440           0.0000000000
     80571     19632  TIP3      H1             32.9632848995       21.1334985555      -34.9730801597  TIP3      19440           0.0000000000
     80572     19632  TIP3      H2             32.5840692258       20.0756198134      -33.9138634243  TIP3      19440           0.0000000000
     80573     19633  TIP3      OH2            34.2284504255       20.9382198985      -38.4631275726  TIP3      19441           0.0000000000
     80574     19633  TIP3      H1             33.5296392675       21.6053254891      -38.5087206116  TIP3      19441           0.0000000000
     80575     19633  TIP3      H2             33.7631003514       20.1407017395      -38.1379698959  TIP3      19441           0.0000000000
     80576     19634  TIP3      OH2            23.4109166263       22.7473419599      -41.2073158454  TIP3      19442           0.0000000000
     80577     19634  TIP3      H1             23.9427642252       22.1298438548      -41.7359682858  TIP3      19442           0.0000000000
     80578     19634  TIP3      H2             24.0769937670       23.0695998780      -40.5726575597  TIP3      19442           0.0000000000
     80579     19635  TIP3      OH2            28.4388184364       22.9907601520      -38.8055002206  TIP3      19443           0.0000000000
     80580     19635  TIP3      H1             28.6880097284       22.4134147522      -38.0640396567  TIP3      19443           0.0000000000
     80581     19635  TIP3      H2             28.5074061572       23.8566081265      -38.3461930448  TIP3      19443           0.0000000000
     80582     19636  TIP3      OH2            22.6712360151       21.6147750531      -25.9243975477  TIP3      19444           0.0000000000
     80583     19636  TIP3      H1             22.3105284930       20.7867646983      -25.5781364305  TIP3      19444           0.0000000000
     80584     19636  TIP3      H2             23.6141103745       21.5332027788      -25.6309821417  TIP3      19444           0.0000000000
     80585     19637  TIP3      OH2            24.7306842517       20.9758800817      -24.5201893881  TIP3      19445           0.0000000000
     80586     19637  TIP3      H1             25.6577905595       20.6915383265      -24.5874103330  TIP3      19445           0.0000000000
     80587     19637  TIP3      H2             24.4009945853       20.2805187026      -23.9399403420  TIP3      19445           0.0000000000
     80588     19638  TIP3      OH2            33.1153586165       20.3149482141      -24.2058459048  TIP3      19446           0.0000000000
     80589     19638  TIP3      H1             33.1709755041       19.7868859745      -23.3751617579  TIP3      19446           0.0000000000
     80590     19638  TIP3      H2             33.9759614070       20.2338143790      -24.6575371132  TIP3      19446           0.0000000000
     80591     19639  TIP3      OH2            36.2120589717      -36.7264210729      -25.4225049906  TIP3      19447           0.0000000000
     80592     19639  TIP3      H1             35.5610842844      -36.9062467668      -26.1092557464  TIP3      19447           0.0000000000
     80593     19639  TIP3      H2             36.2473398025      -35.7535733432      -25.3934832268  TIP3      19447           0.0000000000
     80594     19640  TIP3      OH2           -25.4578361726      -29.4722923702      -21.7678771887  TIP3      19448           0.0000000000
     80595     19640  TIP3      H1            -25.2490281657      -28.5665466950      -21.5182388182  TIP3      19448           0.0000000000
     80596     19640  TIP3      H2            -25.6949602360      -29.2544913798      -22.6796538188  TIP3      19448           0.0000000000
     80597     19641  TIP3      OH2           -18.8651575899      -21.6046697915      -22.4187271477  TIP3      19449           0.0000000000
     80598     19641  TIP3      H1            -18.7014264251      -20.6733609274      -22.1736606476  TIP3      19449           0.0000000000
     80599     19641  TIP3      H2            -17.9466046055      -21.9299507640      -22.3530308624  TIP3      19449           0.0000000000
     80600     19642  TIP3      OH2           -23.4103933904      -18.8750659256      -21.7257643942  TIP3      19450           0.0000000000
     80601     19642  TIP3      H1            -22.9819905599      -19.6306899883      -22.1769311608  TIP3      19450           0.0000000000
     80602     19642  TIP3      H2            -23.4152352840      -19.1186153126      -20.7820787879  TIP3      19450           0.0000000000
     80603     19643  TIP3      OH2           -22.2024132601      -26.7136711417      -22.8401261857  TIP3      19451           0.0000000000
     80604     19643  TIP3      H1            -22.2695806529      -26.9175230329      -23.8054622183  TIP3      19451           0.0000000000
     80605     19643  TIP3      H2            -21.3464577366      -26.2725172140      -22.8078144579  TIP3      19451           0.0000000000
     80606     19644  TIP3      OH2           -29.7928981103      -32.4232536459      -23.1880603098  TIP3      19452           0.0000000000
     80607     19644  TIP3      H1            -30.2215026385      -32.8372253754      -22.4127973125  TIP3      19452           0.0000000000
     80608     19644  TIP3      H2            -30.5041792310      -32.0082744034      -23.6779086876  TIP3      19452           0.0000000000
     80609     19645  TIP3      OH2           -31.3193715775      -29.6876752113      -21.7361246605  TIP3      19453           0.0000000000
     80610     19645  TIP3      H1            -31.6965457531      -29.9963924215      -22.5558929856  TIP3      19453           0.0000000000
     80611     19645  TIP3      H2            -30.4386142859      -29.3992907087      -22.1068858812  TIP3      19453           0.0000000000
     80612     19646  TIP3      OH2           -25.6415569072      -23.5979671262      -20.8492128512  TIP3      19454           0.0000000000
     80613     19646  TIP3      H1            -26.0178052238      -22.8337280344      -20.4096280731  TIP3      19454           0.0000000000
     80614     19646  TIP3      H2            -26.3706485011      -24.2269216064      -20.6303708597  TIP3      19454           0.0000000000
     80615     19647  TIP3      OH2           -18.2625746496      -30.1690940842      -20.3170136521  TIP3      19455           0.0000000000
     80616     19647  TIP3      H1            -18.8832310761      -30.5017734525      -20.9840072871  TIP3      19455           0.0000000000
     80617     19647  TIP3      H2            -18.2138910411      -29.2295670713      -20.5790904900  TIP3      19455           0.0000000000
     80618     19648  TIP3      OH2           -22.6047443843      -23.3211045733      -22.0145301477  TIP3      19456           0.0000000000
     80619     19648  TIP3      H1            -22.3116125804      -23.7674280395      -21.2264677122  TIP3      19456           0.0000000000
     80620     19648  TIP3      H2            -23.5695399325      -23.4821204139      -21.9491994052  TIP3      19456           0.0000000000
     80621     19649  TIP3      OH2           -18.1690286940      -18.9812005658      -21.8025245524  TIP3      19457           0.0000000000
     80622     19649  TIP3      H1            -17.4297868546      -18.3683864150      -21.9346040655  TIP3      19457           0.0000000000
     80623     19649  TIP3      H2            -18.8313149694      -18.3546689187      -21.4637724044  TIP3      19457           0.0000000000
     80624     19650  TIP3      OH2           -30.8169840548      -33.2773478458      -20.7900144384  TIP3      19458           0.0000000000
     80625     19650  TIP3      H1            -30.8602378759      -32.3920173917      -20.4071673448  TIP3      19458           0.0000000000
     80626     19650  TIP3      H2            -29.9265013701      -33.5714485589      -20.5226628799  TIP3      19458           0.0000000000
     80627     19651  TIP3      OH2           -21.9193520333      -20.6576638457      -23.2379579675  TIP3      19459           0.0000000000
     80628     19651  TIP3      H1            -21.5836185598      -21.4209741679      -22.7516008147  TIP3      19459           0.0000000000
     80629     19651  TIP3      H2            -21.1423429434      -20.3998716314      -23.7647457986  TIP3      19459           0.0000000000
     80630     19652  TIP3      OH2           -29.0944450925      -28.9356866931      -22.8394304762  TIP3      19460           0.0000000000
     80631     19652  TIP3      H1            -29.0297216912      -28.5897239963      -23.7434881174  TIP3      19460           0.0000000000
     80632     19652  TIP3      H2            -28.2298179529      -28.5582753210      -22.5422753386  TIP3      19460           0.0000000000
     80633     19653  TIP3      OH2           -19.3732714128      -26.1107369587      -23.3156175132  TIP3      19461           0.0000000000
     80634     19653  TIP3      H1            -19.5605428883      -26.5136564447      -24.1849616566  TIP3      19461           0.0000000000
     80635     19653  TIP3      H2            -19.2804576459      -25.1635991813      -23.5647947852  TIP3      19461           0.0000000000
     80636     19654  TIP3      OH2           -35.2712577653      -23.1616777926      -22.2024785599  TIP3      19462           0.0000000000
     80637     19654  TIP3      H1            -34.3413186392      -23.0574114745      -21.9717618873  TIP3      19462           0.0000000000
     80638     19654  TIP3      H2            -35.2801420300      -23.7853972256      -22.9489221578  TIP3      19462           0.0000000000
     80639     19655  TIP3      OH2           -18.3414476503      -27.3597129981      -21.0617388649  TIP3      19463           0.0000000000
     80640     19655  TIP3      H1            -18.6728568032      -26.9557437877      -21.8990527714  TIP3      19463           0.0000000000
     80641     19655  TIP3      H2            -18.1828787348      -26.5965140355      -20.5117353716  TIP3      19463           0.0000000000
     80642     19656  TIP3      OH2           -19.8360408171      -30.0697509528      -22.6003126593  TIP3      19464           0.0000000000
     80643     19656  TIP3      H1            -19.7847645993      -29.4178423633      -23.3062058385  TIP3      19464           0.0000000000
     80644     19656  TIP3      H2            -20.0379737599      -30.8966401577      -23.0804895586  TIP3      19464           0.0000000000
     80645     19657  TIP3      OH2           -20.6122346767      -32.5936639474      -23.4588604351  TIP3      19465           0.0000000000
     80646     19657  TIP3      H1            -19.9958445175      -33.0285238063      -22.8324777497  TIP3      19465           0.0000000000
     80647     19657  TIP3      H2            -21.4356917109      -33.0801648027      -23.3117864324  TIP3      19465           0.0000000000
     80648     19658  TIP3      OH2           -18.5496761873      -33.7750341608      -21.9081545529  TIP3      19466           0.0000000000
     80649     19658  TIP3      H1            -18.1318983989      -34.5010962936      -22.4127620627  TIP3      19466           0.0000000000
     80650     19658  TIP3      H2            -17.8785520158      -33.1022128349      -21.8262360971  TIP3      19466           0.0000000000
     80651     19659  TIP3      OH2           -35.1669897550      -35.6710886602      -21.1263295174  TIP3      19467           0.0000000000
     80652     19659  TIP3      H1            -34.4927423126      -35.0427261018      -21.3960688438  TIP3      19467           0.0000000000
     80653     19659  TIP3      H2            -35.5887705257      -35.2182986336      -20.3788703642  TIP3      19467           0.0000000000
     80654     19660  TIP3      OH2           -33.1239827263      -33.7997530559      -22.3444124967  TIP3      19468           0.0000000000
     80655     19660  TIP3      H1            -32.6155230762      -34.4200223836      -22.8952099059  TIP3      19468           0.0000000000
     80656     19660  TIP3      H2            -32.4517094014      -33.5116382513      -21.6948263946  TIP3      19468           0.0000000000
     80657     19661  TIP3      OH2           -26.2079809434      -18.5432454429      -21.5687203968  TIP3      19469           0.0000000000
     80658     19661  TIP3      H1            -25.2954508018      -18.2398582540      -21.6857797814  TIP3      19469           0.0000000000
     80659     19661  TIP3      H2            -26.3854527092      -19.0480676005      -22.3463640531  TIP3      19469           0.0000000000
     80660     19662  TIP3      OH2            -7.0589889092      -28.6542539021      -22.2477550088  TIP3      19470           0.0000000000
     80661     19662  TIP3      H1             -6.4112150574      -28.6454192514      -21.5321546822  TIP3      19470           0.0000000000
     80662     19662  TIP3      H2             -6.7267026798      -29.3530096814      -22.8135374460  TIP3      19470           0.0000000000
     80663     19663  TIP3      OH2            -1.2084055350      -36.0103066083      -20.8388438141  TIP3      19471           0.0000000000
     80664     19663  TIP3      H1             -2.0537191049      -35.8479227778      -20.4588017891  TIP3      19471           0.0000000000
     80665     19663  TIP3      H2             -0.8446528582      -35.1519351406      -21.1072516799  TIP3      19471           0.0000000000
     80666     19664  TIP3      OH2            -7.8162646301      -32.7952410890      -22.2841394073  TIP3      19472           0.0000000000
     80667     19664  TIP3      H1             -8.0552825564      -32.8779960583      -21.3688658597  TIP3      19472           0.0000000000
     80668     19664  TIP3      H2             -8.0649503590      -33.6836620143      -22.6092213465  TIP3      19472           0.0000000000
     80669     19665  TIP3      OH2           -12.2601715851      -29.7305983899      -21.7319474299  TIP3      19473           0.0000000000
     80670     19665  TIP3      H1            -12.8445359510      -29.9445094989      -22.4830730956  TIP3      19473           0.0000000000
     80671     19665  TIP3      H2            -11.5041429052      -29.3498650826      -22.2174470777  TIP3      19473           0.0000000000
     80672     19666  TIP3      OH2            -6.8468794006      -23.6487574344      -20.8147811627  TIP3      19474           0.0000000000
     80673     19666  TIP3      H1             -7.0846484672      -22.7691954513      -20.4192308392  TIP3      19474           0.0000000000
     80674     19666  TIP3      H2             -7.6088853926      -24.1591041135      -20.5805473351  TIP3      19474           0.0000000000
     80675     19667  TIP3      OH2            -9.6199014468      -22.2664125925      -23.5830723502  TIP3      19475           0.0000000000
     80676     19667  TIP3      H1             -9.5093791740      -23.0485139656      -24.1292474263  TIP3      19475           0.0000000000
     80677     19667  TIP3      H2             -9.9695370808      -22.6423668771      -22.7721593477  TIP3      19475           0.0000000000
     80678     19668  TIP3      OH2           -15.3809105874      -30.1514293337      -22.5900579000  TIP3      19476           0.0000000000
     80679     19668  TIP3      H1            -15.4184833891      -29.2219025446      -22.3503874565  TIP3      19476           0.0000000000
     80680     19668  TIP3      H2            -16.2906676032      -30.3759658880      -22.8119776086  TIP3      19476           0.0000000000
     80681     19669  TIP3      OH2           -12.1016596567      -24.7061104322      -23.3787854514  TIP3      19477           0.0000000000
     80682     19669  TIP3      H1            -12.0439850587      -25.4897869361      -22.8292936653  TIP3      19477           0.0000000000
     80683     19669  TIP3      H2            -11.3829314178      -24.8221066299      -24.0175121259  TIP3      19477           0.0000000000
     80684     19670  TIP3      OH2            -6.6502801911      -23.6265810812      -23.6051284384  TIP3      19478           0.0000000000
     80685     19670  TIP3      H1             -6.9724631620      -23.4671936893      -22.7024118859  TIP3      19478           0.0000000000
     80686     19670  TIP3      H2             -6.9638204061      -24.5389721735      -23.7439375563  TIP3      19478           0.0000000000
     80687     19671  TIP3      OH2            -9.8980058140      -28.5172887679      -22.7703114461  TIP3      19479           0.0000000000
     80688     19671  TIP3      H1            -10.0601124507      -28.5332514195      -23.7350128473  TIP3      19479           0.0000000000
     80689     19671  TIP3      H2             -8.9358793963      -28.3696360940      -22.7177391265  TIP3      19479           0.0000000000
     80690     19672  TIP3      OH2           -16.0996908075      -35.7380698609      -20.8382586594  TIP3      19480           0.0000000000
     80691     19672  TIP3      H1            -15.7078824988      -35.1030311358      -21.4215031571  TIP3      19480           0.0000000000
     80692     19672  TIP3      H2            -16.7253434573      -35.1985176948      -20.3482467508  TIP3      19480           0.0000000000
     80693     19673  TIP3      OH2            18.8912700495      -21.5567022234      -22.5501663882  TIP3      19481           0.0000000000
     80694     19673  TIP3      H1             19.0067206231      -20.7061605223      -22.1202112462  TIP3      19481           0.0000000000
     80695     19673  TIP3      H2             19.7506037072      -21.9736082270      -22.3530079759  TIP3      19481           0.0000000000
     80696     19674  TIP3      OH2             7.8768114343      -32.4082322314      -23.1781341074  TIP3      19482           0.0000000000
     80697     19674  TIP3      H1              7.4371582866      -32.8067071711      -22.4226441194  TIP3      19482           0.0000000000
     80698     19674  TIP3      H2              7.1647453726      -32.0188571875      -23.7055622807  TIP3      19482           0.0000000000
     80699     19675  TIP3      OH2             6.7664254768      -24.6598526973      -23.3340380508  TIP3      19483           0.0000000000
     80700     19675  TIP3      H1              6.7777726893      -25.4518327312      -22.7977217380  TIP3      19483           0.0000000000
     80701     19675  TIP3      H2              7.4467494137      -24.7981669410      -24.0144282872  TIP3      19483           0.0000000000
     80702     19676  TIP3      OH2            18.4680377870      -26.1443367523      -23.3514919512  TIP3      19484           0.0000000000
     80703     19676  TIP3      H1             18.0824545338      -26.4933517330      -24.1733782007  TIP3      19484           0.0000000000
     80704     19676  TIP3      H2             18.3916207589      -25.1768329334      -23.5062074224  TIP3      19484           0.0000000000
     80705     19677  TIP3      OH2            30.6749890406      -28.5148015248      -22.3154597538  TIP3      19485           0.0000000000
     80706     19677  TIP3      H1             31.2829842939      -28.5944970473      -21.5439295434  TIP3      19485           0.0000000000
     80707     19677  TIP3      H2             30.9688155422      -29.3101929244      -22.7729312929  TIP3      19485           0.0000000000
     80708     19678  TIP3      OH2            34.3323227705      -26.6676280718      -22.8822261440  TIP3      19486           0.0000000000
     80709     19678  TIP3      H1             34.3015732626      -26.9757027130      -23.8114240813  TIP3      19486           0.0000000000
     80710     19678  TIP3      H2             35.1839908824      -26.2809890312      -22.8075034501  TIP3      19486           0.0000000000
     80711     19679  TIP3      OH2            33.9948504880      -23.4545020233      -22.0317369845  TIP3      19487           0.0000000000
     80712     19679  TIP3      H1             34.2391881815      -23.8059289197      -21.1804653286  TIP3      19487           0.0000000000
     80713     19679  TIP3      H2             33.0188142909      -23.4855997329      -21.9705343896  TIP3      19487           0.0000000000
     80714     19680  TIP3      OH2            28.0512043101      -22.2328704523      -23.6370880235  TIP3      19488           0.0000000000
     80715     19680  TIP3      H1             28.2098273393      -23.0541160785      -24.1043736713  TIP3      19488           0.0000000000
     80716     19680  TIP3      H2             27.7328397194      -22.5880692392      -22.7702580267  TIP3      19488           0.0000000000
     80717     19681  TIP3      OH2            26.9570081070      -22.7431711194      -21.1204327306  TIP3      19489           0.0000000000
     80718     19681  TIP3      H1             27.1204389833      -23.2321462775      -20.3113375551  TIP3      19489           0.0000000000
     80719     19681  TIP3      H2             26.9794441790      -21.8224239876      -20.8196111467  TIP3      19489           0.0000000000
     80720     19682  TIP3      OH2            34.6698593536      -20.5963571330      -23.1782532504  TIP3      19490           0.0000000000
     80721     19682  TIP3      H1             34.9190537488      -21.3964541480      -22.6981698056  TIP3      19490           0.0000000000
     80722     19682  TIP3      H2             35.3968992024      -20.4589340874      -23.8068221116  TIP3      19490           0.0000000000
     80723     19683  TIP3      OH2            25.5076246491      -24.7628613912      -23.4007565752  TIP3      19491           0.0000000000
     80724     19683  TIP3      H1             25.7504310053      -25.4301615063      -22.7406620522  TIP3      19491           0.0000000000
     80725     19683  TIP3      H2             26.2995300231      -24.7930159198      -23.9682726563  TIP3      19491           0.0000000000
     80726     19684  TIP3      OH2            31.0585607860      -23.6089795663      -23.5819391496  TIP3      19492           0.0000000000
     80727     19684  TIP3      H1             30.6453858526      -23.4421115161      -22.7216324680  TIP3      19492           0.0000000000
     80728     19684  TIP3      H2             30.7656157647      -24.5340267966      -23.7350713367  TIP3      19492           0.0000000000
     80729     19685  TIP3      OH2            26.5987883973      -26.7177407279      -21.0465891172  TIP3      19493           0.0000000000
     80730     19685  TIP3      H1             26.3021003093      -27.2744972805      -20.3282812656  TIP3      19493           0.0000000000
     80731     19685  TIP3      H2             27.0255237303      -27.3705983344      -21.6378479073  TIP3      19493           0.0000000000
     80732     19686  TIP3      OH2            27.7584955057      -28.4946022346      -22.7732956206  TIP3      19494           0.0000000000
     80733     19686  TIP3      H1             27.6315223233      -28.5867225146      -23.7315915269  TIP3      19494           0.0000000000
     80734     19686  TIP3      H2             28.7295805197      -28.3963180041      -22.7075513271  TIP3      19494           0.0000000000
     80735     19687  TIP3      OH2            27.6754055064      -17.6859642193      -21.6668795587  TIP3      19495           0.0000000000
     80736     19687  TIP3      H1             28.6379608854      -17.7306806405      -21.6224540907  TIP3      19495           0.0000000000
     80737     19687  TIP3      H2             27.5347315862      -17.1682174832      -22.4620367148  TIP3      19495           0.0000000000
     80738     19688  TIP3      OH2            21.2651162003      -23.1919178555      -22.3008147661  TIP3      19496           0.0000000000
     80739     19688  TIP3      H1             22.1905255506      -23.0719749072      -22.0054175796  TIP3      19496           0.0000000000
     80740     19688  TIP3      H2             21.2997000408      -23.8474431821      -23.0190444263  TIP3      19496           0.0000000000
     80741     19689  TIP3      OH2            35.9433903934      -32.7951920480      -23.5581496769  TIP3      19497           0.0000000000
     80742     19689  TIP3      H1             36.5122439389      -32.9520427024      -22.7981165999  TIP3      19497           0.0000000000
     80743     19689  TIP3      H2             35.0718244677      -33.0214039194      -23.1915079018  TIP3      19497           0.0000000000
     80744     19690  TIP3      OH2            21.6839495677      -34.6482595284      -19.8506782398  TIP3      19498           0.0000000000
     80745     19690  TIP3      H1             22.2691425618      -35.0107910483      -20.5323895861  TIP3      19498           0.0000000000
     80746     19690  TIP3      H2             20.7869994084      -35.0078933156      -19.9772609623  TIP3      19498           0.0000000000
     80747     19691  TIP3      OH2            23.6139914512      -33.2158567608      -22.4457507218  TIP3      19499           0.0000000000
     80748     19691  TIP3      H1             23.7412147721      -34.1274887201      -22.8348948890  TIP3      19499           0.0000000000
     80749     19691  TIP3      H2             24.0478642853      -33.3700622423      -21.6049256354  TIP3      19499           0.0000000000
     80750     19692  TIP3      OH2            23.3286869689      -18.7755136899      -22.8858155197  TIP3      19500           0.0000000000
     80751     19692  TIP3      H1             23.0116264382      -18.6037861074      -21.9953027145  TIP3      19500           0.0000000000
     80752     19692  TIP3      H2             24.0659542402      -19.4022175998      -22.7409764813  TIP3      19500           0.0000000000
     80753     19693  TIP3      OH2           -25.8668787664       -9.7280224504      -22.1510298327  TIP3      19501           0.0000000000
     80754     19693  TIP3      H1            -25.1714477143       -9.7389115548      -21.4840495231  TIP3      19501           0.0000000000
     80755     19693  TIP3      H2            -25.6253231735      -10.4019762450      -22.7910961113  TIP3      19501           0.0000000000
     80756     19694  TIP3      OH2           -23.7024254677       -8.9402462992      -20.5396859206  TIP3      19502           0.0000000000
     80757     19694  TIP3      H1            -23.0916320828       -8.7487849720      -19.8261424361  TIP3      19502           0.0000000000
     80758     19694  TIP3      H2            -23.3089596271       -8.4627099488      -21.2959513039  TIP3      19502           0.0000000000
     80759     19695  TIP3      OH2           -18.8129469662       -2.8139257024      -22.3372238094  TIP3      19503           0.0000000000
     80760     19695  TIP3      H1            -18.7881919397       -1.8604524174      -22.2380010150  TIP3      19503           0.0000000000
     80761     19695  TIP3      H2            -17.9030114948       -3.0502720915      -22.4322500606  TIP3      19503           0.0000000000
     80762     19696  TIP3      OH2           -22.2867861801       -7.8067202827      -22.8987331361  TIP3      19504           0.0000000000
     80763     19696  TIP3      H1            -22.2091653123       -8.0596852996      -23.8425393314  TIP3      19504           0.0000000000
     80764     19696  TIP3      H2            -21.3769088145       -7.4769512709      -22.7583574456  TIP3      19504           0.0000000000
     80765     19697  TIP3      OH2           -34.8757683905      -13.0905570407      -21.2072779117  TIP3      19505           0.0000000000
     80766     19697  TIP3      H1            -34.3873293927      -12.2743836369      -21.2266188207  TIP3      19505           0.0000000000
     80767     19697  TIP3      H2            -35.5915905485      -12.8644829068      -20.5526864756  TIP3      19505           0.0000000000
     80768     19698  TIP3      OH2           -23.9816147216      -13.3791010633      -21.6600337941  TIP3      19506           0.0000000000
     80769     19698  TIP3      H1            -24.9360790724      -13.2620216811      -21.7687814492  TIP3      19506           0.0000000000
     80770     19698  TIP3      H2            -23.6467614994      -12.5226361318      -21.3672831042  TIP3      19506           0.0000000000
     80771     19699  TIP3      OH2           -34.6196537875       -8.4998587416      -22.1252142391  TIP3      19507           0.0000000000
     80772     19699  TIP3      H1            -33.9821740579       -7.9410072752      -21.6480802412  TIP3      19507           0.0000000000
     80773     19699  TIP3      H2            -35.4618652387       -8.1524827348      -21.8100443699  TIP3      19507           0.0000000000
     80774     19700  TIP3      OH2           -28.5628714979       -3.4317812281      -23.5621244357  TIP3      19508           0.0000000000
     80775     19700  TIP3      H1            -28.2675295311       -4.1680405208      -24.1138938458  TIP3      19508           0.0000000000
     80776     19700  TIP3      H2            -28.7768256115       -3.8351120706      -22.7147808041  TIP3      19508           0.0000000000
     80777     19701  TIP3      OH2           -32.5761001300       -4.0295112471      -21.7316045082  TIP3      19509           0.0000000000
     80778     19701  TIP3      H1            -32.0024194554       -3.3157324085      -21.3875278842  TIP3      19509           0.0000000000
     80779     19701  TIP3      H2            -32.0604029084       -4.3756184873      -22.4438614794  TIP3      19509           0.0000000000
     80780     19702  TIP3      OH2           -33.7826397134      -11.0837964868      -22.6207851946  TIP3      19510           0.0000000000
     80781     19702  TIP3      H1            -34.1019093388      -10.2260116045      -22.3095510713  TIP3      19510           0.0000000000
     80782     19702  TIP3      H2            -34.5315546723      -11.5611253285      -22.9745579120  TIP3      19510           0.0000000000
     80783     19703  TIP3      OH2           -26.4998864364       -1.5300701165      -23.4987592246  TIP3      19511           0.0000000000
     80784     19703  TIP3      H1            -27.1414241813       -2.1872252028      -23.1670745083  TIP3      19511           0.0000000000
     80785     19703  TIP3      H2            -25.7198338230       -2.0983950665      -23.6099708538  TIP3      19511           0.0000000000
     80786     19704  TIP3      OH2           -25.7099001768       -4.7598390172      -23.6417534661  TIP3      19512           0.0000000000
     80787     19704  TIP3      H1            -25.8409311372       -4.6630719750      -22.7011342224  TIP3      19512           0.0000000000
     80788     19704  TIP3      H2            -25.7792209700       -5.7351120622      -23.7513453230  TIP3      19512           0.0000000000
     80789     19705  TIP3      OH2           -35.3106157792       -4.3039916839      -22.2063728905  TIP3      19513           0.0000000000
     80790     19705  TIP3      H1            -34.3690906182       -4.2011860775      -21.9661538214  TIP3      19513           0.0000000000
     80791     19705  TIP3      H2            -35.2696119836       -4.9417664037      -22.9402647965  TIP3      19513           0.0000000000
     80792     19706  TIP3      OH2           -19.8664643771      -11.2641121948      -22.5984076422  TIP3      19514           0.0000000000
     80793     19706  TIP3      H1            -19.7717443235      -10.5426307184      -23.2338389785  TIP3      19514           0.0000000000
     80794     19706  TIP3      H2            -20.0320131422      -12.0521278488      -23.1260268574  TIP3      19514           0.0000000000
     80795     19707  TIP3      OH2           -20.6156002071      -13.8095927079      -23.4795588113  TIP3      19515           0.0000000000
     80796     19707  TIP3      H1            -20.0008307996      -14.1954196803      -22.8225183479  TIP3      19515           0.0000000000
     80797     19707  TIP3      H2            -21.4528771208      -14.2462579153      -23.2903633543  TIP3      19515           0.0000000000
     80798     19708  TIP3      OH2           -18.5275547199      -14.9293480825      -21.9021822642  TIP3      19516           0.0000000000
     80799     19708  TIP3      H1            -18.1288746683      -15.6436630721      -22.4290261480  TIP3      19516           0.0000000000
     80800     19708  TIP3      H2            -17.8238003952      -14.2680457579      -21.8247307314  TIP3      19516           0.0000000000
     80801     19709  TIP3      OH2           -33.0324812952      -14.8586340337      -22.4714489345  TIP3      19517           0.0000000000
     80802     19709  TIP3      H1            -32.5670505075      -15.6117948112      -22.8110646716  TIP3      19517           0.0000000000
     80803     19709  TIP3      H2            -32.4927941672      -14.6538529895      -21.6757167008  TIP3      19517           0.0000000000
     80804     19710  TIP3      OH2           -26.1894625336        0.3169917841      -21.4778585732  TIP3      19518           0.0000000000
     80805     19710  TIP3      H1            -25.3179526451        0.6151614969      -21.7301468481  TIP3      19518           0.0000000000
     80806     19710  TIP3      H2            -26.4338754460       -0.1688586684      -22.2857579873  TIP3      19518           0.0000000000
     80807     19711  TIP3      OH2           -33.2929353767       -0.0025788948      -22.9133608687  TIP3      19519           0.0000000000
     80808     19711  TIP3      H1            -33.5504642411        0.2720279658      -22.0189418735  TIP3      19519           0.0000000000
     80809     19711  TIP3      H2            -32.4722196826       -0.5087035506      -22.7440514384  TIP3      19519           0.0000000000
     80810     19712  TIP3      OH2             0.0113894725       -2.7935542717      -22.4058598965  TIP3      19520           0.0000000000
     80811     19712  TIP3      H1              0.0640447878       -1.8686167242      -22.1770327767  TIP3      19520           0.0000000000
     80812     19712  TIP3      H2              0.9200516644       -3.0957345944      -22.3289763555  TIP3      19520           0.0000000000
     80813     19713  TIP3      OH2            -7.7509980847      -13.9800356446      -22.3060147911  TIP3      19521           0.0000000000
     80814     19713  TIP3      H1             -8.0469391163      -13.9527802619      -21.3834979625  TIP3      19521           0.0000000000
     80815     19713  TIP3      H2             -8.1102742433      -14.8215930000      -22.5771462205  TIP3      19521           0.0000000000
     80816     19714  TIP3      OH2           -10.9421303712      -13.5683626588      -23.1685751922  TIP3      19522           0.0000000000
     80817     19714  TIP3      H1            -11.4128954127      -13.9462763937      -22.4106912484  TIP3      19522           0.0000000000
     80818     19714  TIP3      H2            -11.6466464514      -13.1247909031      -23.6639114963  TIP3      19522           0.0000000000
     80819     19715  TIP3      OH2           -16.4506556752      -13.0666882075      -20.7064539412  TIP3      19523           0.0000000000
     80820     19715  TIP3      H1            -15.9399901798      -12.4804949863      -21.2889508829  TIP3      19523           0.0000000000
     80821     19715  TIP3      H2            -17.1426430666      -12.4831011399      -20.3771119333  TIP3      19523           0.0000000000
     80822     19716  TIP3      OH2           -12.3027839978      -10.8143303491      -21.7493348976  TIP3      19524           0.0000000000
     80823     19716  TIP3      H1            -12.8394744268      -11.1057285440      -22.4968556617  TIP3      19524           0.0000000000
     80824     19716  TIP3      H2            -11.4882903548      -10.5438329870      -22.2014009464  TIP3      19524           0.0000000000
     80825     19717  TIP3      OH2           -11.9663390538      -14.4384262702      -20.7841968415  TIP3      19525           0.0000000000
     80826     19717  TIP3      H1            -12.0707393298      -13.5375744126      -20.4249208717  TIP3      19525           0.0000000000
     80827     19717  TIP3      H2            -11.0693780462      -14.6524745936      -20.5076879716  TIP3      19525           0.0000000000
     80828     19718  TIP3      OH2           -15.3942760269      -11.3014829482      -22.5881618093  TIP3      19526           0.0000000000
     80829     19718  TIP3      H1            -15.4343776543      -10.3684890091      -22.3598010618  TIP3      19526           0.0000000000
     80830     19718  TIP3      H2            -16.2920107444      -11.5388396078      -22.8410082932  TIP3      19526           0.0000000000
     80831     19719  TIP3      OH2            -7.5911001988       -1.5408668482      -23.5422572148  TIP3      19527           0.0000000000
     80832     19719  TIP3      H1             -8.3044300456       -2.0885598073      -23.1577440131  TIP3      19527           0.0000000000
     80833     19719  TIP3      H2             -6.8575340076       -2.1494856464      -23.6119000932  TIP3      19527           0.0000000000
     80834     19720  TIP3      OH2            -6.6605546140       -4.7387948558      -23.6245603558  TIP3      19528           0.0000000000
     80835     19720  TIP3      H1             -6.9465741474       -4.6372482391      -22.7233175118  TIP3      19528           0.0000000000
     80836     19720  TIP3      H2             -6.9392194728       -5.6693691119      -23.7890581304  TIP3      19528           0.0000000000
     80837     19721  TIP3      OH2           -11.0328621032       -7.7883835531      -21.0230838773  TIP3      19529           0.0000000000
     80838     19721  TIP3      H1            -11.3628824907       -8.3796416831      -20.3367381695  TIP3      19529           0.0000000000
     80839     19721  TIP3      H2            -10.6732722696       -8.4679548557      -21.6397742324  TIP3      19529           0.0000000000
     80840     19722  TIP3      OH2            -9.9144965636       -9.6009191719      -22.7722292687  TIP3      19530           0.0000000000
     80841     19722  TIP3      H1            -10.0517441181       -9.7371156106      -23.7300067952  TIP3      19530           0.0000000000
     80842     19722  TIP3      H2             -8.9488541456       -9.5211286427      -22.7116049545  TIP3      19530           0.0000000000
     80843     19723  TIP3      OH2            -1.0840131064      -11.1794811696      -22.6197137129  TIP3      19531           0.0000000000
     80844     19723  TIP3      H1             -0.8415082728      -10.5797251771      -23.3235886644  TIP3      19531           0.0000000000
     80845     19723  TIP3      H2             -1.1121117573      -12.0420655254      -23.0728575840  TIP3      19531           0.0000000000
     80846     19724  TIP3      OH2            -1.7441044415      -13.7914316539      -23.4971819950  TIP3      19532           0.0000000000
     80847     19724  TIP3      H1             -1.1072596208      -14.1287661208      -22.8241956290  TIP3      19532           0.0000000000
     80848     19724  TIP3      H2             -2.5701332936      -14.1056786319      -23.1856826750  TIP3      19532           0.0000000000
     80849     19725  TIP3      OH2             0.3205910250      -14.8604183314      -22.0450702241  TIP3      19533           0.0000000000
     80850     19725  TIP3      H1              0.7950678955      -15.6234126444      -22.3859419050  TIP3      19533           0.0000000000
     80851     19725  TIP3      H2              1.0243099083      -14.2433799200      -21.8149723534  TIP3      19533           0.0000000000
     80852     19726  TIP3      OH2           -14.2182686667      -14.8894080193      -22.3973918783  TIP3      19534           0.0000000000
     80853     19726  TIP3      H1            -13.7478504045      -15.5530634975      -22.8853087952  TIP3      19534           0.0000000000
     80854     19726  TIP3      H2            -13.6106771442      -14.6102945989      -21.6872950665  TIP3      19534           0.0000000000
     80855     19727  TIP3      OH2            11.7733830704       -9.7913695594      -22.2260912692  TIP3      19535           0.0000000000
     80856     19727  TIP3      H1             12.4635807541       -9.7939385377      -21.5577047217  TIP3      19535           0.0000000000
     80857     19727  TIP3      H2             12.0870415140      -10.4756129064      -22.8205566393  TIP3      19535           0.0000000000
     80858     19728  TIP3      OH2            18.9624665182       -3.0860485786      -21.9685748431  TIP3      19536           0.0000000000
     80859     19728  TIP3      H1             18.8389216758       -2.1336036315      -22.2198653497  TIP3      19536           0.0000000000
     80860     19728  TIP3      H2             19.8256359403       -3.2191070689      -22.3987616049  TIP3      19536           0.0000000000
     80861     19729  TIP3      OH2            11.0580838908      -14.0081789248      -22.3344669355  TIP3      19537           0.0000000000
     80862     19729  TIP3      H1             10.7982767244      -13.9559516014      -21.4088151948  TIP3      19537           0.0000000000
     80863     19729  TIP3      H2             10.7239724474      -14.8806359569      -22.5677348930  TIP3      19537           0.0000000000
     80864     19730  TIP3      OH2            11.9598610069       -4.7380219926      -20.8513612608  TIP3      19538           0.0000000000
     80865     19730  TIP3      H1             11.6827522402       -3.8858957197      -20.4465943453  TIP3      19538           0.0000000000
     80866     19730  TIP3      H2             11.2259805302       -5.3109373352      -20.6121958112  TIP3      19538           0.0000000000
     80867     19731  TIP3      OH2             9.2084676801       -3.3646799346      -23.5375799505  TIP3      19539           0.0000000000
     80868     19731  TIP3      H1              9.3726592862       -4.1329526043      -24.1150442524  TIP3      19539           0.0000000000
     80869     19731  TIP3      H2              8.8104702974       -3.8144749204      -22.7666971423  TIP3      19539           0.0000000000
     80870     19732  TIP3      OH2            10.8254456944       -2.1882535056      -20.3480393328  TIP3      19540           0.0000000000
     80871     19732  TIP3      H1              9.9754152815       -1.6918627726      -20.3197144539  TIP3      19540           0.0000000000
     80872     19732  TIP3      H2             11.3421637015       -1.6811215591      -20.9844412410  TIP3      19540           0.0000000000
     80873     19733  TIP3      OH2             8.3499280295       -1.0537741794      -20.3952872499  TIP3      19541           0.0000000000
     80874     19733  TIP3      H1              8.2196842065       -0.2683971444      -20.9157858786  TIP3      19541           0.0000000000
     80875     19733  TIP3      H2              7.9795733758       -0.8130303613      -19.5318421869  TIP3      19541           0.0000000000
     80876     19734  TIP3      OH2            11.2783736484       -1.5296801816      -23.3643562112  TIP3      19542           0.0000000000
     80877     19734  TIP3      H1             10.5537358725       -2.1713908723      -23.1717331940  TIP3      19542           0.0000000000
     80878     19734  TIP3      H2             11.9708102352       -2.1192165158      -23.6853798806  TIP3      19542           0.0000000000
     80879     19735  TIP3      OH2            15.7137404711       -1.8705698206      -23.3229028277  TIP3      19543           0.0000000000
     80880     19735  TIP3      H1             16.1173287489       -2.4844028493      -22.7001954308  TIP3      19543           0.0000000000
     80881     19735  TIP3      H2             16.5415296112       -1.4817543197      -23.6891207241  TIP3      19543           0.0000000000
     80882     19736  TIP3      OH2             6.6995367589       -5.9016821990      -23.4920702809  TIP3      19544           0.0000000000
     80883     19736  TIP3      H1              6.8290477466       -6.5528795987      -22.7737623043  TIP3      19544           0.0000000000
     80884     19736  TIP3      H2              7.5093354245       -5.9948262010      -24.0037542088  TIP3      19544           0.0000000000
     80885     19737  TIP3      OH2            12.1690155644       -4.7241084717      -23.6106906637  TIP3      19545           0.0000000000
     80886     19737  TIP3      H1             11.8510668291       -4.6331221217      -22.6949035125  TIP3      19545           0.0000000000
     80887     19737  TIP3      H2             11.9206049110       -5.6644648497      -23.7718796859  TIP3      19545           0.0000000000
     80888     19738  TIP3      OH2             7.9444298120       -7.8467614520      -21.0102456399  TIP3      19546           0.0000000000
     80889     19738  TIP3      H1              7.4120488878       -8.3489734602      -20.3857723342  TIP3      19546           0.0000000000
     80890     19738  TIP3      H2              8.1430018062       -8.5509574586      -21.6631667984  TIP3      19546           0.0000000000
     80891     19739  TIP3      OH2             8.9970238911       -9.5705565817      -22.7696979747  TIP3      19547           0.0000000000
     80892     19739  TIP3      H1              8.7598852646       -9.7414191347      -23.6989925836  TIP3      19547           0.0000000000
     80893     19739  TIP3      H2              9.9642639261       -9.5375760713      -22.7559549156  TIP3      19547           0.0000000000
     80894     19740  TIP3      OH2            18.4000437330       -7.2364396535      -23.3465404663  TIP3      19548           0.0000000000
     80895     19740  TIP3      H1             18.0921054344       -7.6951616982      -24.1450360098  TIP3      19548           0.0000000000
     80896     19740  TIP3      H2             18.3806866834       -6.2902809043      -23.5738187876  TIP3      19548           0.0000000000
     80897     19741  TIP3      OH2            19.5848182452       -8.3697631335      -21.1303866513  TIP3      19549           0.0000000000
     80898     19741  TIP3      H1             18.9308866726       -8.1787182906      -21.8384389547  TIP3      19549           0.0000000000
     80899     19741  TIP3      H2             19.3654600988       -7.7782177005      -20.4176606834  TIP3      19549           0.0000000000
     80900     19742  TIP3      OH2            17.1460137222      -13.9165903932      -23.5506824499  TIP3      19550           0.0000000000
     80901     19742  TIP3      H1             17.7141503885      -14.1574212628      -22.8136569653  TIP3      19550           0.0000000000
     80902     19742  TIP3      H2             16.2628667152      -14.1471593508      -23.2648699116  TIP3      19550           0.0000000000
     80903     19743  TIP3      OH2            32.9885877156       -9.0235203132      -20.6624086734  TIP3      19551           0.0000000000
     80904     19743  TIP3      H1             33.4433514865       -8.6696853233      -19.9123840679  TIP3      19551           0.0000000000
     80905     19743  TIP3      H2             33.2369406706       -8.4172490769      -21.3781927991  TIP3      19551           0.0000000000
     80906     19744  TIP3      OH2            33.2470403004        0.0105568737      -21.7098523449  TIP3      19552           0.0000000000
     80907     19744  TIP3      H1             33.5611447620       -0.7730796431      -22.2109433554  TIP3      19552           0.0000000000
     80908     19744  TIP3      H2             33.1530051206       -0.3004099111      -20.8145651758  TIP3      19552           0.0000000000
     80909     19745  TIP3      OH2            34.3938576712       -7.8994105785      -22.8433288018  TIP3      19553           0.0000000000
     80910     19745  TIP3      H1             34.3099287027       -8.0115182529      -23.8122221266  TIP3      19553           0.0000000000
     80911     19745  TIP3      H2             35.1714568329       -7.3538086038      -22.7682925024  TIP3      19553           0.0000000000
     80912     19746  TIP3      OH2            26.7982430537      -13.5711261313      -23.2032627578  TIP3      19554           0.0000000000
     80913     19746  TIP3      H1             26.3558410139      -13.8891783900      -22.4107967189  TIP3      19554           0.0000000000
     80914     19746  TIP3      H2             26.0857415490      -13.0895777690      -23.6632477892  TIP3      19554           0.0000000000
     80915     19747  TIP3      OH2            32.6051835865      -13.4024661321      -21.6101108979  TIP3      19555           0.0000000000
     80916     19747  TIP3      H1             31.6914811629      -13.2128696219      -21.8371944462  TIP3      19555           0.0000000000
     80917     19747  TIP3      H2             32.9287852347      -12.5290869512      -21.3613842316  TIP3      19555           0.0000000000
     80918     19748  TIP3      OH2            30.8592237998       -4.7298335759      -20.7791957045  TIP3      19556           0.0000000000
     80919     19748  TIP3      H1             30.5177916057       -3.8896432310      -20.4589148923  TIP3      19556           0.0000000000
     80920     19748  TIP3      H2             30.1483217985       -5.3787692692      -20.6317310276  TIP3      19556           0.0000000000
     80921     19749  TIP3      OH2            22.0060002757       -8.4767977474      -22.1531215986  TIP3      19557           0.0000000000
     80922     19749  TIP3      H1             22.6117492870       -7.9151168491      -21.6687281108  TIP3      19557           0.0000000000
     80923     19749  TIP3      H2             21.1092079179       -8.2751528695      -21.8003033458  TIP3      19557           0.0000000000
     80924     19750  TIP3      OH2            33.9674378103       -4.4397487498      -21.9743564904  TIP3      19558           0.0000000000
     80925     19750  TIP3      H1             34.2738433052       -4.9506396248      -21.2375162466  TIP3      19558           0.0000000000
     80926     19750  TIP3      H2             33.0095287284       -4.6276317321      -21.9810648298  TIP3      19558           0.0000000000
     80927     19751  TIP3      OH2            28.0380598164       -3.4095232461      -23.5868607681  TIP3      19559           0.0000000000
     80928     19751  TIP3      H1             28.2197184445       -4.1911436910      -24.1247475768  TIP3      19559           0.0000000000
     80929     19751  TIP3      H2             27.7706082681       -3.8038106556      -22.7569308958  TIP3      19559           0.0000000000
     80930     19752  TIP3      OH2            26.9569614844       -1.1618376159      -20.3983706533  TIP3      19560           0.0000000000
     80931     19752  TIP3      H1             27.1490258999       -0.3543696931      -20.9225708208  TIP3      19560           0.0000000000
     80932     19752  TIP3      H2             26.8624460108       -0.8056830284      -19.5106277317  TIP3      19560           0.0000000000
     80933     19753  TIP3      OH2            34.6342273878       -1.7744416624      -23.1502194638  TIP3      19561           0.0000000000
     80934     19753  TIP3      H1             34.9580840225       -2.5761795447      -22.7208233736  TIP3      19561           0.0000000000
     80935     19753  TIP3      H2             35.3611923267       -1.5835716281      -23.7789637956  TIP3      19561           0.0000000000
     80936     19754  TIP3      OH2            31.0280715287       -4.8039173960      -23.6093607526  TIP3      19562           0.0000000000
     80937     19754  TIP3      H1             30.7399140754       -4.6144140168      -22.7023991443  TIP3      19562           0.0000000000
     80938     19754  TIP3      H2             30.7416452034       -5.7240888076      -23.6964547234  TIP3      19562           0.0000000000
     80939     19755  TIP3      OH2            27.7343079213        1.0968861113      -21.7008602218  TIP3      19563           0.0000000000
     80940     19755  TIP3      H1             28.6797021634        1.2688878333      -21.6608191134  TIP3      19563           0.0000000000
     80941     19755  TIP3      H2             27.5050759844        1.6825720123      -22.4413928737  TIP3      19563           0.0000000000
     80942     19756  TIP3      OH2            21.3367708890       -4.2391732567      -22.3113123756  TIP3      19564           0.0000000000
     80943     19756  TIP3      H1             22.2588226389       -4.2999164601      -22.0512967905  TIP3      19564           0.0000000000
     80944     19756  TIP3      H2             21.2853026555       -4.9844907913      -22.9647446831  TIP3      19564           0.0000000000
     80945     19757  TIP3      OH2            23.5150305566      -14.8605869834      -22.4070558601  TIP3      19565           0.0000000000
     80946     19757  TIP3      H1             23.9210244560      -15.5762906816      -22.9343895256  TIP3      19565           0.0000000000
     80947     19757  TIP3      H2             24.1388224461      -14.7170152764      -21.7141044738  TIP3      19565           0.0000000000
     80948     19758  TIP3      OH2            23.2445949887       -0.1360505714      -22.8220083756  TIP3      19566           0.0000000000
     80949     19758  TIP3      H1             23.1003449774        0.4406615984      -22.0514301233  TIP3      19566           0.0000000000
     80950     19758  TIP3      H2             24.1578627069       -0.4897015027      -22.7495526854  TIP3      19566           0.0000000000
     80951     19759  TIP3      OH2           -18.7895571330       16.0152866888      -22.3474741494  TIP3      19567           0.0000000000
     80952     19759  TIP3      H1            -18.7547247799       16.9846540742      -22.2000872539  TIP3      19567           0.0000000000
     80953     19759  TIP3      H2            -17.8695373279       15.8300473599      -22.4534818768  TIP3      19567           0.0000000000
     80954     19760  TIP3      OH2           -35.3703758188        5.7562168511      -20.7886518276  TIP3      19568           0.0000000000
     80955     19760  TIP3      H1            -34.7225979664        6.3801709130      -21.1859801208  TIP3      19568           0.0000000000
     80956     19760  TIP3      H2            -35.9287841247        6.3712464697      -20.3122771000  TIP3      19568           0.0000000000
     80957     19761  TIP3      OH2           -25.8090420767       14.1499851485      -20.8870186723  TIP3      19569           0.0000000000
     80958     19761  TIP3      H1            -26.0261138403       14.9472242886      -20.4069733457  TIP3      19569           0.0000000000
     80959     19761  TIP3      H2            -26.4418779134       13.5033433469      -20.5744326152  TIP3      19569           0.0000000000
     80960     19762  TIP3      OH2           -18.1577763515       18.7563328858      -21.8112640194  TIP3      19570           0.0000000000
     80961     19762  TIP3      H1            -17.4307959957       19.3798848057      -21.9411881721  TIP3      19570           0.0000000000
     80962     19762  TIP3      H2            -18.8526065581       19.3311533090      -21.4434605163  TIP3      19570           0.0000000000
     80963     19763  TIP3      OH2           -30.8690544533        4.2946037344      -20.7236556935  TIP3      19571           0.0000000000
     80964     19763  TIP3      H1            -30.9860687730        5.2174303930      -20.4123089873  TIP3      19571           0.0000000000
     80965     19763  TIP3      H2            -29.9505782692        4.1364249131      -20.5328654422  TIP3      19571           0.0000000000
     80966     19764  TIP3      OH2           -34.2916725297        7.5634880610      -22.7534688792  TIP3      19572           0.0000000000
     80967     19764  TIP3      H1            -34.2448105978        8.3893173200      -22.2331961825  TIP3      19572           0.0000000000
     80968     19764  TIP3      H2            -35.2077976870        7.3009332049      -22.8252735561  TIP3      19572           0.0000000000
     80969     19765  TIP3      OH2           -26.5622367283       17.2643615843      -23.5052335551  TIP3      19573           0.0000000000
     80970     19765  TIP3      H1            -27.1498963088       16.6421519332      -23.0617593059  TIP3      19573           0.0000000000
     80971     19765  TIP3      H2            -25.7547284574       16.7366656150      -23.6368720519  TIP3      19573           0.0000000000
     80972     19766  TIP3      OH2           -21.9446690538       17.0316566662      -23.2976637519  TIP3      19574           0.0000000000
     80973     19766  TIP3      H1            -21.5973215003       16.3469403903      -22.7119545774  TIP3      19574           0.0000000000
     80974     19766  TIP3      H2            -21.1595061639       17.3381929280      -23.7550749850  TIP3      19574           0.0000000000
     80975     19767  TIP3      OH2           -20.6598520927        5.0721395877      -23.4673912713  TIP3      19575           0.0000000000
     80976     19767  TIP3      H1            -19.9959284181        4.7012047947      -22.8515714778  TIP3      19575           0.0000000000
     80977     19767  TIP3      H2            -21.4460031802        4.5917238997      -23.2468678952  TIP3      19575           0.0000000000
     80978     19768  TIP3      OH2           -18.5354217783        3.9444992233      -21.8939833171  TIP3      19576           0.0000000000
     80979     19768  TIP3      H1            -18.1665712153        3.2238626497      -22.4428583284  TIP3      19576           0.0000000000
     80980     19768  TIP3      H2            -17.8263911383        4.5923668588      -21.8671048119  TIP3      19576           0.0000000000
     80981     19769  TIP3      OH2           -34.9766394966        1.9749231578      -20.8759646476  TIP3      19577           0.0000000000
     80982     19769  TIP3      H1            -34.4672395864        2.6325231015      -21.3768732498  TIP3      19577           0.0000000000
     80983     19769  TIP3      H2            -35.5703579083        2.5450972186      -20.3774920763  TIP3      19577           0.0000000000
     80984     19770  TIP3      OH2           -33.1374719407        3.9142157212      -22.3626829731  TIP3      19578           0.0000000000
     80985     19770  TIP3      H1            -32.5863069725        3.3355347913      -22.9083371767  TIP3      19578           0.0000000000
     80986     19770  TIP3      H2            -32.4702593007        4.2014579749      -21.7076933425  TIP3      19578           0.0000000000
     80987     19771  TIP3      OH2            -7.1538563051        9.0280221662      -22.1933885159  TIP3      19579           0.0000000000
     80988     19771  TIP3      H1             -6.4107872214        9.0632223361      -21.5837393413  TIP3      19579           0.0000000000
     80989     19771  TIP3      H2             -6.8153930416        8.3578025000      -22.7957621599  TIP3      19579           0.0000000000
     80990     19772  TIP3      OH2           -12.3328973519        8.1857721290      -21.8171138938  TIP3      19580           0.0000000000
     80991     19772  TIP3      H1            -12.8418627794        7.7008157251      -22.4875096958  TIP3      19580           0.0000000000
     80992     19772  TIP3      H2            -11.4947834114        8.2633680424      -22.2738574585  TIP3      19580           0.0000000000
     80993     19773  TIP3      OH2            -6.8136163023       14.1206888301      -20.7988329818  TIP3      19581           0.0000000000
     80994     19773  TIP3      H1             -7.1218750583       14.9649056519      -20.4456485305  TIP3      19581           0.0000000000
     80995     19773  TIP3      H2             -7.5605068906       13.5501534805      -20.6566615245  TIP3      19581           0.0000000000
     80996     19774  TIP3      OH2           -15.7272163261       10.3233604233      -22.0683232581  TIP3      19582           0.0000000000
     80997     19774  TIP3      H1            -15.0901988002       10.9310343654      -21.6696212957  TIP3      19582           0.0000000000
     80998     19774  TIP3      H2            -16.5795463796       10.7012723282      -21.8296759369  TIP3      19582           0.0000000000
     80999     19775  TIP3      OH2            -9.6656914242       15.4781504192      -23.5429111882  TIP3      19583           0.0000000000
     81000     19775  TIP3      H1             -9.5006216980       14.7118516724      -24.1213824282  TIP3      19583           0.0000000000
     81001     19775  TIP3      H2             -9.9873629828       15.0273757197      -22.7573509434  TIP3      19583           0.0000000000
     81002     19776  TIP3      OH2           -13.7586298833       14.9166337285      -21.7560012762  TIP3      19584           0.0000000000
     81003     19776  TIP3      H1            -13.1188397761       15.5539420326      -21.4311000259  TIP3      19584           0.0000000000
     81004     19776  TIP3      H2            -13.2438184923       14.3858815031      -22.3900325904  TIP3      19584           0.0000000000
     81005     19777  TIP3      OH2           -15.3809287958        7.5625579687      -22.6062307877  TIP3      19585           0.0000000000
     81006     19777  TIP3      H1            -15.4053903923        8.5072967455      -22.3581436019  TIP3      19585           0.0000000000
     81007     19777  TIP3      H2            -16.2803162354        7.3341797233      -22.8423116703  TIP3      19585           0.0000000000
     81008     19778  TIP3      OH2            -7.6214228789       17.3250168969      -23.4176457041  TIP3      19586           0.0000000000
     81009     19778  TIP3      H1             -8.2814725861       16.6615068501      -23.1404601952  TIP3      19586           0.0000000000
     81010     19778  TIP3      H2             -6.8748236617       16.7551122338      -23.6386271141  TIP3      19586           0.0000000000
     81011     19779  TIP3      OH2           -12.1094263061       13.0466208917      -23.3345499684  TIP3      19587           0.0000000000
     81012     19779  TIP3      H1            -12.0468826216       12.2141991502      -22.8443291980  TIP3      19587           0.0000000000
     81013     19779  TIP3      H2            -11.4204888061       12.8950132292      -24.0117392065  TIP3      19587           0.0000000000
     81014     19780  TIP3      OH2            -6.7828771002       14.1139275759      -23.6302167256  TIP3      19588           0.0000000000
     81015     19780  TIP3      H1             -6.9800647413       14.2193786108      -22.6910496393  TIP3      19588           0.0000000000
     81016     19780  TIP3      H2             -6.9427355217       13.1536208379      -23.7544133058  TIP3      19588           0.0000000000
     81017     19781  TIP3      OH2           -14.2290087879        3.9150250865      -22.3770490296  TIP3      19589           0.0000000000
     81018     19781  TIP3      H1            -13.7079244171        3.2993810469      -22.9103119760  TIP3      19589           0.0000000000
     81019     19781  TIP3      H2            -13.5958804730        4.2146388707      -21.7126631811  TIP3      19589           0.0000000000
     81020     19782  TIP3      OH2            14.3617329377       18.8690866832      -21.7444265557  TIP3      19590           0.0000000000
     81021     19782  TIP3      H1             14.6148075127       18.0580864558      -22.1803828456  TIP3      19590           0.0000000000
     81022     19782  TIP3      H2             14.2753874160       18.6108360129      -20.8109411762  TIP3      19590           0.0000000000
     81023     19783  TIP3      OH2            15.4322817396       11.0548843434      -22.8994306318  TIP3      19591           0.0000000000
     81024     19783  TIP3      H1             15.4994163963       10.8999738383      -23.8601722718  TIP3      19591           0.0000000000
     81025     19783  TIP3      H2             16.3151590300       11.4376798415      -22.7271165991  TIP3      19591           0.0000000000
     81026     19784  TIP3      OH2             7.8749295283        5.2510993995      -23.2010364792  TIP3      19592           0.0000000000
     81027     19784  TIP3      H1              7.4465899201        4.9604164090      -22.3888949961  TIP3      19592           0.0000000000
     81028     19784  TIP3      H2              7.1935447306        5.7746849952      -23.6521229237  TIP3      19592           0.0000000000
     81029     19785  TIP3      OH2            12.0080650595       14.1053001437      -20.8761119038  TIP3      19593           0.0000000000
     81030     19785  TIP3      H1             11.7237550338       14.9155134923      -20.4360713425  TIP3      19593           0.0000000000
     81031     19785  TIP3      H2             11.3001309387       13.5043810854      -20.5721679137  TIP3      19593           0.0000000000
     81032     19786  TIP3      OH2             3.1114113477       10.3379804170      -22.0428620683  TIP3      19594           0.0000000000
     81033     19786  TIP3      H1              3.7770065878       10.9214210213      -21.6563640100  TIP3      19594           0.0000000000
     81034     19786  TIP3      H2              2.2681396287       10.7392380784      -21.8564662964  TIP3      19594           0.0000000000
     81035     19787  TIP3      OH2             9.1655429646       15.3768592695      -23.6307160407  TIP3      19595           0.0000000000
     81036     19787  TIP3      H1              9.3669601200       14.5780367903      -24.1310708223  TIP3      19595           0.0000000000
     81037     19787  TIP3      H2              8.9327766762       15.0235607508      -22.7551505269  TIP3      19595           0.0000000000
     81038     19788  TIP3      OH2             5.1114492408       14.9053641693      -21.7815339038  TIP3      19596           0.0000000000
     81039     19788  TIP3      H1              5.7708269878       15.4813907456      -21.3832649301  TIP3      19596           0.0000000000
     81040     19788  TIP3      H2              5.6546746251       14.3758860327      -22.3971558502  TIP3      19596           0.0000000000
     81041     19789  TIP3      OH2             6.6712901939       13.0187717219      -23.4021400796  TIP3      19597           0.0000000000
     81042     19789  TIP3      H1              6.8356282055       12.2670021967      -22.8000955359  TIP3      19597           0.0000000000
     81043     19789  TIP3      H2              7.4593662917       12.8987703209      -23.9706861369  TIP3      19597           0.0000000000
     81044     19790  TIP3      OH2            12.1676592074       14.1071081691      -23.6157574710  TIP3      19598           0.0000000000
     81045     19790  TIP3      H1             11.8859615764       14.2381041257      -22.6937909487  TIP3      19598           0.0000000000
     81046     19790  TIP3      H2             11.8710527956       13.1836463592      -23.7409657254  TIP3      19598           0.0000000000
     81047     19791  TIP3      OH2            18.2975889796       11.5379648760      -23.3762616221  TIP3      19599           0.0000000000
     81048     19791  TIP3      H1             18.1166913822       11.1813879557      -24.2593295774  TIP3      19599           0.0000000000
     81049     19791  TIP3      H2             18.4567257393       12.4767552563      -23.4999267882  TIP3      19599           0.0000000000
     81050     19792  TIP3      OH2             2.4092788245       14.5179252425      -22.2490375923  TIP3      19600           0.0000000000
     81051     19792  TIP3      H1              3.3501975382       14.6523313738      -22.0264231166  TIP3      19600           0.0000000000
     81052     19792  TIP3      H2              2.4262027150       13.8836192964      -22.9868938439  TIP3      19600           0.0000000000
     81053     19793  TIP3      OH2             2.7476256486        1.9903869576      -20.8921091850  TIP3      19601           0.0000000000
     81054     19793  TIP3      H1              3.2137243186        2.6897374024      -21.3552766976  TIP3      19601           0.0000000000
     81055     19793  TIP3      H2              2.1331522740        2.4908419193      -20.3121914417  TIP3      19601           0.0000000000
     81056     19794  TIP3      OH2             4.6016736027        3.8707844440      -22.4025053795  TIP3      19602           0.0000000000
     81057     19794  TIP3      H1              5.1656198493        3.2700062642      -22.8957766623  TIP3      19602           0.0000000000
     81058     19794  TIP3      H2              5.1698328636        4.2334904412      -21.7048948789  TIP3      19602           0.0000000000
     81059     19795  TIP3      OH2             4.5387281339       18.9157674936      -22.9360810555  TIP3      19603           0.0000000000
     81060     19795  TIP3      H1              4.1514605673       19.1343418301      -22.0719938393  TIP3      19603           0.0000000000
     81061     19795  TIP3      H2              5.1844244706       18.2373255116      -22.7013774092  TIP3      19603           0.0000000000
     81062     19796  TIP3      OH2            30.6141611860        9.1030670303      -22.2038976053  TIP3      19604           0.0000000000
     81063     19796  TIP3      H1             31.3065562612        9.1060476346      -21.5178902604  TIP3      19604           0.0000000000
     81064     19796  TIP3      H2             30.9723171457        8.4417658723      -22.8060694811  TIP3      19604           0.0000000000
     81065     19797  TIP3      OH2            32.8503550056        9.9669856726      -20.5611983291  TIP3      19605           0.0000000000
     81066     19797  TIP3      H1             33.4579431844       10.1103564013      -19.8209470549  TIP3      19605           0.0000000000
     81067     19797  TIP3      H2             33.2366383496       10.4033279376      -21.3263348566  TIP3      19605           0.0000000000
     81068     19798  TIP3      OH2            32.9599219730       18.7705211543      -21.8341801977  TIP3      19606           0.0000000000
     81069     19798  TIP3      H1             33.5572485560       18.0882876992      -22.1921657761  TIP3      19606           0.0000000000
     81070     19798  TIP3      H2             33.1501695651       18.6227601016      -20.8853274685  TIP3      19606           0.0000000000
     81071     19799  TIP3      OH2            33.6395924707       10.6778476958      -23.1925060844  TIP3      19607           0.0000000000
     81072     19799  TIP3      H1             33.9831853107       10.5180157582      -24.1079633390  TIP3      19607           0.0000000000
     81073     19799  TIP3      H2             34.4688213807       11.0257358965      -22.9084947307  TIP3      19607           0.0000000000
     81074     19800  TIP3      OH2            29.9641535755        4.8862699921      -22.2885791824  TIP3      19608           0.0000000000
     81075     19800  TIP3      H1             29.6340790053        4.9148317980      -21.3894864234  TIP3      19608           0.0000000000
     81076     19800  TIP3      H2             29.6091356971        4.0395212112      -22.6132203869  TIP3      19608           0.0000000000
     81077     19801  TIP3      OH2            26.7564653729        5.2948142154      -23.1547574513  TIP3      19609           0.0000000000
     81078     19801  TIP3      H1             26.2646802319        4.9020957752      -22.4061400059  TIP3      19609           0.0000000000
     81079     19801  TIP3      H2             26.0649238966        5.7244899088      -23.6839325464  TIP3      19609           0.0000000000
     81080     19802  TIP3      OH2            21.3116293015        5.7933733801      -20.7255491207  TIP3      19610           0.0000000000
     81081     19802  TIP3      H1             21.7664390216        6.4201927115      -21.2740590331  TIP3      19610           0.0000000000
     81082     19802  TIP3      H2             20.5656606885        6.2760607346      -20.3361389517  TIP3      19610           0.0000000000
     81083     19803  TIP3      OH2            32.6454802308        5.4797747212      -21.6111301484  TIP3      19611           0.0000000000
     81084     19803  TIP3      H1             31.7026379311        5.5993560321      -21.8334743265  TIP3      19611           0.0000000000
     81085     19803  TIP3      H2             32.9138537598        6.3616569194      -21.3468074435  TIP3      19611           0.0000000000
     81086     19804  TIP3      OH2            25.7395572836        4.4304536040      -20.7740511697  TIP3      19612           0.0000000000
     81087     19804  TIP3      H1             25.6735426780        5.3164153711      -20.3882720410  TIP3      19612           0.0000000000
     81088     19804  TIP3      H2             26.6259935811        4.1668193714      -20.5127235618  TIP3      19612           0.0000000000
     81089     19805  TIP3      OH2            34.5867721320       17.0100012960      -23.2545991859  TIP3      19613           0.0000000000
     81090     19805  TIP3      H1             34.9868468297       16.4001332739      -22.6245323189  TIP3      19613           0.0000000000
     81091     19805  TIP3      H2             35.3689751376       17.2700106419      -23.7813058987  TIP3      19613           0.0000000000
     81092     19806  TIP3      OH2            27.7800744634        9.1897000928      -22.7752518159  TIP3      19614           0.0000000000
     81093     19806  TIP3      H1             27.6800137354        9.1285420260      -23.7311696752  TIP3      19614           0.0000000000
     81094     19806  TIP3      H2             28.7414733541        9.3433235172      -22.6663961827  TIP3      19614           0.0000000000
     81095     19807  TIP3      OH2            21.2928427785       14.5818973736      -22.3888298650  TIP3      19615           0.0000000000
     81096     19807  TIP3      H1             22.1803770806       14.5655697960      -22.0187280985  TIP3      19615           0.0000000000
     81097     19807  TIP3      H2             21.2698691681       13.8141453988      -22.9506114060  TIP3      19615           0.0000000000
     81098     19808  TIP3      OH2            35.9669557953        5.0564441834      -23.4686896804  TIP3      19616           0.0000000000
     81099     19808  TIP3      H1             36.5620054963        4.6994611070      -22.7975784355  TIP3      19616           0.0000000000
     81100     19808  TIP3      H2             35.1091970896        4.6382458339      -23.2795990831  TIP3      19616           0.0000000000
     81101     19809  TIP3      OH2            21.6168113639        1.9430611129      -20.8113133022  TIP3      19617           0.0000000000
     81102     19809  TIP3      H1             22.0513633356        2.5956997679      -21.3823929358  TIP3      19617           0.0000000000
     81103     19809  TIP3      H2             20.9936066956        2.5450311074      -20.3734985357  TIP3      19617           0.0000000000
     81104     19810  TIP3      OH2            23.4992504771        3.9364672379      -22.3951512781  TIP3      19618           0.0000000000
     81105     19810  TIP3      H1             23.9723899481        3.2713734418      -22.9124922017  TIP3      19618           0.0000000000
     81106     19810  TIP3      H2             24.1014219107        4.1429891110      -21.6653613683  TIP3      19618           0.0000000000
     81107     19811  TIP3      OH2            30.3378270434       19.2547553541      -21.5613926154  TIP3      19619           0.0000000000
     81108     19811  TIP3      H1             31.2788359613       19.4206432845      -21.6969288866  TIP3      19619           0.0000000000
     81109     19811  TIP3      H2             30.0921814608       18.6785221884      -22.2712932738  TIP3      19619           0.0000000000
     81110     19812  TIP3      OH2           -25.9234917352       27.9135235050      -22.2080764997  TIP3      19620           0.0000000000
     81111     19812  TIP3      H1            -25.2484191853       27.9453701061      -21.5246238284  TIP3      19620           0.0000000000
     81112     19812  TIP3      H2            -25.5764304512       27.2633743066      -22.8165277754  TIP3      19620           0.0000000000
     81113     19813  TIP3      OH2           -18.8131560974       34.9246202454      -22.4593951675  TIP3      19621           0.0000000000
     81114     19813  TIP3      H1            -18.7199671397       35.8502501761      -22.2141354337  TIP3      19621           0.0000000000
     81115     19813  TIP3      H2            -17.8950066222       34.6072734571      -22.3667356692  TIP3      19621           0.0000000000
     81116     19814  TIP3      OH2           -22.2783071150       29.8872522076      -22.9045006442  TIP3      19622           0.0000000000
     81117     19814  TIP3      H1            -22.2288018865       29.6428140640      -23.8498240397  TIP3      19622           0.0000000000
     81118     19814  TIP3      H2            -21.3969036614       30.2745871219      -22.7442338713  TIP3      19622           0.0000000000
     81119     19815  TIP3      OH2           -31.1959481235       26.9144583628      -21.7691079412  TIP3      19623           0.0000000000
     81120     19815  TIP3      H1            -31.6833606488       26.5592978477      -22.5218120655  TIP3      19623           0.0000000000
     81121     19815  TIP3      H2            -30.3641263334       27.1359069721      -22.2073844222  TIP3      19623           0.0000000000
     81122     19816  TIP3      OH2           -34.5722735273       29.2514849662      -22.1769585365  TIP3      19624           0.0000000000
     81123     19816  TIP3      H1            -34.0041890466       29.7712753492      -21.5923517738  TIP3      19624           0.0000000000
     81124     19816  TIP3      H2            -35.4385412727       29.4538617198      -21.7818205601  TIP3      19624           0.0000000000
     81125     19817  TIP3      OH2           -22.5862840554       33.1251741992      -22.0986995190  TIP3      19625           0.0000000000
     81126     19817  TIP3      H1            -22.2417621317       32.8780045244      -21.2230274461  TIP3      19625           0.0000000000
     81127     19817  TIP3      H2            -23.5316549986       33.0937687250      -21.9258053001  TIP3      19625           0.0000000000
     81128     19818  TIP3      OH2           -26.4716010440       36.0948050511      -23.4001161289  TIP3      19626           0.0000000000
     81129     19818  TIP3      H1            -27.1427096671       35.4903200307      -23.0826016553  TIP3      19626           0.0000000000
     81130     19818  TIP3      H2            -25.7553607865       35.5423860797      -23.7297789330  TIP3      19626           0.0000000000
     81131     19819  TIP3      OH2           -21.9855268396       35.9083284063      -23.2678896679  TIP3      19627           0.0000000000
     81132     19819  TIP3      H1            -21.6131115715       35.2134506842      -22.6979359891  TIP3      19627           0.0000000000
     81133     19819  TIP3      H2            -21.1743773660       36.1679967354      -23.7518074138  TIP3      19627           0.0000000000
     81134     19820  TIP3      OH2           -25.5683119383       32.9687444080      -23.5881230598  TIP3      19628           0.0000000000
     81135     19820  TIP3      H1            -25.9398141528       33.0507478641      -22.7051796750  TIP3      19628           0.0000000000
     81136     19820  TIP3      H2            -25.7502519545       32.0181274119      -23.7769513329  TIP3      19628           0.0000000000
     81137     19821  TIP3      OH2           -19.3951027045       30.4397338301      -23.3309298930  TIP3      19629           0.0000000000
     81138     19821  TIP3      H1            -19.5971004477       30.0460566061      -24.1828330044  TIP3      19629           0.0000000000
     81139     19821  TIP3      H2            -19.3003434425       31.3890979089      -23.5140407080  TIP3      19629           0.0000000000
     81140     19822  TIP3      OH2           -35.2979604761       33.4627289886      -22.3134639865  TIP3      19630           0.0000000000
     81141     19822  TIP3      H1            -34.4024054081       33.4724395984      -21.9748671437  TIP3      19630           0.0000000000
     81142     19822  TIP3      H2            -35.2758120088       32.7133344627      -22.9360597820  TIP3      19630           0.0000000000
     81143     19823  TIP3      OH2           -20.5914265148       23.9928313618      -23.4444481710  TIP3      19631           0.0000000000
     81144     19823  TIP3      H1            -19.9445221766       23.5915119564      -22.8594184490  TIP3      19631           0.0000000000
     81145     19823  TIP3      H2            -21.4039997468       23.5498075111      -23.2422204284  TIP3      19631           0.0000000000
     81146     19824  TIP3      OH2           -33.1222527701       22.8106468173      -22.3839727969  TIP3      19632           0.0000000000
     81147     19824  TIP3      H1            -32.6107622843       22.1609584604      -22.9081221738  TIP3      19632           0.0000000000
     81148     19824  TIP3      H2            -32.4830332955       23.0571004013      -21.7062217556  TIP3      19632           0.0000000000
     81149     19825  TIP3      OH2            -7.0222404887       27.9923914460      -22.3083908712  TIP3      19633           0.0000000000
     81150     19825  TIP3      H1             -6.4720316832       27.9693347003      -21.5045667978  TIP3      19633           0.0000000000
     81151     19825  TIP3      H2             -6.7093465400       27.2356505250      -22.8048821514  TIP3      19633           0.0000000000
     81152     19826  TIP3      OH2            -3.4030563775       29.8823760789      -22.9247481242  TIP3      19634           0.0000000000
     81153     19826  TIP3      H1             -3.3724727631       29.6808742348      -23.8805475068  TIP3      19634           0.0000000000
     81154     19826  TIP3      H2             -2.5378344030       30.2856396595      -22.7868648200  TIP3      19634           0.0000000000
     81155     19827  TIP3      OH2           -10.9492006512       24.1184287577      -23.1741113499  TIP3      19635           0.0000000000
     81156     19827  TIP3      H1            -11.4423122806       23.7843317028      -22.4107141874  TIP3      19635           0.0000000000
     81157     19827  TIP3      H2            -11.6303591451       24.5668930544      -23.7032125358  TIP3      19635           0.0000000000
     81158     19828  TIP3      OH2           -12.2312383556       26.8740534143      -21.7503507531  TIP3      19636           0.0000000000
     81159     19828  TIP3      H1            -12.8459657434       26.5910816001      -22.4438109442  TIP3      19636           0.0000000000
     81160     19828  TIP3      H2            -11.4770377503       27.1160129691      -22.2903969517  TIP3      19636           0.0000000000
     81161     19829  TIP3      OH2            -6.7962927678       32.9140492019      -20.7906264343  TIP3      19637           0.0000000000
     81162     19829  TIP3      H1             -7.1435116627       33.7899640196      -20.5425687134  TIP3      19637           0.0000000000
     81163     19829  TIP3      H2             -7.5288486922       32.3389542463      -20.5526713764  TIP3      19637           0.0000000000
     81164     19830  TIP3      OH2            -3.7466023969       33.2154739497      -22.0468187904  TIP3      19638           0.0000000000
     81165     19830  TIP3      H1             -3.4753449029       32.8049746622      -21.2067474125  TIP3      19638           0.0000000000
     81166     19830  TIP3      H2             -4.7015528724       33.0649848901      -21.9401624119  TIP3      19638           0.0000000000
     81167     19831  TIP3      OH2            -9.7520047871       34.2719259382      -23.6532458290  TIP3      19639           0.0000000000
     81168     19831  TIP3      H1             -9.4936652266       33.4866809253      -24.1496813181  TIP3      19639           0.0000000000
     81169     19831  TIP3      H2             -9.9092778169       33.9050774490      -22.7708568497  TIP3      19639           0.0000000000
     81170     19832  TIP3      OH2            -8.4472351850       34.9238208845      -21.5579645118  TIP3      19640           0.0000000000
     81171     19832  TIP3      H1             -8.9408021465       35.3978507793      -20.8763431968  TIP3      19640           0.0000000000
     81172     19832  TIP3      H2             -7.6718117102       35.5431378218      -21.4089928816  TIP3      19640           0.0000000000
     81173     19833  TIP3      OH2           -12.0941576999      -36.9971801215      -21.2474049296  TIP3      19641           0.0000000000
     81174     19833  TIP3      H1            -11.7699430685      -36.2805943709      -21.8515493231  TIP3      19641           0.0000000000
     81175     19833  TIP3      H2            -11.5000195033      -36.7497538154      -20.5128029671  TIP3      19641           0.0000000000
     81176     19834  TIP3      OH2           -11.9599887828       23.3436044242      -20.7722365095  TIP3      19642           0.0000000000
     81177     19834  TIP3      H1            -12.0098684890       24.2410744026      -20.3969187696  TIP3      19642           0.0000000000
     81178     19834  TIP3      H2            -11.1230472016       23.0208474927      -20.4285593682  TIP3      19642           0.0000000000
     81179     19835  TIP3      OH2           -13.7153552554       33.7422640534      -21.7239325039  TIP3      19643           0.0000000000
     81180     19835  TIP3      H1            -13.1069102046       34.4592573071      -21.4427322833  TIP3      19643           0.0000000000
     81181     19835  TIP3      H2            -13.2253198151       33.3344041683      -22.4347390097  TIP3      19643           0.0000000000
     81182     19836  TIP3      OH2            -7.5759234416       36.2011887663      -23.5307129555  TIP3      19644           0.0000000000
     81183     19836  TIP3      H1             -8.2365969055       35.5749011077      -23.1394724528  TIP3      19644           0.0000000000
     81184     19836  TIP3      H2             -6.8587365458       35.5965508239      -23.6793965969  TIP3      19644           0.0000000000
     81185     19837  TIP3      OH2            -2.8735200357       35.9060734914      -23.0492598948  TIP3      19645           0.0000000000
     81186     19837  TIP3      H1             -2.6532326213       35.0467033546      -22.6829393098  TIP3      19645           0.0000000000
     81187     19837  TIP3      H2             -2.1615478603       36.0975472261      -23.6945028258  TIP3      19645           0.0000000000
     81188     19838  TIP3      OH2            -6.7173320468       32.9772295715      -23.5964443431  TIP3      19646           0.0000000000
     81189     19838  TIP3      H1             -7.0061863882       33.1023171685      -22.6789735018  TIP3      19646           0.0000000000
     81190     19838  TIP3      H2             -6.9287675697       32.0276346718      -23.7293137696  TIP3      19646           0.0000000000
     81191     19839  TIP3      OH2            -0.5713347420       30.4300681927      -23.3344049653  TIP3      19647           0.0000000000
     81192     19839  TIP3      H1             -0.7360896769       30.0539003654      -24.2120019429  TIP3      19647           0.0000000000
     81193     19839  TIP3      H2             -0.4346864645       31.3870193239      -23.5248161522  TIP3      19647           0.0000000000
     81194     19840  TIP3      OH2           -16.4486928857       33.4505143672      -22.3437817624  TIP3      19648           0.0000000000
     81195     19840  TIP3      H1            -15.5325713622       33.4516861007      -22.0141910145  TIP3      19648           0.0000000000
     81196     19840  TIP3      H2            -16.4479434129       32.6688105444      -22.9381277916  TIP3      19648           0.0000000000
     81197     19841  TIP3      OH2             0.6082043196       29.2248943712      -21.1492280243  TIP3      19649           0.0000000000
     81198     19841  TIP3      H1              0.1483637825       29.6528731091      -21.8953476204  TIP3      19649           0.0000000000
     81199     19841  TIP3      H2              0.6008402878       29.9322941022      -20.4877308737  TIP3      19649           0.0000000000
     81200     19842  TIP3      OH2             0.3387274731       22.8754453322      -21.9643934322  TIP3      19650           0.0000000000
     81201     19842  TIP3      H1              0.7157545279       22.0631477229      -22.3727881834  TIP3      19650           0.0000000000
     81202     19842  TIP3      H2              1.1021244646       23.4499089056      -21.8067644136  TIP3      19650           0.0000000000
     81203     19843  TIP3      OH2           -14.2534070191       22.7669549231      -22.3172495343  TIP3      19651           0.0000000000
     81204     19843  TIP3      H1            -13.7742712042       22.1706394920      -22.9146888183  TIP3      19651           0.0000000000
     81205     19843  TIP3      H2            -13.5491865596       23.0876099741      -21.7349600324  TIP3      19651           0.0000000000
     81206     19844  TIP3      OH2            17.7008461072       20.5430242046      -20.7962985442  TIP3      19652           0.0000000000
     81207     19844  TIP3      H1             16.8104444912       20.7043743653      -20.4693448202  TIP3      19652           0.0000000000
     81208     19844  TIP3      H2             17.9611258699       21.4077880579      -21.1417171097  TIP3      19652           0.0000000000
     81209     19845  TIP3      OH2             7.9265553525       24.1768876070      -23.1443877979  TIP3      19653           0.0000000000
     81210     19845  TIP3      H1              7.4166328052       23.7783078288      -22.4154906462  TIP3      19653           0.0000000000
     81211     19845  TIP3      H2              7.2235088108       24.5686052938      -23.6895673766  TIP3      19653           0.0000000000
     81212     19846  TIP3      OH2             2.4168772244       24.6323975134      -20.7292679296  TIP3      19654           0.0000000000
     81213     19846  TIP3      H1              2.9674070283       25.2270781403      -21.2669114646  TIP3      19654           0.0000000000
     81214     19846  TIP3      H2              1.7478253238       25.2022526584      -20.3488474255  TIP3      19654           0.0000000000
     81215     19847  TIP3      OH2             6.9169184605       23.3183106793      -20.8260790075  TIP3      19655           0.0000000000
     81216     19847  TIP3      H1              6.7981905804       24.1604973681      -20.3661809804  TIP3      19655           0.0000000000
     81217     19847  TIP3      H2              7.7399884465       23.0080027739      -20.4410017511  TIP3      19655           0.0000000000
     81218     19848  TIP3      OH2             3.4842030166       26.4118594580      -22.5844579473  TIP3      19656           0.0000000000
     81219     19848  TIP3      H1              3.4099514336       27.3471492907      -22.4024306714  TIP3      19656           0.0000000000
     81220     19848  TIP3      H2              2.5986972973       26.1548767416      -22.8513277778  TIP3      19656           0.0000000000
     81221     19849  TIP3      OH2            11.2503088079       36.1218930766      -23.3251218855  TIP3      19657           0.0000000000
     81222     19849  TIP3      H1             10.5828919326       35.4530727987      -23.1011318197  TIP3      19657           0.0000000000
     81223     19849  TIP3      H2             11.9805915271       35.5914203910      -23.6384927291  TIP3      19657           0.0000000000
     81224     19850  TIP3      OH2            15.9161702076       35.8467367210      -23.1145496445  TIP3      19658           0.0000000000
     81225     19850  TIP3      H1             16.2490934228       35.1012332825      -22.6054796402  TIP3      19658           0.0000000000
     81226     19850  TIP3      H2             16.6574042662       36.0950156112      -23.7048492825  TIP3      19658           0.0000000000
     81227     19851  TIP3      OH2            17.0988909182       23.9501199639      -23.4549527410  TIP3      19659           0.0000000000
     81228     19851  TIP3      H1             17.6898269157       23.4982694890      -22.8392126071  TIP3      19659           0.0000000000
     81229     19851  TIP3      H2             16.2590475887       23.4963323085      -23.3269671868  TIP3      19659           0.0000000000
     81230     19852  TIP3      OH2            19.1709179400       22.8006956609      -21.8809171035  TIP3      19660           0.0000000000
     81231     19852  TIP3      H1             19.5585422292       22.0652434559      -22.4059355565  TIP3      19660           0.0000000000
     81232     19852  TIP3      H2             19.8614020782       23.4547173278      -21.8500661705  TIP3      19660           0.0000000000
     81233     19853  TIP3      OH2             4.6302358656       22.7958503335      -22.3987864790  TIP3      19661           0.0000000000
     81234     19853  TIP3      H1              5.1138961013       22.1412366171      -22.9169164487  TIP3      19661           0.0000000000
     81235     19853  TIP3      H2              5.2408879595       23.0448575694      -21.6891977206  TIP3      19661           0.0000000000
     81236     19854  TIP3      OH2            34.3900280253       29.7953679030      -22.8872670785  TIP3      19662           0.0000000000
     81237     19854  TIP3      H1             34.3130688031       29.7006294963      -23.8563749102  TIP3      19662           0.0000000000
     81238     19854  TIP3      H2             35.1722217798       30.3188516812      -22.7577473473  TIP3      19662           0.0000000000
     81239     19855  TIP3      OH2            29.9654005924       23.7177715539      -22.2963181521  TIP3      19663           0.0000000000
     81240     19855  TIP3      H1             29.6210389888       23.7131323536      -21.3954169295  TIP3      19663           0.0000000000
     81241     19855  TIP3      H2             29.5686063626       22.8829958053      -22.6095062612  TIP3      19663           0.0000000000
     81242     19856  TIP3      OH2            26.7792356430       24.1320743475      -23.2066350148  TIP3      19664           0.0000000000
     81243     19856  TIP3      H1             26.3586315000       23.6992522524      -22.4347343082  TIP3      19664           0.0000000000
     81244     19856  TIP3      H2             26.0582399894       24.5667348177      -23.6779497963  TIP3      19664           0.0000000000
     81245     19857  TIP3      OH2            32.6452175833       24.3552801470      -21.6635547767  TIP3      19665           0.0000000000
     81246     19857  TIP3      H1             31.6755919897       24.3956799683      -21.8064339229  TIP3      19665           0.0000000000
     81247     19857  TIP3      H2             32.8261608212       25.2407397465      -21.3486094134  TIP3      19665           0.0000000000
     81248     19858  TIP3      OH2            28.1959925263       34.2738269592      -23.5694066435  TIP3      19666           0.0000000000
     81249     19858  TIP3      H1             28.1794478880       33.4832675507      -24.1215713912  TIP3      19666           0.0000000000
     81250     19858  TIP3      H2             27.7213472986       33.9351637239      -22.7790149962  TIP3      19666           0.0000000000
     81251     19859  TIP3      OH2            27.0427630339       33.8662844561      -21.1155031937  TIP3      19667           0.0000000000
     81252     19859  TIP3      H1             27.1242230745       33.4121816852      -20.2946383869  TIP3      19667           0.0000000000
     81253     19859  TIP3      H2             26.8534194302       34.7692271701      -20.8388887494  TIP3      19667           0.0000000000
     81254     19860  TIP3      OH2            29.6852345919       35.5561076619      -20.2838238774  TIP3      19668           0.0000000000
     81255     19860  TIP3      H1             28.8935184572       36.0745639199      -20.3217076545  TIP3      19668           0.0000000000
     81256     19860  TIP3      H2             30.2309374374       35.9611106956      -20.9782251258  TIP3      19668           0.0000000000
     81257     19861  TIP3      OH2            30.1291863421       36.1619706713      -23.2997481334  TIP3      19669           0.0000000000
     81258     19861  TIP3      H1             29.4011097851       35.5104071677      -23.1866512420  TIP3      19669           0.0000000000
     81259     19861  TIP3      H2             30.8499304448       35.6357624097      -23.6417603475  TIP3      19669           0.0000000000
     81260     19862  TIP3      OH2            34.8126570860       35.8395168467      -23.0747625783  TIP3      19670           0.0000000000
     81261     19862  TIP3      H1             35.0778715808       35.0182053832      -22.6689643245  TIP3      19670           0.0000000000
     81262     19862  TIP3      H2             35.5157441908       36.0779446495      -23.7063194281  TIP3      19670           0.0000000000
     81263     19863  TIP3      OH2            25.5406953692       31.8424018399      -23.3979748228  TIP3      19671           0.0000000000
     81264     19863  TIP3      H1             25.6481729929       31.0914974112      -22.7997515292  TIP3      19671           0.0000000000
     81265     19863  TIP3      H2             26.2961395667       31.7498894444      -24.0009460035  TIP3      19671           0.0000000000
     81266     19864  TIP3      OH2            27.8553821761       28.0866850068      -22.7384945783  TIP3      19672           0.0000000000
     81267     19864  TIP3      H1             27.6540811512       28.0186103934      -23.6821853058  TIP3      19672           0.0000000000
     81268     19864  TIP3      H2             28.8029788473       28.1785636150      -22.7315902505  TIP3      19672           0.0000000000
     81269     19865  TIP3      OH2            21.2837252158       33.4385050706      -22.3982733641  TIP3      19673           0.0000000000
     81270     19865  TIP3      H1             22.1728182963       33.4195744865      -22.0144091732  TIP3      19673           0.0000000000
     81271     19865  TIP3      H2             21.2843748377       32.6435392807      -22.9608169648  TIP3      19673           0.0000000000
     81272     19866  TIP3      OH2            35.8480427607       24.5097804504      -23.7149289408  TIP3      19674           0.0000000000
     81273     19866  TIP3      H1             36.5228752941       24.0314138114      -23.2035393974  TIP3      19674           0.0000000000
     81274     19866  TIP3      H2             35.0762907630       23.9400171939      -23.4958189461  TIP3      19674           0.0000000000
     81275     19867  SOD       SOD            20.8067019397       31.0949927768      -37.7416834496  IONS      1               1.0000000000
     81276     19868  SOD       SOD             2.9397089335      -36.1712025742      -52.9726679057  IONS      2               1.0000000000
     81277     19869  SOD       SOD            28.1142581185      -30.2783881157       64.5387317304  IONS      3               1.0000000000
     81278     19870  SOD       SOD             2.1647288366      -15.4731674050       45.3590358468  IONS      4               1.0000000000
     81279     19871  SOD       SOD            -0.1438951074       24.8098462284      -59.3763733663  IONS      5               1.0000000000
     81280     19872  SOD       SOD           -16.7925366018       13.9668697091      -68.4139028666  IONS      6               1.0000000000
     81281     19873  SOD       SOD           -16.3594619049       20.8904145517      -75.1108165064  IONS      7               1.0000000000
     81282     19874  SOD       SOD            -3.2203226890       -5.9884720070      -42.5799176020  IONS      8               1.0000000000
     81283     19875  SOD       SOD           -33.2634299630      -12.9067692513      -57.3885373940  IONS      9               1.0000000000
     81284     19876  SOD       SOD           -32.5705484718      -28.0419635304       74.1957849986  IONS      10              1.0000000000
     81285     19877  SOD       SOD            13.4692176422      -15.7926863989      -32.3281599458  IONS      11              1.0000000000
     81286     19878  SOD       SOD            11.2758983020       -7.6211070010      -59.4597904334  IONS      12              1.0000000000
     81287     19879  SOD       SOD            16.5518878115       12.0347110918       75.1345106865  IONS      13              1.0000000000
     81288     19880  SOD       SOD           -17.2486559620        9.5905738675       76.8811038846  IONS      14              1.0000000000
     81289     19881  SOD       SOD            30.4509118764        5.6835131291      -52.0458833514  IONS      15              1.0000000000
     81290     19882  SOD       SOD             8.8850789627       29.9272100930       46.0800775887  IONS      16              1.0000000000
     81291     19883  SOD       SOD            -8.3578489651       12.1523577762      -74.6961147972  IONS      17              1.0000000000
     81292     19884  SOD       SOD             0.4508276974        6.8399063691       47.9049402639  IONS      18              1.0000000000
     81293     19885  SOD       SOD           -30.9946235569        5.9578035699       25.8302836691  IONS      19              1.0000000000
     81294     19886  SOD       SOD            22.4497292115      -15.0093592589      -39.1154167888  IONS      20              1.0000000000
     81295     19887  SOD       SOD           -29.1039381591       31.4377464610      -33.3965604475  IONS      21              1.0000000000
     81296     19888  SOD       SOD            21.0133823903        6.2754334803       35.1405784151  IONS      22              1.0000000000
     81297     19889  SOD       SOD            34.0154792520       21.0991827870       78.8868468643  IONS      23              1.0000000000
     81298     19890  SOD       SOD            18.8315195997       19.3111972477       66.0707738899  IONS      24              1.0000000000
     81299     19891  SOD       SOD           -16.0159288858      -33.9468175017       38.4076554270  IONS      25              1.0000000000
     81300     19892  SOD       SOD           -31.5169582548      -14.5707454726       76.3162488288  IONS      26              1.0000000000
     81301     19893  SOD       SOD            -1.4136536738        8.7473416523       66.6089239204  IONS      27              1.0000000000
     81302     19894  SOD       SOD            22.1597176760       -1.5270803124      -21.3020210876  IONS      28              1.0000000000
     81303     19895  SOD       SOD           -15.1024567033       26.5871129831      -62.9032668089  IONS      29              1.0000000000
     81304     19896  SOD       SOD            27.1026031550      -25.2099384188       30.3196273456  IONS      30              1.0000000000
     81305     19897  SOD       SOD           -27.2884398063      -18.5307770750       26.8176767820  IONS      31              1.0000000000
     81306     19898  SOD       SOD            27.1002061262       22.9192246442       64.9135213838  IONS      32              1.0000000000
     81307     19899  SOD       SOD            14.3558029614       13.1487164384       64.5530452417  IONS      33              1.0000000000
     81308     19900  SOD       SOD             9.3640175416      -31.9389202613       72.4758364281  IONS      34              1.0000000000
     81309     19901  SOD       SOD           -35.9766669558      -19.9860665204       29.7084921555  IONS      35              1.0000000000
     81310     19902  SOD       SOD            10.3238487399       30.4846790302      -74.2667085570  IONS      36              1.0000000000
     81311     19903  SOD       SOD           -11.3942097427        4.0898314318      -56.7264821753  IONS      37              1.0000000000
     81312     19904  SOD       SOD           -14.4321719493      -22.3429349358       70.8302998089  IONS      38              1.0000000000
     81313     19905  SOD       SOD           -32.7851237970      -20.9893383600      -31.4315935097  IONS      39              1.0000000000
     81314     19906  SOD       SOD           -30.5038008102       19.4695652042       42.9439158552  IONS      40              1.0000000000
     81315     19907  SOD       SOD            17.5570558087      -36.2623789230       63.5062739395  IONS      41              1.0000000000
     81316     19908  SOD       SOD             7.0654723204      -34.0184632685      -45.9834048613  IONS      42              1.0000000000
     81317     19909  SOD       SOD            33.7169974316       12.6597216754      -36.3264530270  IONS      43              1.0000000000
     81318     19910  SOD       SOD            -8.9774004994       12.7395314144      -53.4945989054  IONS      44              1.0000000000
     81319     19911  SOD       SOD            16.2058587877        3.5475915685      -43.8937278520  IONS      45              1.0000000000
     81320     19912  SOD       SOD           -20.7304105590       34.4107847522       27.2898818170  IONS      46              1.0000000000
     81321     19913  SOD       SOD           -30.4039087860      -37.2117740760      -69.2932936914  IONS      47              1.0000000000
     81322     19914  SOD       SOD            -6.6059951122      -14.9682481439      -77.5648755892  IONS      48              1.0000000000
     81323     19915  SOD       SOD            32.1343263910       -8.6040854536      -26.5299896978  IONS      49              1.0000000000
     81324     19916  SOD       SOD           -12.1269230962        1.0398094772       72.3384967738  IONS      50              1.0000000000
     81325     19917  SOD       SOD            21.1464149352      -33.9561974612       75.5150491334  IONS      51              1.0000000000
     81326     19918  SOD       SOD             7.9154572234      -18.8772796632       55.0466221979  IONS      52              1.0000000000
     81327     19919  SOD       SOD           -31.2310616635       -8.4968892916      -25.8667526629  IONS      53              1.0000000000
     81328     19920  SOD       SOD            -3.9004049875      -16.5761533788       58.7521892134  IONS      54              1.0000000000
     81329     19921  SOD       SOD            25.9221886158        2.8476434733       51.5213002759  IONS      55              1.0000000000
     81330     19922  SOD       SOD            22.2875639836       21.8847585340      -56.1276931050  IONS      56              1.0000000000
     81331     19923  SOD       SOD           -31.0097181366      -16.0237800510      -66.6484005932  IONS      57              1.0000000000
     81332     19924  SOD       SOD            18.3731270557      -35.8837339934      -75.7969447701  IONS      58              1.0000000000
     81333     19925  SOD       SOD            17.5160849964       -6.4609498449      -72.0982600722  IONS      59              1.0000000000
     81334     19926  SOD       SOD           -32.8864028328      -15.3425338061      -76.5376048140  IONS      60              1.0000000000
     81335     19927  SOD       SOD            22.5347396926       -1.9858743691       65.8780130797  IONS      61              1.0000000000
     81336     19928  SOD       SOD           -12.6037598374        2.5735574550       28.5499751234  IONS      62              1.0000000000
     81337     19929  SOD       SOD           -16.4631454817        5.7428850360       76.0815430292  IONS      63              1.0000000000
     81338     19930  SOD       SOD            29.0584981558        8.8692687317      -42.9212557570  IONS      64              1.0000000000
     81339     19931  SOD       SOD           -15.7135161775       -6.6342004831      -27.3857625928  IONS      65              1.0000000000
     81340     19932  SOD       SOD           -10.4210724993      -24.7159798709       78.3244101901  IONS      66              1.0000000000
     81341     19933  SOD       SOD           -15.9687237236       -2.1949092908       30.7528433129  IONS      67              1.0000000000
     81342     19934  SOD       SOD             8.6163311919        8.4504342237      -74.7146814854  IONS      68              1.0000000000
     81343     19935  SOD       SOD           -18.8440491307      -23.8696128797       28.7797202074  IONS      69              1.0000000000
     81344     19936  SOD       SOD            13.0915642857      -25.7555797217      -58.0042859826  IONS      70              1.0000000000
     81345     19937  SOD       SOD            -1.0544921742       10.8562202521      -76.1026405713  IONS      71              1.0000000000
     81346     19938  SOD       SOD           -23.2714613849        4.0571323159       70.8724535075  IONS      72              1.0000000000
     81347     19939  SOD       SOD           -33.1601332507        1.2144115563       23.5112816832  IONS      73              1.0000000000
     81348     19940  SOD       SOD            23.5077798852        9.5956037243       60.1383904895  IONS      74              1.0000000000
     81349     19941  SOD       SOD            -3.8768709442      -33.9873319367      -55.8199201274  IONS      75              1.0000000000
     81350     19942  SOD       SOD           -16.9546950689        9.2286500570       36.0367420333  IONS      76              1.0000000000
     81351     19943  SOD       SOD            30.3099419195        0.3467924719      -35.4739573505  IONS      77              1.0000000000
     81352     19944  CLA       CLA             3.9080035423      -30.0222715085      -57.7107035032  IONS      78             -1.0000000000
     81353     19945  CLA       CLA           -19.1231893673      -11.2845854406       63.9919224157  IONS      79             -1.0000000000
     81354     19946  CLA       CLA           -22.5915809876      -24.3154162359      -67.9417589146  IONS      80             -1.0000000000
     81355     19947  CLA       CLA            33.7137780139      -10.9883783988      -74.3387102735  IONS      81             -1.0000000000
     81356     19948  CLA       CLA            -5.2113897833       34.4956433463       79.1967518530  IONS      82             -1.0000000000
     81357     19949  CLA       CLA            26.3259485578       10.4717382504      -37.1733408270  IONS      83             -1.0000000000
     81358     19950  CLA       CLA           -14.5976937363       19.4902419900      -37.9087271731  IONS      84             -1.0000000000
     81359     19951  CLA       CLA           -20.2564664945       11.0876003223      -32.7021415686  IONS      85             -1.0000000000
     81360     19952  CLA       CLA            21.7078316119      -31.3400709395       50.8264279162  IONS      86             -1.0000000000
     81361     19953  CLA       CLA            22.0635597154       10.2903702186       63.3120186847  IONS      87             -1.0000000000
     81362     19954  CLA       CLA            36.5595831508      -18.8097948938       58.4055247036  IONS      88             -1.0000000000
     81363     19955  CLA       CLA           -22.2913386438       31.6014336289       37.2385146067  IONS      89             -1.0000000000
     81364     19956  CLA       CLA            -5.7231275075       21.6621838768       43.6481935715  IONS      90             -1.0000000000
     81365     19957  CLA       CLA             2.8465206310      -29.8133016887       32.2678298117  IONS      91             -1.0000000000
     81366     19958  CLA       CLA            -3.4559093226       33.5183192613       36.2981167929  IONS      92             -1.0000000000
     81367     19959  CLA       CLA           -13.8073245339      -21.1001963830       39.4185026473  IONS      93             -1.0000000000
     81368     19960  CLA       CLA            -9.2247568836      -11.6009132265      -53.2755602491  IONS      94             -1.0000000000
     81369     19961  CLA       CLA           -31.7213601151       21.1975982678       53.2454765605  IONS      95             -1.0000000000
     81370     19962  CLA       CLA           -13.8893523410      -21.7625592480       61.5975964044  IONS      96             -1.0000000000
     81371     19963  CLA       CLA            18.2193927017       20.3191277264      -30.6920243145  IONS      97             -1.0000000000
     81372     19964  CLA       CLA            19.8585483286       20.1353755979      -75.9369952488  IONS      98             -1.0000000000
     81373     19965  CLA       CLA            22.5401703252       30.7866129074      -28.6354218103  IONS      99             -1.0000000000
     81374     19966  CLA       CLA           -32.6206047606       -6.8708526603      -60.5464445963  IONS      100            -1.0000000000
     81375     19967  CLA       CLA            32.9995423351      -15.1689392674      -55.9859363902  IONS      101            -1.0000000000
     81376     19968  CLA       CLA             8.7741769021      -11.7696521749       67.3973033990  IONS      102            -1.0000000000
     81377     19969  CLA       CLA           -11.7480544350      -25.2049396345      -45.5911942292  IONS      103            -1.0000000000
     81378     19970  CLA       CLA             4.2186152624      -19.5487662698       54.8098317697  IONS      104            -1.0000000000
     81379     19971  CLA       CLA           -26.3029172841       21.1341130193       39.1080291899  IONS      105            -1.0000000000
     81380     19972  CLA       CLA            13.8122869015      -12.0661903434       51.6216863872  IONS      106            -1.0000000000
     81381     19973  CLA       CLA            -6.6582838267        3.0708792903       76.0564379104  IONS      107            -1.0000000000
     81382     19974  CLA       CLA            12.8609329127       10.2904444782       54.1047822315  IONS      108            -1.0000000000
     81383     19975  CLA       CLA           -26.1459061242      -20.3283161984       23.1606813853  IONS      109            -1.0000000000
     81384     19976  CLA       CLA            25.2804496826        1.6151504728      -53.0362817433  IONS      110            -1.0000000000
     81385     19977  CLA       CLA           -12.5553928122      -22.7943152281      -56.7677731504  IONS      111            -1.0000000000
     81386     19978  CLA       CLA            -4.2251820527      -16.0404452090      -27.3066087678  IONS      112            -1.0000000000
     81387     19979  CLA       CLA           -26.9417629749      -27.1246635171      -22.7774888909  IONS      113            -1.0000000000
     81388     19980  CLA       CLA            18.5174664112       -0.6548316846      -23.3667726468  IONS      114            -1.0000000000
     81389     19981  CLA       CLA            32.3022665444       -0.7690190224      -79.9578843426  IONS      115            -1.0000000000
     81390     19982  CLA       CLA            17.1315827056       13.4057611070      -50.8402925774  IONS      116            -1.0000000000
     81391     19983  CLA       CLA            33.6543060114      -30.1766939006       52.0877597618  IONS      117            -1.0000000000
     81392     19984  CLA       CLA           -14.3688711504       12.4094785071       44.2587419241  IONS      118            -1.0000000000
     81393     19985  CLA       CLA            31.5280415145      -36.3751660528      -64.4633523359  IONS      119            -1.0000000000
     81394     19986  CLA       CLA             6.0616236425      -17.0573297090       58.9690733008  IONS      120            -1.0000000000
     81395     19987  CLA       CLA           -29.1858999132       25.2167344267       48.3497637065  IONS      121            -1.0000000000
     81396     19988  CLA       CLA           -28.3489666891       23.2358326033      -40.4646775084  IONS      122            -1.0000000000
     81397     19989  CLA       CLA            -6.9766541221       25.9972286395      -60.9257554879  IONS      123            -1.0000000000
     81398     19990  CLA       CLA             4.5698646158       -1.9764827632       71.5521292355  IONS      124            -1.0000000000
     81399     19991  CLA       CLA           -17.9714344776      -31.2399720481       77.3625726340  IONS      125            -1.0000000000
     81400     19992  CLA       CLA           -21.5504161238       34.2683486197       73.7812772514  IONS      126            -1.0000000000
     81401     19993  CLA       CLA             1.5881996693       33.4635096161       27.3641802291  IONS      127            -1.0000000000
     81402     19994  CLA       CLA             0.8524649993       21.9410908038      -70.6772673875  IONS      128            -1.0000000000
     81403     19995  CLA       CLA            -8.0221457806       -2.9267675557       49.3616525537  IONS      129            -1.0000000000
     81404     19996  CLA       CLA            -7.5692187333      -18.2764217151       26.7732035117  IONS      130            -1.0000000000
